INSANE! Membrane UpperLeaflet>loPI=1.0 LowerLeaflet>PSPI:POPI:POPS:YOPS:POPE:YOPE:POPC:YOPC:ERGO=6.0:14.0:21.0:9.0:9.0:21.0:12.0:48.0:60.0
49877
    1loPI    C1    1  18.462  13.515  10.111 -0.0173  0.0326 -0.2596
    1loPI    C2    2  18.854  13.596  10.125 -0.0090 -0.0583  0.2390
    1loPI    C3    3  18.728  13.237  10.002  0.0528  0.0164 -0.0515
    1loPI   PO4    4  18.327  13.719  10.005 -0.3217  0.0050  0.2090
    1loPI   GL1    5  18.326  13.613   9.526 -0.1857 -0.5497 -0.1403
    1loPI   GL2    6  18.569  13.518   9.617  0.0109  0.4142 -0.1429
    1loPI   C1A    7  18.313  13.630   9.196 -0.3325 -0.2951 -0.0955
    1loPI   C2A    8  18.265  13.593   8.778  0.1602  0.1266 -0.5296
    1loPI   C3A    9  18.121  13.579   8.332 -0.1265 -0.2086 -0.0910
    1loPI   C4A   10  18.198  13.622   7.914 -0.0765  0.0580  0.0502
    1loPI   C5A   11  18.379  13.799   7.621  0.0080 -0.1760 -0.1031
    1loPI   C6A   12  18.678  13.878   7.322 -0.1344  0.4440  0.2029
    1loPI   C1B   13  18.701  13.333   9.220  0.3839 -0.4659 -0.0755
    1loPI   C2B   14  18.657  13.302   8.849 -0.4659  0.0202 -0.0503
    1loPI   C3B   15  18.548  13.248   8.468  0.2555 -0.0233  0.2489
    1loPI   C4B   16  18.455  13.190   8.061  0.3798 -0.1946  0.1251
    2loPI    C1   17  13.291   9.761  10.667 -0.1583 -0.1146 -0.2198
    2loPI    C2   18  13.234  10.062  10.924 -0.0519 -0.2353 -0.0527
    2loPI    C3   19  12.927   9.830  10.816 -0.1524 -0.0157 -0.2496
    2loPI   PO4   20  13.460   9.905  10.480  0.0088  0.1403  0.2970
    2loPI   GL1   21  13.355  10.149  10.090  0.0940 -0.1766  0.1049
    2loPI   GL2   22  13.083  10.141   9.846 -0.1163 -0.2542  0.0802
    2loPI   C1A   23  13.590  10.363   9.853 -0.1227 -0.1750 -0.2317
    2loPI   C2A   24  13.628  10.395   9.431  0.0492  0.0248 -0.0891
    2loPI   C3A   25  13.621  10.487   9.042  0.2212  0.1349 -0.0713
    2loPI   C4A   26  13.376  10.407   8.656 -0.0780 -0.0194 -0.3064
    2loPI   C5A   27  13.546  10.525   8.290  0.0863 -0.0380  0.0710
    2loPI   C6A   28  13.867  10.616   7.942  0.0305  0.0777 -0.1412
    2loPI   C1B   29  13.165  10.281   9.474  0.0832 -0.0638  0.0453
    2loPI   C2B   30  13.077  10.162   9.023 -0.0531 -0.0876  0.0389
    2loPI   C3B   31  12.922  10.151   8.528 -0.0958  0.0286 -0.0703
    2loPI   C4B   32  13.150  10.190   8.133 -0.0433  0.1053 -0.0594
    3loPI    C1   33   9.646  13.293  10.183 -0.3689  0.0351  0.2804
    3loPI    C2   34   9.942  13.141  10.405 -0.2553 -0.2170 -0.0363
    3loPI    C3   35   9.820  13.517  10.466  0.1574 -0.0946  0.0717
    3loPI   PO4   36   9.754  13.158   9.913 -0.1774  0.0520  0.0326
    3loPI   GL1   37   9.700  13.089   9.545 -0.1451  0.1180 -0.2841
    3loPI   GL2   38   9.463  12.950   9.419  0.5661  0.1296 -0.2578
    3loPI   C1A   39   9.907  13.284   9.117  0.1544  0.1709 -0.0956
    3loPI   C2A   40   9.946  13.058   8.690  0.0678  0.1145  0.0290
    3loPI   C3A   41   9.875  13.245   8.287 -0.4811 -0.3090  0.1076
    3loPI   C4A   42   9.887  13.358   7.849 -0.0942 -0.1233 -0.2101
    3loPI   C5A   43   9.790  13.709   7.617 -0.0339  0.1619  0.2079
    3loPI   C6A   44   9.679  14.050   7.381  0.3124 -0.0442 -0.2514
    3loPI   C1B   45   9.188  12.986   9.136  0.1492 -0.2644  0.3149
    3loPI   C2B   46   9.061  13.101   8.737 -0.0654 -0.2306 -0.0354
    3loPI   C3B   47   9.006  13.104   8.213  0.0298  0.2106 -0.0189
    3loPI   C4B   48   8.719  12.900   7.870 -0.0669  0.2187 -0.4045
    4loPI    C1   49   3.080   7.875  10.535 -0.2128 -0.0078  0.1541
    4loPI    C2   50   3.341   7.772  10.820 -0.0834  0.2729  0.1412
    4loPI    C3   51   3.311   8.154  10.705 -0.0009  0.1378 -0.3523
    4loPI   PO4   52   3.144   7.739  10.312  0.1878 -0.3050 -0.1127
    4loPI   GL1   53   2.980   7.646   9.812  0.0352  0.1501  0.0699
    4loPI   GL2   54   2.680   7.539   9.726  0.1534 -0.1756  0.0394
    4loPI   C1A   55   2.993   7.715   9.349 -0.0871  0.0778 -0.3746
    4loPI   C2A   56   2.920   7.933   8.946  0.0630  0.2534  0.1229
    4loPI   C3A   57   2.692   8.041   8.568  0.3560  0.0016  0.1501
    4loPI   C4A   58   2.721   7.705   8.188  0.4225  0.1223 -0.1804
    4loPI   C5A   59   3.004   7.811   7.844  0.5051  0.3501  0.0762
    4loPI   C6A   60   3.396   8.061   7.844 -0.1288 -0.0926  0.1457
    4loPI   C1B   61   2.493   7.819   9.332 -0.2238  0.1274 -0.0423
    4loPI   C2B   62   2.359   7.825   8.991 -0.2319 -0.0182 -0.0159
    4loPI   C3B   63   2.077   7.856   8.637 -0.1809  0.2010 -0.1880
    4loPI   C4B   64   2.143   7.876   8.154 -0.0885 -0.0837 -0.1391
    5loPI    C1   65   5.891   7.546  10.688 -0.1037  0.0277 -0.1798
    5loPI    C2   66   5.498   7.611  10.660 -0.1033  0.1114 -0.0065
    5loPI    C3   67   5.641   7.368  10.945 -0.0248  0.1288 -0.0309
    5loPI   PO4   68   6.056   7.424  10.420 -0.0904 -0.2964  0.0648
    5loPI   GL1   69   6.193   7.197  10.105 -0.0805  0.1256 -0.4224
    5loPI   GL2   70   6.268   7.522   9.914 -0.3990 -0.1631  0.3757
    5loPI   C1A   71   6.235   7.099   9.698  0.0267 -0.2412 -0.0403
    5loPI   C2A   72   6.377   7.119   9.286 -0.0391  0.0965  0.1263
    5loPI   C3A   73   6.412   7.069   8.837 -0.0540 -0.1834 -0.0351
    5loPI   C4A   74   6.480   7.050   8.394  0.0117  0.1268  0.0299
    5loPI   C5A   75   6.624   7.195   8.053 -0.0084  0.0502 -0.3392
    5loPI   C6A   76   6.787   7.592   7.921 -0.0245 -0.2583  0.0615
    5loPI   C1B   77   6.268   7.530   9.473  0.1027  0.1232  0.1792
    5loPI   C2B   78   6.220   7.684   9.091  0.2484  0.2226 -0.1378
    5loPI   C3B   79   6.274   7.528   8.666  0.1969 -0.0556 -0.1430
    5loPI   C4B   80   6.242   7.488   8.204 -0.3463 -0.3750 -0.3498
    6loPI    C1   81   3.018   3.288  10.280 -0.1751 -0.0140 -0.0907
    6loPI    C2   82   2.675   3.447  10.412 -0.1709 -0.1913  0.1405
    6loPI    C3   83   3.024   3.625  10.496 -0.1874 -0.1555  0.1337
    6loPI   PO4   84   2.791   3.040  10.206 -0.1443  0.0694  0.1748
    6loPI   GL1   85   2.634   2.931   9.823 -0.2391 -0.2512  0.2545
    6loPI   GL2   86   2.238   2.867   9.815 -0.0330  0.1420  0.1935
    6loPI   C1A   87   2.753   3.156   9.422  0.4854 -0.0593 -0.0191
    6loPI   C2A   88   2.742   3.162   8.940 -0.2480  0.1746  0.0969
    6loPI   C3A   89   2.720   3.238   8.538 -0.1394 -0.2938  0.0867
    6loPI   C4A   90   2.635   3.345   8.145  0.1321 -0.1655  0.0330
    6loPI   C5A   91   2.822   3.547   7.844  0.0118  0.2072 -0.1828
    6loPI   C6A   92   2.754   3.634   7.413 -0.1763 -0.0020 -0.0798
    6loPI   C1B   93   2.310   2.712   9.431 -0.3441  0.0772  0.1257
    6loPI   C2B   94   2.335   2.838   8.973  0.5579 -0.0015 -0.2858
    6loPI   C3B   95   2.260   2.908   8.602 -0.0464 -0.0034  0.1498
    6loPI   C4B   96   2.350   2.961   8.155  0.0878  0.0279 -0.1372
    7loPI    C1   97   2.748  15.397   9.667  0.0150  0.0265 -0.3018
    7loPI    C2   98   3.038  15.568   9.883 -0.0981  0.1644 -0.2578
    7loPI    C3   99   2.780  15.796   9.679 -0.4209  0.0590  0.0227
    7loPI   PO4  100   2.828  15.226   9.606 -0.0523 -0.1966 -0.2154
    7loPI   GL1  101   2.988  14.986   9.266  0.0252 -0.0400  0.0376
    7loPI   GL2  102   3.361  15.028   9.294 -0.3621  0.2062  0.2387
    7loPI   C1A  103   3.144  14.938   8.784  0.0540 -0.0792 -0.1855
    7loPI   C2A  104   3.222  14.903   8.270 -0.0111  0.1956  0.0309
    7loPI   C3A  105   3.149  15.087   7.950 -0.1565 -0.2999 -0.1318
    7loPI   C4A  106   2.934  15.020   7.632  0.2189  0.0598 -0.1376
    7loPI   C5A  107   2.664  14.759   7.419 -0.1776  0.0528 -0.1705
    7loPI   C6A  108   2.545  14.329   7.214  0.2056  0.4708  0.2731
    7loPI   C1B  109   3.350  15.356   8.960  0.2784 -0.3396 -0.0603
    7loPI   C2B  110   3.433  15.317   8.531  0.2008 -0.2038  0.0540
    7loPI   C3B  111   3.584  15.289   8.087  0.1652 -0.3217 -0.1542
    7loPI   C4B  112   3.432  15.461   7.629  0.0531  0.1124  0.4019
    8loPI    C1  113  12.501   9.576  10.488 -0.0786 -0.1197  0.1326
    8loPI    C2  114  12.171   9.517  10.707 -0.1966 -0.2856 -0.0858
    8loPI    C3  115  12.528   9.405  10.848 -0.2210 -0.0288  0.1871
    8loPI   PO4  116  12.428   9.721  10.287 -0.0006 -0.2018  0.1207
    8loPI   GL1  117  12.523   9.964   9.954 -0.0421  0.1335 -0.2753
    8loPI   GL2  118  12.689   9.769   9.757 -0.0975  0.0064  0.4264
    8loPI   C1A  119  12.179  10.016   9.636 -0.2515 -0.0321 -0.0179
    8loPI   C2A  120  11.836  10.061   9.459 -0.2389 -0.0493 -0.0197
    8loPI   C3A  121  11.674  10.090   9.018  0.0452 -0.0918 -0.2421
    8loPI   C4A  122  11.474   9.943   8.682  0.0563  0.2886 -0.1104
    8loPI   C5A  123  11.594   9.791   8.248  0.0235  0.1495 -0.2479
    8loPI   C6A  124  11.315   9.461   8.001 -0.0262  0.1349 -0.2190
    8loPI   C1B  125  12.524   9.647   9.324  0.0493 -0.1989 -0.4697
    8loPI   C2B  126  12.636   9.857   8.939 -0.2777 -0.2802 -0.2521
    8loPI   C3B  127  12.543   9.794   8.487  0.2073  0.3156  0.2648
    8loPI   C4B  128  12.655  10.012   8.120  0.0280  0.0776  0.2492
    9loPI    C1  129   9.643  11.535  10.261  0.1346  0.0091  0.0226
    9loPI    C2  130   9.760  11.352  10.597  0.1063  0.1168  0.0918
    9loPI    C3  131   9.820  11.744  10.552  0.1757  0.0896 -0.0598
    9loPI   PO4  132   9.661  11.347  10.057 -0.1071 -0.1408  0.0373
    9loPI   GL1  133   9.957  11.177   9.813 -0.1592  0.0256  0.0312
    9loPI   GL2  134   9.983  11.522   9.618 -0.1405 -0.0727  0.3906
    9loPI   C1A  135  10.062  10.984   9.416 -0.1380 -0.0655  0.0069
    9loPI   C2A  136  10.163  10.876   9.059  0.0578  0.0511 -0.1547
    9loPI   C3A  137  10.271  10.965   8.682 -0.0442 -0.0480  0.4188
    9loPI   C4A  138  10.431  11.380   8.351 -0.3107  0.1207 -0.1005
    9loPI   C5A  139  10.624  11.616   8.037  0.1797  0.0007  0.0245
    9loPI   C6A  140  10.895  11.670   7.711  0.2647  0.1384 -0.0504
    9loPI   C1B  141   9.827  11.619   9.148  0.1346 -0.1839 -0.1246
    9loPI   C2B  142   9.646  11.828   8.792  0.0843 -0.0538 -0.3967
    9loPI   C3B  143   9.362  11.822   8.289 -0.3320 -0.0783 -0.1788
    9loPI   C4B  144   9.001  12.083   8.185 -0.0479 -0.1960 -0.1512
   10loPI    C1  145  14.742  13.828  10.658  0.1824 -0.2191  0.0826
   10loPI    C2  146  14.365  13.786  10.783  0.0668  0.2880 -0.0687
   10loPI    C3  147  14.642  13.935  11.030  0.1636 -0.0441  0.0285
   10loPI   PO4  148  14.901  13.662  10.480  0.0100 -0.0206  0.3321
   10loPI   GL1  149  14.997  13.754  10.038  0.0806  0.0779  0.0482
   10loPI   GL2  150  15.250  13.606  10.003 -0.0380  0.0157 -0.0753
   10loPI   C1A  151  14.760  13.595   9.670  0.1161  0.0191 -0.2429
   10loPI   C2A  152  14.818  13.474   9.255 -0.0415  0.0911 -0.1553
   10loPI   C3A  153  15.104  13.431   8.908  0.0553  0.4603  0.0630
   10loPI   C4A  154  15.109  13.153   8.606  0.2645  0.1242 -0.1797
   10loPI   C5A  155  14.924  12.951   8.196 -0.1167 -0.0116  0.2042
   10loPI   C6A  156  14.850  12.583   8.178  0.1004 -0.1360  0.0178
   10loPI   C1B  157  15.204  13.425   9.561  0.0865  0.2360 -0.0209
   10loPI   C2B  158  15.465  13.155   9.249  0.2257  0.0396 -0.1349
   10loPI   C3B  159  15.542  13.113   8.763 -0.1210 -0.0458 -0.0537
   10loPI   C4B  160  15.530  13.085   8.280  0.0564 -0.1397  0.1252
   11loPI    C1  161  17.576  18.446  10.338  0.1009 -0.0338  0.0850
   11loPI    C2  162  17.538  18.823  10.467 -0.0863 -0.0594  0.1083
   11loPI    C3  163  17.264  18.549  10.566  0.0777 -0.2153  0.1375
   11loPI   PO4  164  17.649  18.494  10.062 -0.0646 -0.1005 -0.1289
   11loPI   GL1  165  17.665  18.694   9.787  0.2981 -0.3348  0.2289
   11loPI   GL2  166  17.441  18.608   9.529  0.2924 -0.3105  0.0131
   11loPI   C1A  167  17.958  18.830   9.384  0.0367  0.2089 -0.0365
   11loPI   C2A  168  17.987  18.872   8.871  0.1247 -0.3259 -0.0390
   11loPI   C3A  169  18.035  18.724   8.376 -0.1843  0.2762 -0.0183
   11loPI   C4A  170  18.095  18.658   7.920  0.0765  0.1860 -0.2112
   11loPI   C5A  171  18.172  18.618   7.509 -0.0498  0.2422  0.1129
   11loPI   C6A  172  18.258  18.158   7.349 -0.2109  0.1848  0.0020
   11loPI   C1B  173  17.591  18.636   9.055  0.0005 -0.0697 -0.0593
   11loPI   C2B  174  17.506  18.885   8.716 -0.0551  0.3634 -0.1292
   11loPI   C3B  175  17.536  18.941   8.314  0.0528 -0.0165  0.0268
   11loPI   C4B  176  17.602  19.116   7.937 -0.3251  0.1073  0.0106
   12loPI    C1  177   3.396   9.120  10.407 -0.0708 -0.0499  0.0696
   12loPI    C2  178   3.165   9.407  10.563 -0.1287  0.0520 -0.1965
   12loPI    C3  179   3.554   9.392  10.654 -0.2272 -0.0976  0.2240
   12loPI   PO4  180   3.375   9.158  10.172  0.0710 -0.1494 -0.0681
   12loPI   GL1  181   3.293   9.009   9.848 -0.1900  0.0216  0.0169
   12loPI   GL2  182   3.118   9.191   9.677  0.0844 -0.0516  0.1986
   12loPI   C1A  183   3.243   8.785   9.403 -0.2519  0.3447  0.0282
   12loPI   C2A  184   3.190   8.813   8.967  0.0770  0.2834  0.2119
   12loPI   C3A  185   3.158   8.833   8.585  0.0207 -0.1754 -0.2313
   12loPI   C4A  186   3.073   8.745   8.148  0.0485  0.1284 -0.2024
   12loPI   C5A  187   3.114   8.519   7.764 -0.2049  0.1291  0.2395
   12loPI   C6A  188   3.478   8.494   7.437  0.1945  0.2326  0.1246
   12loPI   C1B  189   3.212   9.333   9.312 -0.0884 -0.0444 -0.1625
   12loPI   C2B  190   3.264   9.322   8.888  0.1503  0.0208  0.0415
   12loPI   C3B  191   3.195   9.304   8.412 -0.1344 -0.1866  0.0891
   12loPI   C4B  192   3.223   9.226   8.014  0.0394 -0.3513 -0.3304
   13loPI    C1  193  12.282  11.287  10.400  0.0082 -0.0022  0.0080
   13loPI    C2  194  12.069  11.623  10.446 -0.0199 -0.0289  0.0753
   13loPI    C3  195  12.254  11.459  10.760  0.0950 -0.0097  0.0183
   13loPI   PO4  196  12.378  11.321  10.146  0.1068 -0.1855 -0.3648
   13loPI   GL1  197  12.530  11.415   9.756 -0.1179  0.0637 -0.0306
   13loPI   GL2  198  12.675  11.162   9.682  0.1123  0.0415 -0.0105
   13loPI   C1A  199  12.737  11.669   9.494 -0.0631  0.0373 -0.0989
   13loPI   C2A  200  12.807  11.690   9.064  0.1263  0.4438 -0.0835
   13loPI   C3A  201  12.813  11.685   8.643 -0.1414  0.2028  0.1579
   13loPI   C4A  202  12.767  11.910   8.192  0.0820  0.1302 -0.0178
   13loPI   C5A  203  12.666  11.819   7.706  0.1866 -0.2670  0.2104
   13loPI   C6A  204  12.558  11.663   7.209  0.0604 -0.0573 -0.1104
   13loPI   C1B  205  12.677  11.229   9.284  0.0772 -0.0014  0.2069
   13loPI   C2B  206  12.736  11.215   8.834  0.0439 -0.0025 -0.0031
   13loPI   C3B  207  12.814  11.071   8.428  0.0809 -0.1511  0.0616
   13loPI   C4B  208  12.652  10.915   8.029  0.1187 -0.0648 -0.1523
   14loPI    C1  209  13.888  12.591  10.263 -0.0407 -0.0126  0.2378
   14loPI    C2  210  13.721  12.311  10.495 -0.0719 -0.0653  0.1522
   14loPI    C3  211  13.992  12.562  10.648 -0.0942 -0.0980  0.2462
   14loPI   PO4  212  13.982  12.393   9.994 -0.3070 -0.2619 -0.2072
   14loPI   GL1  213  14.246  12.204   9.715 -0.0908  0.0628  0.3673
   14loPI   GL2  214  14.439  11.944   9.580  0.0356 -0.0985 -0.1627
   14loPI   C1A  215  14.168  12.224   9.274 -0.0611  0.4825  0.1438
   14loPI   C2A  216  14.069  12.436   8.931  0.4596 -0.0372 -0.0598
   14loPI   C3A  217  13.834  12.524   8.519 -0.1039 -0.0529 -0.2174
   14loPI   C4A  218  13.753  12.446   8.148  0.1402 -0.1824  0.4185
   14loPI   C5A  219  13.983  12.558   7.716 -0.2865 -0.5078  0.0419
   14loPI   C6A  220  14.384  12.440   7.503  0.2449  0.1437  0.1053
   14loPI   C1B  221  14.513  11.563   9.288 -0.1811  0.1465 -0.0198
   14loPI   C2B  222  14.601  11.359   8.840 -0.0445 -0.1744 -0.1732
   14loPI   C3B  223  14.700  11.524   8.458  0.1915 -0.1237  0.0883
   14loPI   C4B  224  14.744  11.412   8.020  0.0862 -0.0435  0.1242
   15loPI    C1  225   7.675   0.201   9.725 -0.0179  0.1386 -0.2996
   15loPI    C2  226   7.600   0.568   9.583 -0.2205  0.2211  0.0097
   15loPI    C3  227   7.345   0.396   9.839 -0.0448 -0.0712 -0.0060
   15loPI   PO4  228   7.733   0.057   9.527 -0.1413 -0.2421  0.0437
   15loPI   GL1  229   7.533   0.054   9.123  0.2594  0.0368  0.0964
   15loPI   GL2  230   7.673   0.414   9.113  0.0159  0.0646  0.2576
   15loPI   C1A  231   7.504   0.061   8.588 -0.2242 -0.1558 -0.3946
   15loPI   C2A  232   7.504  -0.273   8.257 -0.0417 -0.0752 -0.5243
   15loPI   C3A  233   7.477  -0.546   7.971 -0.1117  0.1391  0.0881
   15loPI   C4A  234   7.660  -0.963   7.839 -0.0472 -0.1534  0.1992
   15loPI   C5A  235   7.478  -1.322   7.628 -0.0239  0.0978 -0.1127
   15loPI   C6A  236   7.063  -1.423   7.498 -0.0265  0.1477  0.1558
   15loPI   C1B  237   7.840   0.452   8.738 -0.1692 -0.0997 -0.3348
   15loPI   C2B  238   7.797   0.636   8.319  0.0433  0.0969  0.1919
   15loPI   C3B  239   7.666   0.814   7.962  0.3187  0.0719 -0.0117
   15loPI   C4B  240   7.736   0.679   7.521 -0.3388 -0.1106 -0.1058
   16loPI    C1  241  10.690  13.612  10.223  0.3533 -0.0588 -0.1261
   16loPI    C2  242  10.822  13.914  10.451 -0.1256 -0.0358  0.1358
   16loPI    C3  243  10.825  13.540  10.593  0.2731 -0.1326 -0.1110
   16loPI   PO4  244  10.705  13.620   9.985  0.2160 -0.0054 -0.1412
   16loPI   GL1  245  10.574  13.382   9.638  0.1702 -0.0284  0.0975
   16loPI   GL2  246  10.748  13.068   9.513 -0.0151  0.1815  0.3087
   16loPI   C1A  247  10.439  13.438   9.245  0.0793  0.0379  0.0884
   16loPI   C2A  248  10.272  13.517   8.824 -0.0355 -0.3028 -0.2935
   16loPI   C3A  249  10.271  13.517   8.420 -0.2442 -0.2350 -0.0431
   16loPI   C4A  250  10.234  13.681   8.008 -0.3887 -0.1391 -0.1109
   16loPI   C5A  251  10.281  13.744   7.613  0.0327  0.1954 -0.0514
   16loPI   C6A  252  10.200  13.976   7.248  0.1536 -0.2351  0.0689
   16loPI   C1B  253  10.776  13.169   9.093  0.1138  0.1323  0.2930
   16loPI   C2B  254  10.534  13.070   8.701  0.1812 -0.1005  0.1879
   16loPI   C3B  255  10.392  12.935   8.333 -0.1543 -0.2436 -0.0250
   16loPI   C4B  256  10.179  12.975   7.988 -0.2990  0.0917  0.1732
   17loPI    C1  257   9.136   7.952  10.399  0.0490 -0.2380  0.0556
   17loPI    C2  258   9.403   7.728  10.595 -0.0079 -0.1809  0.1993
   17loPI    C3  259   9.345   8.109  10.701 -0.0767 -0.1647  0.1051
   17loPI   PO4  260   9.280   7.873  10.095 -0.0841  0.0221 -0.0725
   17loPI   GL1  261   9.590   8.026   9.904  0.2130 -0.0111 -0.4098
   17loPI   GL2  262   9.832   8.021   9.775  0.2350 -0.3145  0.2121
   17loPI   C1A  263   9.417   8.307   9.430  0.1982 -0.3463 -0.2186
   17loPI   C2A  264   9.057   8.329   9.161  0.1945 -0.1211 -0.0498
   17loPI   C3A  265   8.806   8.233   8.932 -0.1947  0.0993  0.1201
   17loPI   C4A  266   8.643   8.203   8.555 -0.0145  0.2196  0.3754
   17loPI   C5A  267   8.465   8.310   8.209  0.2537 -0.1770 -0.0405
   17loPI   C6A  268   8.333   8.373   7.747 -0.0132  0.3021  0.1613
   17loPI   C1B  269   9.907   8.178   9.290  0.0019 -0.2005 -0.0030
   17loPI   C2B  270   9.754   8.159   8.821 -0.3935  0.0626 -0.2422
   17loPI   C3B  271   9.583   7.977   8.459  0.0984 -0.0190 -0.0674
   17loPI   C4B  272   9.430   7.777   8.194  0.0817 -0.2300 -0.1072
   18loPI    C1  273  18.456   9.242  10.577 -0.0599 -0.0634 -0.1011
   18loPI    C2  274  18.198   8.973  10.434 -0.0119 -0.2988  0.2409
   18loPI    C3  275  18.122   9.157  10.780  0.1311 -0.1388  0.1882
   18loPI   PO4  276  18.475   9.365  10.326 -0.1523 -0.0044  0.0309
   18loPI   GL1  277  18.750   9.361   9.908 -0.0465 -0.3319 -0.1883
   18loPI   GL2  278  18.918   9.552  10.042  0.2188  0.0798  0.2348
   18loPI   C1A  279  18.636   9.217   9.506  0.4966 -0.0296  0.1983
   18loPI   C2A  280  18.495   9.393   9.161 -0.0044 -0.0897  0.0723
   18loPI   C3A  281  18.414   9.330   8.774 -0.3115 -0.1329 -0.1875
   18loPI   C4A  282  18.399   9.340   8.378 -0.1190  0.0599 -0.0683
   18loPI   C5A  283  18.399   9.536   7.883  0.1379 -0.2374 -0.1282
   18loPI   C6A  284  18.689   9.818   7.681  0.0793  0.1850 -0.0626
   18loPI   C1B  285  19.152   9.646   9.731 -0.0037  0.0490  0.1163
   18loPI   C2B  286  19.452   9.659   9.399  0.5747  0.0393  0.0902
   18loPI   C3B  287  19.522   9.658   8.952 -0.0456  0.1642  0.0513
   18loPI   C4B  288  19.485   9.682   8.479  0.0181 -0.3704 -0.0191
   19loPI    C1  289  13.089  14.641   9.748  0.0128 -0.1412  0.0291
   19loPI    C2  290  13.401  14.489   9.947  0.1162  0.0976  0.0530
   19loPI    C3  291  13.327  14.882   9.960 -0.0968  0.0639 -0.0775
   19loPI   PO4  292  13.028  14.450   9.552  0.3038 -0.0512 -0.0199
   19loPI   GL1  293  13.299  14.315   9.186 -0.1702 -0.1884  0.0155
   19loPI   GL2  294  13.531  14.200   9.243 -0.0123  0.0765 -0.3196
   19loPI   C1A  295  13.471  14.338   8.642 -0.4248  0.2393 -0.0560
   19loPI   C2A  296  13.438  14.302   8.219  0.1724 -0.1655  0.1000
   19loPI   C3A  297  13.062  14.128   8.140 -0.0211 -0.0493 -0.1841
   19loPI   C4A  298  12.693  14.263   8.000  0.2595 -0.1004  0.3335
   19loPI   C5A  299  12.374  14.265   7.699 -0.2900 -0.1320  0.0347
   19loPI   C6A  300  12.428  14.430   7.385 -0.0810 -0.2567 -0.1845
   19loPI   C1B  301  13.782  14.537   9.061 -0.2082 -0.0097 -0.2915
   19loPI   C2B  302  13.737  14.775   8.706 -0.2373  0.2509 -0.2515
   19loPI   C3B  303  13.897  14.583   8.361 -0.0240  0.1462 -0.0183
   19loPI   C4B  304  13.855  14.454   7.984 -0.0593 -0.2399 -0.1643
   20loPI    C1  305  14.023  16.353  10.437  0.2152  0.3506 -0.1568
   20loPI    C2  306  14.312  16.085  10.506  0.0452  0.1624 -0.1649
   20loPI    C3  307  14.279  16.409  10.739  0.0225 -0.0146  0.0815
   20loPI   PO4  308  14.099  16.387  10.131 -0.1451  0.0251  0.2802
   20loPI   GL1  309  14.270  16.612   9.794  0.0966  0.0320  0.3620
   20loPI   GL2  310  14.379  16.358   9.570  0.0518  0.0998 -0.2996
   20loPI   C1A  311  14.024  16.626   9.320  0.2867 -0.0084  0.2780
   20loPI   C2A  312  13.908  16.942   9.049  0.0540 -0.2055 -0.0113
   20loPI   C3A  313  13.944  17.154   8.597  0.0969  0.0046  0.3503
   20loPI   C4A  314  13.904  16.960   8.250  0.1793  0.0007 -0.0518
   20loPI   C5A  315  13.832  16.927   7.739  0.0661 -0.1523 -0.0966
   20loPI   C6A  316  13.576  17.171   7.514 -0.4148  0.1472 -0.2043
   20loPI   C1B  317  14.533  16.325   9.156 -0.6156  0.1156 -0.2714
   20loPI   C2B  318  14.574  16.336   8.687  0.2272 -0.0081 -0.4221
   20loPI   C3B  319  14.484  16.282   8.276 -0.1280  0.2705  0.1144
   20loPI   C4B  320  14.770  15.988   8.073  0.1955 -0.1507 -0.1022
   21loPI    C1  321   0.373   9.827  10.565 -0.2853  0.1201  0.0855
   21loPI    C2  322   0.108   9.530  10.519 -0.0947 -0.0840  0.2828
   21loPI    C3  323   0.304   9.572  10.866  0.3226 -0.0964  0.0548
   21loPI   PO4  324   0.403  10.028  10.431 -0.0583 -0.0791  0.1620
   21loPI   GL1  325   0.349  10.127  10.045 -0.2970  0.2192  0.4969
   21loPI   GL2  326   0.697   9.978   9.895  0.1110  0.0507 -0.0415
   21loPI   C1A  327   0.227  10.123   9.539 -0.1613 -0.1524 -0.0504
   21loPI   C2A  328   0.190   9.885   9.227 -0.0334  0.2763 -0.2363
   21loPI   C3A  329   0.190   9.548   8.941  0.0879  0.1896  0.1432
   21loPI   C4A  330   0.047   9.247   8.618  0.0117 -0.2057  0.1081
   21loPI   C5A  331  -0.021   9.211   8.129  0.1425 -0.0620 -0.0562
   21loPI   C6A  332   0.092   8.960   8.044 -0.0247 -0.1943 -0.0980
   21loPI   C1B  333   0.715  10.152   9.422 -0.2341 -0.0909 -0.2467
   21loPI   C2B  334   0.651  10.219   8.974  0.0542  0.1868  0.0395
   21loPI   C3B  335   0.736  10.314   8.644  0.1032  0.1937  0.3220
   21loPI   C4B  336   0.664  10.125   8.258  0.0209  0.0780 -0.1656
   22loPI    C1  337  10.098   8.016  10.341 -0.2429  0.0254  0.0654
   22loPI    C2  338   9.727   8.104  10.464 -0.3406 -0.1874 -0.0697
   22loPI    C3  339   9.795   7.767  10.259 -0.0822 -0.1182 -0.1017
   22loPI   PO4  340  10.169   8.189  10.252 -0.1700  0.0397  0.1081
   22loPI   GL1  341  10.218   8.527   9.885 -0.0017 -0.2235  0.1758
   22loPI   GL2  342  10.283   8.306   9.608  0.1104  0.3429 -0.0427
   22loPI   C1A  343  10.325   8.752   9.588 -0.1582  0.1495 -0.5078
   22loPI   C2A  344  10.378   8.657   9.184  0.1695 -0.2039  0.1807
   22loPI   C3A  345  10.327   8.470   8.768  0.1616 -0.3413  0.1702
   22loPI   C4A  346  10.395   8.454   8.447 -0.0032 -0.2327 -0.1101
   22loPI   C5A  347  10.250   8.644   8.139  0.0355 -0.1841 -0.3220
   22loPI   C6A  348  10.112   8.650   7.724  0.3366 -0.2875 -0.1081
   22loPI   C1B  349  10.499   8.117   9.196 -0.0156 -0.0224 -0.1042
   22loPI   C2B  350  10.889   8.208   9.098  0.1133  0.0874 -0.2032
   22loPI   C3B  351  11.301   8.499   9.086  0.0151  0.2389 -0.0616
   22loPI   C4B  352  11.536   8.759   9.263 -0.0568 -0.1146  0.2984
   23loPI    C1  353   8.685   1.117  10.085  0.0460 -0.1104  0.2470
   23loPI    C2  354   9.029   0.940  10.187  0.1645  0.0216  0.0825
   23loPI    C3  355   8.694   0.855  10.387  0.2425 -0.2956  0.0849
   23loPI   PO4  356   8.641   1.118   9.863 -0.0575 -0.0023 -0.0653
   23loPI   GL1  357   8.879   0.963   9.634  0.1929  0.1120 -0.1670
   23loPI   GL2  358   9.004   0.727   9.560  0.2960  0.0665  0.0817
   23loPI   C1A  359   8.631   0.683   9.246  0.1528 -0.2404 -0.0041
   23loPI   C2A  360   8.523   0.706   8.847  0.3751  0.3156 -0.0192
   23loPI   C3A  361   8.275   0.828   8.531 -0.1385 -0.2652  0.0638
   23loPI   C4A  362   8.164   0.785   8.046 -0.1875 -0.2357  0.1009
   23loPI   C5A  363   7.966   0.420   7.861 -0.0412 -0.2827 -0.2450
   23loPI   C6A  364   7.859  -0.054   7.992 -0.0684 -0.1263 -0.0286
   23loPI   C1B  365   9.106   0.967   9.206 -0.0689 -0.0276  0.0446
   23loPI   C2B  366   8.954   1.017   8.803  0.2101 -0.1277 -0.2583
   23loPI   C3B  367   8.547   1.279   8.681  0.0791  0.0826 -0.2165
   23loPI   C4B  368   8.087   1.440   8.770  0.0789  0.0424  0.1411
   24loPI    C1  369   3.457  17.725   9.845 -0.0325  0.0185  0.2866
   24loPI    C2  370   3.812  17.570   9.744 -0.0178  0.1768  0.0888
   24loPI    C3  371   3.654  17.492  10.103  0.1250 -0.0544  0.1030
   24loPI   PO4  372   3.397  17.937   9.603 -0.0981  0.2323 -0.0541
   24loPI   GL1  373   3.389  17.883   9.153  0.1436 -0.1724 -0.3136
   24loPI   GL2  374   3.694  17.748   9.218  0.2601 -0.3710 -0.0324
   24loPI   C1A  375   3.442  18.045   8.754 -0.0550 -0.0689  0.0050
   24loPI   C2A  376   3.389  18.079   8.281  0.0288 -0.1995 -0.0158
   24loPI   C3A  377   3.582  18.010   7.888  0.1406 -0.0416  0.1069
   24loPI   C4A  378   3.925  18.008   7.539  0.1393 -0.1011  0.0842
   24loPI   C5A  379   3.829  17.734   7.284  0.1271 -0.1128  0.3621
   24loPI   C6A  380   4.103  17.383   7.327  0.0210 -0.4656 -0.1755
   24loPI   C1B  381   3.950  17.833   8.825  0.0367  0.2450 -0.4048
   24loPI   C2B  382   3.957  17.909   8.375  0.1053  0.0633 -0.0661
   24loPI   C3B  383   4.018  17.805   7.968 -0.0391 -0.2808 -0.2497
   24loPI   C4B  384   4.385  17.773   7.513 -0.3146  0.1621 -0.0713
   25loPI    C1  385   4.947  12.907  10.468 -0.0975 -0.1886  0.1073
   25loPI    C2  386   4.996  12.994  10.855  0.3367  0.0594  0.0033
   25loPI    C3  387   5.094  12.631  10.718 -0.0714 -0.1198  0.1682
   25loPI   PO4  388   5.045  13.192  10.330 -0.3093 -0.0056  0.2052
   25loPI   GL1  389   5.269  13.239   9.992 -0.1344 -0.0266 -0.1119
   25loPI   GL2  390   5.288  13.565   9.904  0.2717  0.1233 -0.0686
   25loPI   C1A  391   5.380  12.959   9.655 -0.1574 -0.1738  0.0850
   25loPI   C2A  392   5.301  12.852   9.154 -0.0850  0.1233 -0.0647
   25loPI   C3A  393   5.336  12.946   8.702  0.2515 -0.0852  0.0360
   25loPI   C4A  394   5.606  13.284   8.390  0.3850  0.4116 -0.2202
   25loPI   C5A  395   5.601  13.413   7.935 -0.0045 -0.1182  0.1786
   25loPI   C6A  396   5.593  13.142   7.552 -0.0758 -0.1532 -0.0648
   25loPI   C1B  397   5.477  13.540   9.475  0.2256  0.0663  0.2743
   25loPI   C2B  398   5.364  13.491   8.884  0.0570  0.0116 -0.2494
   25loPI   C3B  399   5.255  13.675   8.565  0.0211  0.1583  0.0624
   25loPI   C4B  400   5.163  13.589   8.142  0.1512 -0.2738 -0.0612
   26loPI    C1  401  12.604   1.660  10.957  0.0252  0.2392  0.1387
   26loPI    C2  402  12.630   2.058  10.977 -0.0584  0.2577 -0.0828
   26loPI    C3  403  12.748   1.834  11.287  0.0535  0.4508  0.0166
   26loPI   PO4  404  12.503   1.609  10.688  0.1494 -0.0786  0.0451
   26loPI   GL1  405  12.501   1.639  10.251  0.0635  0.0321  0.0657
   26loPI   GL2  406  12.447   1.959  10.101  0.1522 -0.0656 -0.4471
   26loPI   C1A  407  12.396   1.475   9.761  0.1842  0.0151  0.0280
   26loPI   C2A  408  12.262   1.593   9.429  0.0524  0.1827  0.3372
   26loPI   C3A  409  12.316   1.714   9.084 -0.1621 -0.0807 -0.3159
   26loPI   C4A  410  12.303   1.620   8.661 -0.0898 -0.0427 -0.1516
   26loPI   C5A  411  12.368   1.639   8.244  0.2076  0.2349 -0.0966
   26loPI   C6A  412  12.319   1.573   7.755  0.1303 -0.0342 -0.1448
   26loPI   C1B  413  12.521   1.953   9.612 -0.0892 -0.0885 -0.1374
   26loPI   C2B  414  12.698   1.946   9.230 -0.3395 -0.2718  0.0160
   26loPI   C3B  415  12.681   1.964   8.849  0.0061  0.1436 -0.0576
   26loPI   C4B  416  12.618   2.087   8.476 -0.1402  0.0648 -0.2579
   27loPI    C1  417   4.103   6.313  10.196  0.0908  0.0791 -0.0243
   27loPI    C2  418   3.928   6.662  10.281  0.4397  0.2401  0.0495
   27loPI    C3  419   4.159   6.482  10.554  0.1974 -0.0916  0.0413
   27loPI   PO4  420   3.902   6.164  10.176  0.0417 -0.0033  0.1804
   27loPI   GL1  421   3.677   5.982   9.874 -0.2458 -0.0513  0.3220
   27loPI   GL2  422   3.458   5.734   9.798  0.0503  0.0151  0.1507
   27loPI   C1A  423   3.857   5.952   9.511 -0.1004 -0.1836  0.0511
   27loPI   C2A  424   3.586   5.842   9.214  0.0443 -0.2918 -0.0032
   27loPI   C3A  425   3.481   6.183   8.886  0.0271 -0.0578 -0.2547
   27loPI   C4A  426   3.573   6.212   8.416  0.1587 -0.2621  0.0735
   27loPI   C5A  427   3.767   6.168   8.057  0.5727  0.0256 -0.0637
   27loPI   C6A  428   3.968   5.860   7.810  0.0038  0.2596 -0.1972
   27loPI   C1B  429   3.541   5.368   9.478  0.2096 -0.1790  0.1272
   27loPI   C2B  430   3.604   5.156   9.112  0.1219  0.1034  0.1972
   27loPI   C3B  431   3.652   5.127   8.721  0.0660 -0.0636  0.0383
   27loPI   C4B  432   3.692   5.345   8.362 -0.2880 -0.1640  0.0869
   28loPI    C1  433  17.292  15.239   9.809 -0.0155  0.0565  0.1318
   28loPI    C2  434  16.910  15.357   9.821 -0.0546 -0.0423 -0.0926
   28loPI    C3  435  17.053  15.113  10.104 -0.1391  0.0476  0.0286
   28loPI   PO4  436  17.326  15.263   9.505 -0.0135 -0.1092  0.0404
   28loPI   GL1  437  17.508  14.916   9.363  0.2867 -0.1870  0.1204
   28loPI   GL2  438  17.345  14.756   9.565  0.3087 -0.0420  0.0043
   28loPI   C1A  439  17.506  14.819   8.828  0.2589 -0.0469 -0.0467
   28loPI   C2A  440  17.480  14.769   8.395  0.1105 -0.0017 -0.0614
   28loPI   C3A  441  17.340  14.743   7.977 -0.2067 -0.1202 -0.1393
   28loPI   C4A  442  17.465  14.377   7.636  0.1989 -0.0855  0.1752
   28loPI   C5A  443  17.661  13.945   7.537  0.1119 -0.0627 -0.1675
   28loPI   C6A  444  17.856  13.624   7.259 -0.2097 -0.2406  0.1084
   28loPI   C1B  445  17.390  14.447   9.287  0.1315  0.2511  0.0215
   28loPI   C2B  446  17.495  14.246   8.967  0.2805  0.0171 -0.0074
   28loPI   C3B  447  17.369  14.300   8.568  0.1524  0.2028 -0.1607
   28loPI   C4B  448  17.455  14.264   8.090 -0.1304  0.0288 -0.0515
   29loPI    C1  449   2.742   5.574  10.436 -0.1083  0.2572 -0.2309
   29loPI    C2  450   2.380   5.645  10.590 -0.0652 -0.1299  0.0627
   29loPI    C3  451   2.701   5.633  10.829  0.1506  0.2324 -0.1981
   29loPI   PO4  452   2.695   5.371  10.335 -0.0955  0.0503 -0.0816
   29loPI   GL1  453   2.608   5.251   9.842  0.1981 -0.0945  0.0249
   29loPI   GL2  454   2.403   5.401   9.620  0.1876  0.1771  0.4580
   29loPI   C1A  455   2.700   5.011   9.473  0.1664  0.1922 -0.0925
   29loPI   C2A  456   2.829   5.047   8.981  0.2290  0.0280 -0.0346
   29loPI   C3A  457   2.796   5.028   8.509  0.4064 -0.2163  0.0103
   29loPI   C4A  458   2.541   4.856   8.143  0.0604  0.1282 -0.1596
   29loPI   C5A  459   2.561   4.755   7.676  0.1201 -0.0427  0.0138
   29loPI   C6A  460   2.956   4.596   7.423  0.2545  0.2690  0.1466
   29loPI   C1B  461   2.546   5.432   9.184  0.3392 -0.2238  0.0930
   29loPI   C2B  462   2.617   5.489   8.665  0.0928  0.1192  0.0347
   29loPI   C3B  463   2.693   5.606   8.234 -0.0792 -0.1482  0.1006
   29loPI   C4B  464   2.714   5.274   7.883  0.1063  0.2833 -0.1848
   30loPI    C1  465   5.019  14.284  10.633  0.0645 -0.0814 -0.1951
   30loPI    C2  466   5.250  14.599  10.546  0.3227 -0.1504  0.2125
   30loPI    C3  467   4.985  14.622  10.845 -0.1302 -0.1095 -0.1794
   30loPI   PO4  468   4.941  14.237  10.386  0.2968  0.0551  0.1848
   30loPI   GL1  469   5.005  13.964   9.954  0.1122  0.0382  0.0558
   30loPI   GL2  470   4.733  13.937   9.735  0.1884  0.1870  0.0780
   30loPI   C1A  471   5.007  13.583   9.547 -0.0943 -0.0985  0.1556
   30loPI   C2A  472   4.932  13.219   9.216 -0.0160  0.0151 -0.1710
   30loPI   C3A  473   4.846  13.210   8.786 -0.1203  0.0258  0.0883
   30loPI   C4A  474   4.979  13.082   8.319 -0.0023  0.1871 -0.2047
   30loPI   C5A  475   5.340  12.866   8.119 -0.1920  0.0954  0.0029
   30loPI   C6A  476   5.441  12.496   7.964  0.0575  0.3898  0.2798
   30loPI   C1B  477   4.643  14.011   9.350  0.1634  0.0708 -0.0549
   30loPI   C2B  478   4.460  14.058   9.002 -0.2038  0.0256  0.0512
   30loPI   C3B  479   4.522  14.320   8.533  0.1576  0.1061  0.1343
   30loPI   C4B  480   4.762  14.354   8.099  0.3261  0.1787 -0.1036
   31loPI    C1  481   5.320   6.644  10.498  0.1995  0.0404  0.0721
   31loPI    C2  482   5.070   6.915  10.343  0.1592 -0.1017 -0.1141
   31loPI    C3  483   5.210   6.962  10.714 -0.3993 -0.1831  0.1163
   31loPI   PO4  484   5.471   6.612  10.368  0.0037  0.1437 -0.3862
   31loPI   GL1  485   5.667   6.819   9.948 -0.2485  0.3164  0.1280
   31loPI   GL2  486   5.332   6.684   9.889 -0.2007 -0.2108 -0.0907
   31loPI   C1A  487   5.771   7.203   9.764 -0.0010  0.0764  0.2514
   31loPI   C2A  488   5.864   7.254   9.325 -0.1577 -0.0827  0.4501
   31loPI   C3A  489   5.943   7.258   8.914 -0.3558  0.1646  0.2281
   31loPI   C4A  490   5.891   7.276   8.414 -0.1759 -0.0131 -0.3421
   31loPI   C5A  491   5.631   7.300   8.067  0.2673  0.0529  0.0528
   31loPI   C6A  492   5.329   7.374   7.709  0.0351 -0.0440  0.0642
   31loPI   C1B  493   5.398   6.929   9.559  0.0349  0.0903  0.1728
   31loPI   C2B  494   5.480   6.950   9.102 -0.1815 -0.0665 -0.0646
   31loPI   C3B  495   5.583   6.992   8.793  0.1378  0.0740 -0.1583
   31loPI   C4B  496   5.645   6.890   8.418  0.2285 -0.0498 -0.1446
   32loPI    C1  497   5.316   0.464  10.360  0.0011 -0.0237 -0.0957
   32loPI    C2  498   5.077   0.708  10.568  0.1258 -0.0905  0.1298
   32loPI    C3  499   5.431   0.599  10.718  0.0627 -0.4300  0.0431
   32loPI   PO4  500   5.214   0.495  10.068  0.3281 -0.1908 -0.0570
   32loPI   GL1  501   5.306   0.240   9.745  0.0416  0.0406  0.4416
   32loPI   GL2  502   5.600   0.144   9.576  0.0393 -0.1163 -0.0092
   32loPI   C1A  503   5.094   0.427   9.399 -0.0253  0.0790 -0.1797
   32loPI   C2A  504   5.065   0.516   8.972 -0.2019 -0.2322  0.1105
   32loPI   C3A  505   4.966   0.507   8.603 -0.0659 -0.1074 -0.1021
   32loPI   C4A  506   4.883   0.362   8.216  0.0403 -0.1584 -0.0971
   32loPI   C5A  507   4.723   0.175   7.971  0.2098  0.0354 -0.0380
   32loPI   C6A  508   4.433   0.053   7.780  0.0694  0.0221  0.2277
   32loPI   C1B  509   5.479   0.211   9.088 -0.0270 -0.2478  0.1324
   32loPI   C2B  510   5.444   0.284   8.601  0.1465 -0.2013  0.1046
   32loPI   C3B  511   5.613   0.195   8.301  0.0874 -0.0161 -0.1069
   32loPI   C4B  512   5.732   0.151   7.855  0.0647  0.0188  0.0810
   33loPI    C1  513  15.756   2.771  10.295 -0.2763 -0.1565 -0.1928
   33loPI    C2  514  15.650   2.572  10.625  0.0871  0.0379  0.0468
   33loPI    C3  515  15.449   2.900  10.517 -0.1951 -0.1705 -0.0719
   33loPI   PO4  516  15.820   2.555  10.153 -0.0327 -0.2816  0.1892
   33loPI   GL1  517  15.993   2.521   9.755  0.0501  0.1979  0.0293
   33loPI   GL2  518  15.736   2.355   9.699 -0.0632  0.1081 -0.1387
   33loPI   C1A  519  16.147   2.707   9.409 -0.0389 -0.0405  0.3877
   33loPI   C2A  520  16.139   2.701   8.923 -0.2335  0.0567 -0.3824
   33loPI   C3A  521  16.109   2.651   8.470 -0.1322  0.0948 -0.0411
   33loPI   C4A  522  16.162   2.913   8.221 -0.2558 -0.0055 -0.2271
   33loPI   C5A  523  16.362   3.291   8.161 -0.0856 -0.1790  0.0637
   33loPI   C6A  524  16.509   3.706   7.893 -0.1304  0.0222 -0.0108
   33loPI   C1B  525  15.735   2.376   9.229 -0.2010  0.0958  0.3783
   33loPI   C2B  526  15.791   2.389   8.772 -0.1363 -0.0207  0.1855
   33loPI   C3B  527  15.684   2.473   8.307  0.0141  0.0378 -0.1329
   33loPI   C4B  528  15.776   2.693   7.953 -0.1311  0.1735 -0.0265
   34loPI    C1  529  16.120  16.616  10.284 -0.1094  0.2412 -0.2049
   34loPI    C2  530  15.774  16.659  10.089 -0.2358  0.2137  0.0106
   34loPI    C3  531  15.793  16.425  10.412 -0.0075  0.1894 -0.0193
   34loPI   PO4  532  16.274  16.551  10.080  0.4745  0.3353 -0.2078
   34loPI   GL1  533  16.126  16.725   9.664  0.0432  0.2526 -0.0422
   34loPI   GL2  534  15.823  16.852   9.609  0.0790 -0.2699  0.0479
   34loPI   C1A  535  16.137  16.387   9.348 -0.1458 -0.1310  0.4224
   34loPI   C2A  536  16.323  16.178   8.993  0.1498  0.0655 -0.0324
   34loPI   C3A  537  16.418  15.999   8.597 -0.2630  0.2513 -0.1300
   34loPI   C4A  538  16.586  15.899   8.184 -0.0785  0.2852 -0.1669
   34loPI   C5A  539  16.476  15.764   7.696 -0.0012  0.1103 -0.2606
   34loPI   C6A  540  16.238  15.683   7.309  0.0423  0.1084  0.1070
   34loPI   C1B  541  15.916  16.955   9.110 -0.3657 -0.0230 -0.0783
   34loPI   C2B  542  16.167  16.929   8.712 -0.0170  0.0669  0.0392
   34loPI   C3B  543  16.433  16.952   8.302  0.0389  0.0963  0.2078
   34loPI   C4B  544  16.507  16.818   7.850  0.0425  0.0268  0.0164
   35loPI    C1  545  11.232  10.891  10.191 -0.0392  0.1451  0.1330
   35loPI    C2  546  11.468  10.596  10.322 -0.1941 -0.1163 -0.1625
   35loPI    C3  547  11.103  10.512  10.180 -0.3722  0.2567  0.0604
   35loPI   PO4  548  11.313  11.022  10.040  0.2335  0.0219  0.1302
   35loPI   GL1  549  11.606  11.062   9.648 -0.2901  0.5558  0.2964
   35loPI   GL2  550  11.528  11.333   9.654 -0.0284 -0.1002  0.0915
   35loPI   C1A  551  11.479  11.021   9.228 -0.2728  0.2810  0.1193
   35loPI   C2A  552  11.347  11.097   8.920 -0.2130 -0.0497  0.1209
   35loPI   C3A  553  11.070  11.351   8.840  0.1554 -0.0331  0.0113
   35loPI   C4A  554  10.989  11.677   8.553 -0.1558 -0.0296  0.0988
   35loPI   C5A  555  11.121  11.849   8.151  0.0366  0.0253 -0.1971
   35loPI   C6A  556  11.302  11.977   7.803  0.0274  0.1548 -0.1187
   35loPI   C1B  557  11.724  11.475   9.238  0.0420 -0.1632 -0.2324
   35loPI   C2B  558  11.771  11.408   8.874  0.1643 -0.0694 -0.0003
   35loPI   C3B  559  11.495  11.429   8.519 -0.0806 -0.1431 -0.0422
   35loPI   C4B  560  11.253  11.071   8.378 -0.1115  0.0424  0.1946
   36loPI    C1  561  18.622   6.903  10.192 -0.0172  0.0042  0.0120
   36loPI    C2  562  18.659   7.189  10.469  0.0337 -0.2413  0.2632
   36loPI    C3  563  18.976   7.081  10.251 -0.0733  0.1558 -0.1025
   36loPI   PO4  564  18.421   6.976  10.062 -0.0196 -0.2517 -0.2483
   36loPI   GL1  565  18.228   6.783   9.692 -0.0865  0.2669  0.2312
   36loPI   GL2  566  18.496   6.577   9.789  0.2631 -0.0218 -0.0483
   36loPI   C1A  567  18.306   6.998   9.340 -0.2659  0.2369  0.2546
   36loPI   C2A  568  18.298   7.035   8.937 -0.2135  0.0086 -0.3883
   36loPI   C3A  569  18.347   7.166   8.516  0.2834  0.4831 -0.0613
   36loPI   C4A  570  18.392   7.229   8.052 -0.2482 -0.2751  0.2341
   36loPI   C5A  571  18.238   7.180   7.609  0.1877 -0.0477 -0.0156
   36loPI   C6A  572  17.798   7.092   7.439 -0.6225 -0.1326 -0.0478
   36loPI   C1B  573  18.581   6.520   9.449 -0.2019  0.2461  0.0594
   36loPI   C2B  574  18.508   6.586   9.031  0.1237  0.1968  0.0557
   36loPI   C3B  575  18.483   6.570   8.587 -0.0358  0.2279 -0.0940
   36loPI   C4B  576  18.504   6.769   8.271 -0.0800 -0.0870 -0.1633
   37loPI    C1  577  13.770   3.528  10.403  0.1284  0.0252  0.0110
   37loPI    C2  578  14.126   3.454  10.569  0.0910  0.0517  0.1042
   37loPI    C3  579  13.960   3.816  10.607  0.1181  0.0820 -0.0593
   37loPI   PO4  580  13.770   3.430  10.190 -0.0276  0.3307 -0.1502
   37loPI   GL1  581  13.946   3.411   9.739  0.1628 -0.1718  0.3677
   37loPI   GL2  582  14.167   3.552   9.554 -0.0443 -0.0050  0.1138
   37loPI   C1A  583  13.808   3.046   9.414  0.0153  0.2506  0.0837
   37loPI   C2A  584  13.816   3.017   9.010 -0.0447  0.1365  0.2952
   37loPI   C3A  585  13.741   3.011   8.510  0.1821  0.1130 -0.0708
   37loPI   C4A  586  13.654   2.968   8.118 -0.1099 -0.0181  0.0803
   37loPI   C5A  587  13.486   3.196   7.827 -0.1928  0.1080 -0.1505
   37loPI   C6A  588  13.193   3.238   7.521 -0.2093  0.0331  0.3172
   37loPI   C1B  589  14.212   3.313   9.190 -0.0719 -0.1949 -0.0372
   37loPI   C2B  590  14.098   3.309   8.700 -0.0065  0.1469 -0.2534
   37loPI   C3B  591  14.118   3.414   8.256  0.1160 -0.0567  0.0176
   37loPI   C4B  592  13.984   3.207   7.879 -0.0942  0.2947  0.1824
   38loPI    C1  593   8.093   3.666  10.921  0.0856 -0.2455  0.1576
   38loPI    C2  594   7.774   3.431  10.981 -0.0422 -0.1432 -0.1028
   38loPI    C3  595   7.829   3.757  11.207 -0.1572 -0.1258 -0.0993
   38loPI   PO4  596   8.086   3.708  10.626  0.0121  0.0714  0.1591
   38loPI   GL1  597   8.014   3.642  10.174  0.2049 -0.0231 -0.0960
   38loPI   GL2  598   8.251   3.618   9.953 -0.0838  0.1022 -0.0272
   38loPI   C1A  599   7.892   3.740   9.658  0.1311 -0.0681 -0.3188
   38loPI   C2A  600   8.018   3.818   9.253  0.3554  0.3507 -0.1704
   38loPI   C3A  601   8.066   3.722   8.830  0.0814  0.1165  0.2197
   38loPI   C4A  602   8.109   3.615   8.459  0.1747 -0.2470 -0.1188
   38loPI   C5A  603   8.124   3.630   8.082  0.0328  0.1186  0.0759
   38loPI   C6A  604   8.203   3.703   7.675  0.2460  0.0472  0.2225
   38loPI   C1B  605   8.191   3.339   9.545 -0.1314  0.3444 -0.0652
   38loPI   C2B  606   8.128   3.275   9.163 -0.1285 -0.1777 -0.1715
   38loPI   C3B  607   8.248   3.206   8.710 -0.4275 -0.0120 -0.0469
   38loPI   C4B  608   8.172   3.191   8.291  0.0292  0.0711  0.1189
   39loPI    C1  609  12.393  16.728   9.902 -0.0589  0.0341  0.1143
   39loPI    C2  610  12.500  16.832  10.273  0.0602 -0.2074  0.1496
   39loPI    C3  611  12.742  16.913   9.965 -0.1036  0.1226  0.1035
   39loPI   PO4  612  12.072  16.723   9.890  0.1240  0.0903  0.2025
   39loPI   GL1  613  11.937  16.643   9.545 -0.0676 -0.1656 -0.0304
   39loPI   GL2  614  12.236  16.671   9.328  0.2080 -0.2562  0.2073
   39loPI   C1A  615  11.802  16.669   9.105 -0.1278 -0.2859  0.1118
   39loPI   C2A  616  11.802  16.788   8.752  0.1286 -0.0526  0.1419
   39loPI   C3A  617  11.750  17.046   8.304 -0.2912 -0.1619 -0.0258
   39loPI   C4A  618  11.805  17.224   7.859  0.0602  0.0427 -0.1337
   39loPI   C5A  619  11.529  17.093   7.444 -0.0370  0.0310  0.0210
   39loPI   C6A  620  11.434  17.271   7.116  0.4086 -0.1298  0.1059
   39loPI   C1B  621  12.275  16.645   8.839  0.0763  0.0710 -0.1569
   39loPI   C2B  622  12.291  16.779   8.399  0.2760  0.0876  0.2000
   39loPI   C3B  623  12.268  16.936   7.891  0.0582  0.0482 -0.0923
   39loPI   C4B  624  12.042  16.847   7.544  0.0161  0.4121 -0.0143
   40loPI    C1  625  17.871  11.142  10.643 -0.0600 -0.0483  0.0518
   40loPI    C2  626  17.733  10.970  10.977  0.1369  0.1911  0.2609
   40loPI    C3  627  18.105  10.892  10.851 -0.1080 -0.3056 -0.1971
   40loPI   PO4  628  17.801  11.072  10.438 -0.2058 -0.5466 -0.0384
   40loPI   GL1  629  17.666  11.209  10.080 -0.1327 -0.2211 -0.3436
   40loPI   GL2  630  17.465  11.141   9.804 -0.0306 -0.0358  0.3094
   40loPI   C1A  631  17.923  11.099   9.636 -0.1848  0.1607  0.1021
   40loPI   C2A  632  17.795  11.020   9.161 -0.0112  0.0811  0.1313
   40loPI   C3A  633  17.743  11.030   8.699 -0.2205 -0.0419  0.3042
   40loPI   C4A  634  17.725  11.117   8.230 -0.1552 -0.2084 -0.1772
   40loPI   C5A  635  17.643  11.277   7.710 -0.0477  0.0481 -0.2762
   40loPI   C6A  636  17.282  11.205   7.465 -0.4648  0.1983  0.3000
   40loPI   C1B  637  17.345  11.010   9.396 -0.1641  0.2686  0.1981
   40loPI   C2B  638  17.299  10.876   8.998  0.0378 -0.1246 -0.1694
   40loPI   C3B  639  17.241  10.954   8.524  0.0506 -0.2669 -0.1255
   40loPI   C4B  640  17.221  11.021   8.072 -0.3177 -0.2391  0.0083
   41loPI    C1  641   2.939  18.127  10.252  0.0014  0.2286  0.0359
   41loPI    C2  642   2.937  17.728  10.283  0.0421  0.2255  0.0016
   41loPI    C3  643   2.967  17.954  10.612  0.0714  0.1996  0.0168
   41loPI   PO4  644   3.073  18.089   9.969  0.0119 -0.1993 -0.2535
   41loPI   GL1  645   2.857  18.043   9.464  0.1789  0.1357  0.1823
   41loPI   GL2  646   2.600  18.158   9.229  0.0871 -0.2174  0.0346
   41loPI   C1A  647   2.874  17.697   9.082  0.0133 -0.0432 -0.1657
   41loPI   C2A  648   2.887  17.613   8.665 -0.0034 -0.2873 -0.1294
   41loPI   C3A  649   2.768  17.589   8.238  0.0327 -0.2436 -0.0632
   41loPI   C4A  650   2.741  17.505   7.810  0.2568 -0.2441 -0.0095
   41loPI   C5A  651   2.547  17.377   7.503  0.1999 -0.1003  0.0651
   41loPI   C6A  652   2.552  17.639   7.096 -0.0431 -0.2528 -0.1882
   41loPI   C1B  653   2.836  18.195   8.824 -0.2793  0.1235  0.0611
   41loPI   C2B  654   2.954  18.069   8.465 -0.0681 -0.1374  0.3022
   41loPI   C3B  655   2.858  18.130   8.010  0.0575  0.0574  0.0387
   41loPI   C4B  656   3.105  18.210   7.665  0.1190 -0.0771  0.0702
   42loPI    C1  657  11.098   2.053  10.770  0.1754  0.0162 -0.2786
   42loPI    C2  658  10.987   1.749  11.005  0.1195  0.1207 -0.1683
   42loPI    C3  659  11.375   1.822  10.943  0.1340  0.0789 -0.1266
   42loPI   PO4  660  10.919   2.061  10.534 -0.1165  0.2401 -0.2658
   42loPI   GL1  661  11.035   2.136  10.155 -0.0078 -0.1266  0.0317
   42loPI   GL2  662  11.169   1.844  10.038 -0.0367  0.0475 -0.0197
   42loPI   C1A  663  11.077   2.249   9.740 -0.2841  0.1509  0.4866
   42loPI   C2A  664  11.226   2.327   9.261  0.2527  0.0314 -0.4655
   42loPI   C3A  665  11.120   2.283   8.897 -0.0817  0.1408 -0.2967
   42loPI   C4A  666  11.140   2.301   8.583 -0.1771 -0.0285 -0.1018
   42loPI   C5A  667  11.233   2.321   8.199  0.3460 -0.1500  0.2209
   42loPI   C6A  668  11.408   1.995   7.862 -0.1239 -0.0838 -0.0093
   42loPI   C1B  669  11.258   1.748   9.618  0.0379  0.1605 -0.1523
   42loPI   C2B  670  11.254   1.834   9.135  0.1114  0.1398  0.0182
   42loPI   C3B  671  11.328   1.862   8.727  0.0782 -0.0716 -0.1258
   42loPI   C4B  672  11.412   1.906   8.316 -0.0756  0.0856 -0.1227
   43loPI    C1  673  11.855   3.382  10.682  0.3564  0.1744 -0.1770
   43loPI    C2  674  11.875   3.649  10.980 -0.2360  0.0012  0.0318
   43loPI    C3  675  12.109   3.325  10.986  0.0421  0.1995  0.0965
   43loPI   PO4  676  11.857   3.398  10.324 -0.0163 -0.3438 -0.0053
   43loPI   GL1  677  11.878   3.410   9.837 -0.0429  0.4559 -0.0131
   43loPI   GL2  678  12.273   3.292   9.829 -0.0210  0.0469 -0.1212
   43loPI   C1A  679  11.753   3.578   9.533 -0.3292 -0.1356  0.0935
   43loPI   C2A  680  11.823   3.538   9.111  0.3292 -0.1941  0.1351
   43loPI   C3A  681  11.855   3.653   8.611 -0.2383  0.3604 -0.1469
   43loPI   C4A  682  11.741   3.582   8.202 -0.0713  0.3831 -0.2373
   43loPI   C5A  683  11.612   3.388   7.815 -0.0885  0.1030 -0.1036
   43loPI   C6A  684  11.735   3.181   7.505  0.0298  0.0860  0.0484
   43loPI   C1B  685  12.196   3.391   9.331  0.0935 -0.1736 -0.0620
   43loPI   C2B  686  12.289   3.411   8.951  0.0383 -0.4496  0.1478
   43loPI   C3B  687  12.334   3.544   8.569 -0.2187  0.0492 -0.0285
   43loPI   C4B  688  12.179   3.800   8.183 -0.2598 -0.0024 -0.0213
   44loPI    C1  689   6.184   2.088  10.391 -0.0589  0.0106  0.0350
   44loPI    C2  690   5.859   2.132  10.620  0.0388  0.0074  0.1759
   44loPI    C3  691   6.009   1.767  10.553 -0.1555 -0.0205 -0.1286
   44loPI   PO4  692   6.109   2.245  10.171  0.0474 -0.1182 -0.3080
   44loPI   GL1  693   5.925   2.182   9.780  0.1427 -0.2116 -0.3262
   44loPI   GL2  694   5.626   2.267   9.744  0.1276 -0.1255  0.1172
   44loPI   C1A  695   5.973   2.378   9.365 -0.0159  0.0978  0.0468
   44loPI   C2A  696   6.020   2.460   8.948 -0.1118  0.4151  0.1693
   44loPI   C3A  697   5.974   2.488   8.507  0.0103  0.3029  0.1526
   44loPI   C4A  698   6.002   2.496   8.040 -0.0087  0.1634 -0.2818
   44loPI   C5A  699   6.117   2.262   7.725  0.0825 -0.2128 -0.1607
   44loPI   C6A  700   6.297   1.922   7.610  0.2373  0.3330 -0.1753
   44loPI   C1B  701   5.548   2.162   9.285  0.1064  0.0573  0.0494
   44loPI   C2B  702   5.647   2.140   8.889  0.2460  0.0832 -0.3562
   44loPI   C3B  703   5.588   2.147   8.418 -0.3102 -0.0430  0.0135
   44loPI   C4B  704   5.605   2.157   7.972  0.1025 -0.0853 -0.1286
   45loPI    C1  705   2.401  12.246  10.922 -0.0731  0.0041 -0.0194
   45loPI    C2  706   2.062  12.103  11.080  0.0099  0.0214  0.1776
   45loPI    C3  707   2.287  12.360  11.288  0.1263  0.0382  0.0332
   45loPI   PO4  708   2.308  12.343  10.665  0.2772 -0.1137 -0.3570
   45loPI   GL1  709   2.325  12.161  10.279  0.0741 -0.0917 -0.4395
   45loPI   GL2  710   2.102  12.346  10.060  0.0446 -0.1201  0.1884
   45loPI   C1A  711   2.593  12.181   9.998 -0.0565  0.0832  0.0688
   45loPI   C2A  712   2.764  12.159   9.634  0.0222  0.2711  0.2257
   45loPI   C3A  713   2.854  12.033   9.241 -0.1133 -0.0849 -0.0522
   45loPI   C4A  714   2.866  11.947   8.865  0.0545  0.0961  0.2808
   45loPI   C5A  715   2.784  11.952   8.435  0.0231 -0.0496 -0.0322
   45loPI   C6A  716   2.739  12.151   8.019 -0.0787  0.1897 -0.0471
   45loPI   C1B  717   2.195  12.440   9.652  0.0047 -0.0777  0.0091
   45loPI   C2B  718   2.462  12.305   9.282 -0.1859  0.2865  0.0513
   45loPI   C3B  719   2.482  12.283   8.834 -0.0659 -0.0365 -0.0668
   45loPI   C4B  720   2.319  12.325   8.414  0.0521  0.1696  0.1697
   46loPI    C1  721   8.658  14.742  10.362 -0.0305  0.2008  0.0125
   46loPI    C2  722   8.616  15.085  10.563  0.2007  0.0306  0.3619
   46loPI    C3  723   8.659  14.740  10.762  0.0694 -0.1916  0.0153
   46loPI   PO4  724   8.798  14.710  10.122  0.0592 -0.3939  0.1064
   46loPI   GL1  725   8.976  14.676   9.760 -0.3639 -0.0424 -0.1635
   46loPI   GL2  726   9.255  14.540   9.649  0.1924 -0.0685  0.2960
   46loPI   C1A  727   8.747  14.576   9.372  0.0740 -0.3604 -0.5399
   46loPI   C2A  728   8.402  14.418   9.152 -0.2322 -0.2706 -0.1322
   46loPI   C3A  729   8.219  14.149   8.736 -0.2247  0.0398  0.1045
   46loPI   C4A  730   8.241  14.164   8.342 -0.0980 -0.2225  0.3663
   46loPI   C5A  731   8.300  14.278   8.039  0.3585  0.1419 -0.1159
   46loPI   C6A  732   8.122  14.614   7.873 -0.1935  0.0130 -0.1386
   46loPI   C1B  733   9.120  14.351   9.192 -0.2488  0.0843  0.1805
   46loPI   C2B  734   8.964  14.325   8.811 -0.1212 -0.0224  0.0407
   46loPI   C3B  735   8.710  14.578   8.743 -0.2201  0.1212  0.0691
   46loPI   C4B  736   8.381  14.685   8.379 -0.2338 -0.0540  0.4185
   47loPI    C1  737  12.177  10.640  10.423 -0.0264  0.0428  0.2933
   47loPI    C2  738  12.232  10.337  10.167 -0.0547  0.1961  0.1036
   47loPI    C3  739  11.878  10.385  10.347 -0.0653  0.1448  0.0964
   47loPI   PO4  740  12.317  10.791  10.311  0.1721 -0.0880  0.5688
   47loPI   GL1  741  12.458  10.750   9.894  0.2578  0.0747  0.3562
   47loPI   GL2  742  12.551  10.405   9.714  0.3510  0.1620 -0.2446
   47loPI   C1A  743  12.470  10.776   9.427 -0.3492 -0.2996  0.4091
   47loPI   C2A  744  12.552  10.762   9.096 -0.3203 -0.0075  0.1839
   47loPI   C3A  745  12.406  10.853   8.663  0.0171 -0.1514  0.1460
   47loPI   C4A  746  12.133  10.825   8.258 -0.1307  0.1068 -0.2597
   47loPI   C5A  747  11.809  10.763   7.991 -0.3446  0.2098  0.4611
   47loPI   C6A  748  11.432  10.944   7.851  0.1737 -0.1150  0.0696
   47loPI   C1B  749  12.687  10.295   9.326 -0.1945  0.2555 -0.1795
   47loPI   C2B  750  12.517  10.327   8.873  0.0546  0.2906  0.0399
   47loPI   C3B  751  12.398  10.317   8.384 -0.0847 -0.1346  0.2613
   47loPI   C4B  752  12.402  10.491   7.990  0.0516  0.0068  0.1119
   48loPI    C1  753  18.649   4.955  10.478 -0.1638 -0.0818  0.0966
   48loPI    C2  754  18.895   4.792  10.748 -0.1101  0.0401  0.1223
   48loPI    C3  755  18.516   4.665  10.719 -0.0405 -0.1605  0.0707
   48loPI   PO4  756  18.845   5.078  10.335 -0.1372  0.1830  0.0154
   48loPI   GL1  757  18.781   5.023   9.928 -0.1203 -0.1162 -0.2954
   48loPI   GL2  758  19.105   5.155   9.733 -0.0635  0.0367  0.1330
   48loPI   C1A  759  18.629   4.914   9.498  0.1530 -0.1437  0.0492
   48loPI   C2A  760  18.798   4.710   9.016  0.2649  0.0202  0.6508
   48loPI   C3A  761  18.896   4.755   8.613  0.0409 -0.0219  0.1450
   48loPI   C4A  762  18.971   4.922   8.207 -0.2580  0.0728 -0.1645
   48loPI   C5A  763  19.076   4.885   7.776 -0.0005  0.0879 -0.1875
   48loPI   C6A  764  19.376   4.947   7.478  0.1618 -0.0470  0.1337
   48loPI   C1B  765  19.178   5.039   9.358  0.0886  0.0661 -0.2094
   48loPI   C2B  766  19.523   5.196   9.134 -0.0086  0.2152  0.3237
   48loPI   C3B  767  19.850   5.404   8.942  0.1113 -0.0638  0.0179
   48loPI   C4B  768  20.150   5.339   8.725  0.0214 -0.0661 -0.0669
   49loPI    C1  769  13.105  11.025  10.580  0.0902  0.0653  0.3252
   49loPI    C2  770  13.388  11.054  10.861  0.3664  0.1360  0.0461
   49loPI    C3  771  13.265  11.381  10.666  0.2151  0.0793  0.0445
   49loPI   PO4  772  13.193  10.852  10.459 -0.2448  0.0550  0.1584
   49loPI   GL1  773  13.211  10.601  10.098  0.0193 -0.0430 -0.2232
   49loPI   GL2  774  12.976  10.637   9.813 -0.2992 -0.1268 -0.0052
   49loPI   C1A  775  13.406  10.794   9.662  0.0298  0.2780 -0.1294
   49loPI   C2A  776  13.633  10.937   9.291 -0.0340 -0.0345 -0.0221
   49loPI   C3A  777  13.661  10.927   8.816 -0.2442  0.2244  0.0078
   49loPI   C4A  778  13.275  10.961   8.569  0.0030  0.2409  0.0809
   49loPI   C5A  779  13.232  10.948   8.064 -0.0414  0.1031  0.2820
   49loPI   C6A  780  13.026  10.978   7.642  0.2075  0.1970  0.2229
   49loPI   C1B  781  12.953  10.855   9.448  0.0286  0.2411  0.1809
   49loPI   C2B  782  13.084  10.780   9.108  0.2896 -0.0682  0.0177
   49loPI   C3B  783  12.836  10.647   8.689 -0.0638 -0.0181  0.3009
   49loPI   C4B  784  12.915  10.571   8.247  0.0579  0.0837 -0.2458
   50loPI    C1  785   1.315  17.535   9.771 -0.0718  0.1251  0.0613
   50loPI    C2  786   1.631  17.566  10.014 -0.0650  0.1948  0.0438
   50loPI    C3  787   1.356  17.283  10.080  0.2356 -0.1676 -0.2094
   50loPI   PO4  788   1.375  17.665   9.575  0.1160  0.0047  0.1184
   50loPI   GL1  789   1.278  17.764   9.115  0.0372 -0.1826 -0.0367
   50loPI   GL2  790   1.532  18.024   9.283  0.1382 -0.0372 -0.0718
   50loPI   C1A  791   1.206  17.804   8.682  0.2256 -0.1962 -0.1582
   50loPI   C2A  792   1.202  17.754   8.154 -0.0260  0.0247  0.1461
   50loPI   C3A  793   1.001  17.679   7.898 -0.0304  0.3312  0.2442
   50loPI   C4A  794   1.272  17.458   7.596  0.3019  0.2836  0.3605
   50loPI   C5A  795   1.614  17.359   7.482 -0.2929  0.0930 -0.1826
   50loPI   C6A  796   1.964  17.319   7.360 -0.3899  0.0212  0.3246
   50loPI   C1B  797   1.686  18.097   8.921 -0.0540  0.1246 -0.0676
   50loPI   C2B  798   1.887  17.975   8.631  0.0623 -0.2026 -0.2955
   50loPI   C3B  799   1.875  17.830   8.238  0.1993  0.2139 -0.1999
   50loPI   C4B  800   1.669  17.773   7.817  0.1902  0.1089  0.1572
   51loPI    C1  801   2.145  13.503  10.067 -0.1062  0.1401  0.0386
   51loPI    C2  802   2.155  13.520  10.466  0.1661  0.0036  0.0398
   51loPI    C3  803   2.277  13.190  10.277  0.1758  0.1215 -0.1619
   51loPI   PO4  804   2.267  13.726   9.913 -0.0128  0.0230 -0.0231
   51loPI   GL1  805   2.622  13.808   9.585 -0.1622  0.0100  0.0082
   51loPI   GL2  806   2.481  13.535   9.461 -0.2516  0.2325  0.0155
   51loPI   C1A  807   2.612  13.860   9.130 -0.0565  0.0309 -0.0173
   51loPI   C2A  808   2.611  13.859   8.696 -0.0934 -0.1162  0.2303
   51loPI   C3A  809   2.510  13.824   8.269 -0.2310 -0.1053 -0.2330
   51loPI   C4A  810   2.693  13.627   7.960  0.3271  0.0577  0.0609
   51loPI   C5A  811   2.879  13.513   7.652  0.1156 -0.0869 -0.0854
   51loPI   C6A  812   2.797  13.496   7.141 -0.1628  0.0104  0.0385
   51loPI   C1B  813   2.555  13.316   9.187  0.1202  0.0016  0.0288
   51loPI   C2B  814   2.522  13.358   8.770  0.1956 -0.0958  0.1524
   51loPI   C3B  815   2.505  13.287   8.271  0.1168  0.0088  0.1721
   51loPI   C4B  816   2.454  13.145   7.797 -0.1164  0.0304 -0.0219
   52loPI    C1  817  11.983  18.799  10.637 -0.1206 -0.0960 -0.1066
   52loPI    C2  818  11.648  18.867  10.845  0.0525 -0.0297  0.1553
   52loPI    C3  819  11.855  18.529  10.903 -0.0735 -0.1635 -0.1520
   52loPI   PO4  820  11.913  18.915  10.322 -0.1778 -0.3274  0.0673
   52loPI   GL1  821  12.136  19.013   9.984 -0.1847 -0.1295 -0.0440
   52loPI   GL2  822  12.445  18.974  10.083 -0.0411  0.3613  0.0267
   52loPI   C1A  823  12.070  19.032   9.574 -0.1020  0.2640 -0.0966
   52loPI   C2A  824  12.189  18.996   9.122 -0.1374  0.2252 -0.5415
   52loPI   C3A  825  12.134  19.068   8.614  0.0521  0.0979 -0.4032
   52loPI   C4A  826  12.139  19.220   8.157 -0.0969 -0.1026  0.1465
   52loPI   C5A  827  12.275  19.388   7.751  0.0514 -0.0996 -0.2588
   52loPI   C6A  828  11.953  19.518   7.718  0.2303 -0.1687 -0.1188
   52loPI   C1B  829  12.501  18.801   9.702  0.1580 -0.1708  0.0248
   52loPI   C2B  830  12.660  18.809   9.308  0.3110 -0.1966 -0.1501
   52loPI   C3B  831  12.741  18.891   8.892  0.1303  0.1197  0.0166
   52loPI   C4B  832  12.634  18.993   8.500  0.0507  0.2725  0.0772
   53loPI    C1  833  11.527   5.546  10.726  0.0100 -0.0916 -0.0025
   53loPI    C2  834  11.498   5.223  10.960  0.1945 -0.0809  0.0368
   53loPI    C3  835  11.514   5.588  11.123 -0.1132 -0.0434 -0.0115
   53loPI   PO4  836  11.744   5.491  10.562  0.1139 -0.3236 -0.2191
   53loPI   GL1  837  11.633   5.526  10.119 -0.0191  0.2460  0.2488
   53loPI   GL2  838  11.457   5.741   9.908  0.2400  0.3803 -0.2817
   53loPI   C1A  839  11.791   5.169   9.841 -0.4358 -0.1961 -0.2142
   53loPI   C2A  840  11.678   5.057   9.430 -0.0715 -0.0604 -0.1725
   53loPI   C3A  841  11.526   5.013   9.025  0.0919  0.0429  0.2363
   53loPI   C4A  842  11.425   5.291   8.681 -0.0079  0.0259  0.0124
   53loPI   C5A  843  11.359   5.313   8.231  0.3725 -0.0163  0.3838
   53loPI   C6A  844  11.460   5.421   7.655  0.2282 -0.0717  0.3559
   53loPI   C1B  845  11.480   5.531   9.563 -0.2076 -0.0556  0.1449
   53loPI   C2B  846  11.277   5.663   9.204  0.0810  0.3999  0.0237
   53loPI   C3B  847  11.319   5.836   8.830 -0.0006  0.3351 -0.0341
   53loPI   C4B  848  11.132   5.755   8.359 -0.0310  0.3405 -0.1031
   54loPI    C1  849   7.503   3.114  10.348  0.2197 -0.1346  0.1136
   54loPI    C2  850   7.798   3.332  10.508  0.1202 -0.0461  0.1778
   54loPI    C3  851   7.855   2.943  10.432  0.2729 -0.0159  0.1342
   54loPI   PO4  852   7.358   3.398  10.253 -0.0956 -0.2466  0.1101
   54loPI   GL1  853   7.181   3.377   9.927 -0.0972  0.2453  0.1980
   54loPI   GL2  854   7.080   3.634   9.752 -0.0199 -0.0776  0.2016
   54loPI   C1A  855   7.492   3.449   9.539 -0.4420 -0.2357 -0.0069
   54loPI   C2A  856   7.586   3.416   9.145 -0.1597  0.0480 -0.1799
   54loPI   C3A  857   7.729   3.365   8.705 -0.0052 -0.2222 -0.0999
   54loPI   C4A  858   7.683   3.394   8.325 -0.0397  0.1094  0.2290
   54loPI   C5A  859   7.631   3.166   8.022 -0.0647  0.1727  0.2512
   54loPI   C6A  860   7.824   2.973   7.583  0.1950  0.1516 -0.1861
   54loPI   C1B  861   7.094   3.521   9.305  0.1596 -0.2569 -0.0354
   54loPI   C2B  862   7.155   3.559   8.851 -0.2762  0.2207 -0.1737
   54loPI   C3B  863   7.145   3.541   8.369  0.1324 -0.4536  0.2198
   54loPI   C4B  864   7.224   3.557   7.993 -0.0669 -0.1074  0.1593
   55loPI    C1  865  17.653  14.292  10.426  0.1692 -0.0627  0.0187
   55loPI    C2  866  17.959  14.544  10.375  0.1049  0.0354  0.1108
   55loPI    C3  867  17.690  14.612  10.663 -0.0431 -0.0118 -0.0149
   55loPI   PO4  868  17.571  14.276  10.210 -0.2262 -0.1559  0.0786
   55loPI   GL1  869  17.661  14.348   9.695  0.0650 -0.1939 -0.2230
   55loPI   GL2  870  17.867  14.334   9.490  0.1855 -0.0022 -0.0049
   55loPI   C1A  871  17.463  13.931   9.439  0.0467  0.3721  0.3906
   55loPI   C2A  872  17.389  13.726   9.084 -0.0047 -0.1409 -0.0725
   55loPI   C3A  873  17.390  13.817   8.764 -0.0545 -0.2190  0.0398
   55loPI   C4A  874  17.275  13.786   8.426 -0.1277  0.1595 -0.2310
   55loPI   C5A  875  17.273  13.849   7.958 -0.0620 -0.0377 -0.1027
   55loPI   C6A  876  17.121  13.836   7.528  0.0614  0.0977  0.4571
   55loPI   C1B  877  17.969  14.456   9.108  0.1601  0.4366 -0.2402
   55loPI   C2B  878  17.893  14.467   8.593 -0.1551  0.2264  0.0348
   55loPI   C3B  879  17.874  14.544   8.123 -0.0072  0.2627 -0.0851
   55loPI   C4B  880  17.972  14.410   7.686 -0.0678  0.2073 -0.1901
   56loPI    C1  881   1.381   3.668  10.870 -0.1063  0.1932 -0.3232
   56loPI    C2  882   1.420   4.064  10.907  0.4228  0.1277 -0.0958
   56loPI    C3  883   1.502   3.826  11.217 -0.3678 -0.1421 -0.0721
   56loPI   PO4  884   1.531   3.534  10.589 -0.1740  0.1284  0.1762
   56loPI   GL1  885   1.543   3.575  10.087  0.0551 -0.3013 -0.0461
   56loPI   GL2  886   1.439   3.718   9.762  0.1982 -0.0399  0.0420
   56loPI   C1A  887   1.751   3.321   9.627 -0.2319 -0.1112  0.2705
   56loPI   C2A  888   1.815   3.410   9.154  0.1483  0.0058  0.0786
   56loPI   C3A  889   1.831   3.557   8.849  0.2660  0.3790  0.2387
   56loPI   C4A  890   1.744   3.549   8.392 -0.4641 -0.0770 -0.3556
   56loPI   C5A  891   1.705   3.570   7.976  0.1313 -0.0946 -0.1236
   56loPI   C6A  892   1.985   3.797   7.704 -0.2716  0.0212 -0.0440
   56loPI   C1B  893   1.366   3.615   9.351 -0.0524 -0.3047  0.1980
   56loPI   C2B  894   1.240   3.724   8.916 -0.1476  0.0413  0.1946
   56loPI   C3B  895   1.078   4.128   8.907  0.0227 -0.0016  0.0830
   56loPI   C4B  896   0.891   4.462   8.805 -0.4464  0.0414 -0.0255
   57loPI    C1  897   2.218  10.480  10.526 -0.0506 -0.2271  0.0311
   57loPI    C2  898   1.838  10.568  10.616 -0.0547 -0.2474  0.0341
   57loPI    C3  899   2.054  10.339  10.863  0.0608  0.0299  0.1959
   57loPI   PO4  900   2.214  10.390  10.265  0.3631  0.1375 -0.1951
   57loPI   GL1  901   2.002  10.462   9.945  0.1958  0.0831 -0.0176
   57loPI   GL2  902   1.695  10.290   9.816 -0.0023 -0.1241  0.2793
   57loPI   C1A  903   2.277  10.415   9.652 -0.3194  0.1409 -0.2318
   57loPI   C2A  904   2.474  10.444   9.281 -0.0179 -0.0468 -0.0177
   57loPI   C3A  905   2.560  10.480   8.850 -0.2197 -0.1048  0.0424
   57loPI   C4A  906   2.501  10.499   8.452  0.1977  0.1088 -0.1042
   57loPI   C5A  907   2.597  10.486   7.965  0.3266  0.1770  0.1904
   57loPI   C6A  908   2.895  10.458   7.676 -0.3240  0.0809 -0.0272
   57loPI   C1B  909   1.724  10.555   9.361 -0.1294 -0.0737 -0.1075
   57loPI   C2B  910   1.589  10.641   8.889  0.3007  0.0998  0.1318
   57loPI   C3B  911   1.691  10.591   8.410 -0.0241 -0.0516 -0.1637
   57loPI   C4B  912   1.679  10.626   7.983 -0.0879 -0.0364  0.2158
   58loPI    C1  913   8.837  11.096   9.656 -0.1004  0.4132  0.1090
   58loPI    C2  914   8.815  10.823   9.948  0.2928 -0.0637 -0.2871
   58loPI    C3  915   8.513  10.864   9.689  0.0917  0.1196 -0.0308
   58loPI   PO4  916   9.105  11.204   9.812 -0.1113  0.2728 -0.0268
   58loPI   GL1  917   9.412  11.273   9.652 -0.0286  0.2160 -0.0094
   58loPI   GL2  918   9.483  11.573   9.638  0.1695  0.1305  0.0435
   58loPI   C1A  919   9.638  11.184   9.278 -0.1345 -0.3739  0.1078
   58loPI   C2A  920   9.689  10.931   8.910  0.1498  0.2948  0.0574
   58loPI   C3A  921   9.841  10.718   8.594  0.0168  0.0062 -0.1966
   58loPI   C4A  922   9.753  10.674   8.137 -0.0027 -0.1909 -0.1589
   58loPI   C5A  923   9.634  10.854   7.779 -0.0077 -0.2385  0.1456
   58loPI   C6A  924   9.494  10.797   7.400  0.0044  0.1190  0.1623
   58loPI   C1B  925   9.405  11.797   9.368  0.1715  0.1827  0.2072
   58loPI   C2B  926   9.194  11.904   8.998  0.1808 -0.2223 -0.0936
   58loPI   C3B  927   9.038  11.709   8.729 -0.1372 -0.0544  0.3723
   58loPI   C4B  928   8.844  11.386   8.649 -0.0516 -0.1610 -0.3471
   59loPI    C1  929  15.010  12.213  10.658  0.1834  0.0893 -0.1241
   59loPI    C2  930  14.986  12.594  10.538 -0.1068  0.1288  0.0473
   59loPI    C3  931  14.678  12.425  10.729  0.1239 -0.1095  0.2167
   59loPI   PO4  932  15.064  12.022  10.432 -0.0018  0.3097 -0.0013
   59loPI   GL1  933  15.001  12.255  10.075  0.0457 -0.1703  0.0074
   59loPI   GL2  934  15.333  12.174  10.030  0.3014 -0.5238 -0.3137
   59loPI   C1A  935  14.850  12.299   9.675  0.2010  0.0014  0.0679
   59loPI   C2A  936  14.701  12.217   9.268  0.0270  0.1913  0.0125
   59loPI   C3A  937  14.766  11.849   8.848  0.1014  0.0865 -0.1568
   59loPI   C4A  938  14.475  12.021   8.595 -0.2112  0.0004  0.1403
   59loPI   C5A  939  14.346  12.370   8.413 -0.0222 -0.1498 -0.0529
   59loPI   C6A  940  14.327  12.508   8.141 -0.0124 -0.2739  0.0967
   59loPI   C1B  941  15.437  11.925   9.780 -0.2359 -0.3030  0.1237
   59loPI   C2B  942  15.635  11.741   9.323  0.2349 -0.0884  0.0664
   59loPI   C3B  943  15.600  11.700   8.879 -0.0403 -0.1918 -0.1620
   59loPI   C4B  944  15.756  11.661   8.490  0.2006  0.3825  0.1067
   60loPI    C1  945  17.288  16.235   9.896 -0.1979  0.2668  0.0409
   60loPI    C2  946  17.363  16.599  10.042  0.1379  0.0868  0.3344
   60loPI    C3  947  17.398  16.278  10.278 -0.0004 -0.1518  0.0373
   60loPI   PO4  948  17.417  16.255   9.630 -0.1749 -0.1984  0.0939
   60loPI   GL1  949  17.770  16.338   9.439 -0.0749 -0.1207 -0.2409
   60loPI   GL2  950  17.834  16.020   9.505 -0.3186 -0.0174 -0.1426
   60loPI   C1A  951  17.539  16.156   9.022  0.0187  0.1507 -0.1030
   60loPI   C2A  952  17.420  15.971   8.611  0.3657 -0.0115  0.0374
   60loPI   C3A  953  17.147  16.129   8.319  0.3402  0.1974 -0.0615
   60loPI   C4A  954  17.177  16.395   7.969 -0.2127  0.2352  0.2403
   60loPI   C5A  955  16.978  16.789   7.774  0.1102  0.2047  0.0997
   60loPI   C6A  956  16.859  17.152   7.603  0.1258  0.0614 -0.2058
   60loPI   C1B  957  17.968  15.891   9.072  0.2851 -0.0732 -0.1075
   60loPI   C2B  958  17.769  15.633   8.655  0.0243 -0.0226  0.1384
   60loPI   C3B  959  17.630  15.586   8.221  0.2813  0.2142  0.2619
   60loPI   C4B  960  17.505  15.858   8.029 -0.1579  0.0896  0.1210
   61loPI    C1  961   2.929   8.969  10.483  0.1791 -0.0913  0.0162
   61loPI    C2  962   2.636   8.726  10.605  0.1386  0.0952  0.2983
   61loPI    C3  963   2.611   9.119  10.672  0.4166  0.1225  0.2540
   61loPI   PO4  964   2.961   8.850  10.223  0.0605  0.0180  0.3922
   61loPI   GL1  965   2.958   8.605   9.764  0.0100 -0.1599 -0.2067
   61loPI   GL2  966   2.788   8.832   9.704 -0.0733  0.1546 -0.3401
   61loPI   C1A  967   3.256   8.264   9.542 -0.0806  0.0788  0.0467
   61loPI   C2A  968   3.245   8.325   9.195  0.2567 -0.5204 -0.5847
   61loPI   C3A  969   3.269   8.130   8.711 -0.0200  0.2660  0.1213
   61loPI   C4A  970   3.164   8.106   8.295 -0.0098  0.3517  0.1476
   61loPI   C5A  971   2.802   8.183   8.051 -0.0468  0.2950 -0.0972
   61loPI   C6A  972   2.563   8.071   7.648  0.1236 -0.0249  0.2241
   61loPI   C1B  973   2.809   9.049   9.292  0.1627 -0.0070  0.1644
   61loPI   C2B  974   2.796   9.034   8.832  0.0047 -0.1974  0.3420
   61loPI   C3B  975   2.706   9.127   8.324  0.0841 -0.1497 -0.1030
   61loPI   C4B  976   2.578   9.150   7.926  0.0654  0.1998  0.1671
   62loPI    C1  977   9.035  13.109  10.220  0.0884 -0.0481  0.1636
   62loPI    C2  978   9.179  13.336  10.515  0.1796 -0.0359  0.1101
   62loPI    C3  979   9.337  12.975  10.446  0.3446  0.0742 -0.0996
   62loPI   PO4  980   9.098  13.328   9.956  0.2434 -0.1553  0.4795
   62loPI   GL1  981   8.879  13.360   9.612  0.1071 -0.0800 -0.0194
   62loPI   GL2  982   9.114  13.362   9.411  0.0596  0.0625  0.0888
   62loPI   C1A  983   8.507  13.544   9.498  0.0094 -0.1874 -0.1478
   62loPI   C2A  984   8.358  13.723   9.237  0.3727 -0.1437 -0.0915
   62loPI   C3A  985   8.010  13.632   8.926  0.0725  0.3573  0.3062
   62loPI   C4A  986   8.019  13.229   8.535  0.1782 -0.2904  0.2090
   62loPI   C5A  987   8.048  13.201   8.237 -0.1598 -0.1787  0.0374
   62loPI   C6A  988   7.992  13.110   7.903  0.2554 -0.1012  0.3353
   62loPI   C1B  989   8.761  13.339   9.154  0.3213  0.1737 -0.0849
   62loPI   C2B  990   8.479  13.419   8.790  0.2093  0.1844  0.1514
   62loPI   C3B  991   8.219  13.701   8.489  0.0173  0.0190 -0.1352
   62loPI   C4B  992   8.078  13.724   8.078  0.0926 -0.0397 -0.1463
   63loPI    C1  993  12.338   4.338  10.584  0.1750  0.2494 -0.1691
   63loPI    C2  994  12.687   4.397  10.768  0.2265  0.0114 -0.1861
   63loPI    C3  995  12.349   4.534  10.932  0.3068  0.0823 -0.0780
   63loPI   PO4  996  12.420   4.342  10.355  0.2622 -0.0780  0.0025
   63loPI   GL1  997  12.508   4.384  10.015 -0.1060 -0.1682  0.1060
   63loPI   GL2  998  12.769   4.213   9.844 -0.0055 -0.4358 -0.0124
   63loPI   C1A  999  12.371   4.304   9.582 -0.0260 -0.1042  0.0425
   63loPI   C2A 1000  12.562   4.289   9.167  0.0938  0.4666 -0.0519
   63loPI   C3A 1001  12.606   4.390   8.775  0.1559  0.1842  0.1975
   63loPI   C4A 1002  12.567   4.462   8.432 -0.3327 -0.2209 -0.0891
   63loPI   C5A 1003  12.656   4.727   8.102  0.0216  0.3871 -0.0768
   63loPI   C6A 1004  12.892   4.634   7.843 -0.1305 -0.0657 -0.0773
   63loPI   C1B 1005  12.970   4.137   9.444 -0.0690 -0.0085  0.0347
   63loPI   C2B 1006  13.056   4.203   9.007  0.1240 -0.1013  0.1995
   63loPI   C3B 1007  13.137   4.288   8.656 -0.1243  0.1385  0.0623
   63loPI   C4B 1008  13.033   4.347   8.285  0.0693 -0.1911 -0.0224
   64loPI    C1 1009   1.096  10.709  10.451  0.1215 -0.1915  0.0100
   64loPI    C2 1010   1.403  10.904  10.618 -0.1822 -0.0237  0.3871
   64loPI    C3 1011   1.369  10.509  10.665  0.2178 -0.1184 -0.0434
   64loPI   PO4 1012   1.076  10.811  10.216  0.0528 -0.1391  0.1711
   64loPI   GL1 1013   1.297  10.816   9.828  0.1833  0.0654  0.1138
   64loPI   GL2 1014   1.057  11.082   9.674  0.0054  0.0051 -0.3917
   64loPI   C1A 1015   1.265  10.783   9.366 -0.1940 -0.1403  0.0100
   64loPI   C2A 1016   1.313  11.019   8.980  0.0431 -0.1097  0.2705
   64loPI   C3A 1017   1.325  10.962   8.554 -0.0340  0.1462 -0.1196
   64loPI   C4A 1018   1.272  10.950   8.087  0.1827 -0.2643  0.0967
   64loPI   C5A 1019   1.227  10.739   7.751  0.2543  0.1344 -0.1106
   64loPI   C6A 1020   0.947  10.409   7.607  0.2271  0.2196  0.2525
   64loPI   C1B 1021   0.951  11.195   9.362  0.2663  0.0475  0.0024
   64loPI   C2B 1022   0.901  11.324   8.995  0.0089 -0.0493 -0.3052
   64loPI   C3B 1023   0.906  11.338   8.608  0.0606  0.4724  0.0462
   64loPI   C4B 1024   0.897  11.339   8.157 -0.2144  0.1504 -0.1886
   65loPI    C1 1025  17.029   4.380  10.357  0.3594  0.0090  0.2083
   65loPI    C2 1026  16.677   4.249  10.494  0.1816  0.1548 -0.0986
   65loPI    C3 1027  16.856   4.560  10.669 -0.0222  0.3126 -0.1666
   65loPI   PO4 1028  16.988   4.399  10.096  0.0799 -0.2775 -0.0630
   65loPI   GL1 1029  17.040   4.342   9.811  0.0066 -0.0556 -0.2459
   65loPI   GL2 1030  17.413   4.319   9.782 -0.2158 -0.0491  0.0430
   65loPI   C1A 1031  16.932   4.208   9.433  0.1720 -0.0468  0.2021
   65loPI   C2A 1032  16.855   4.082   9.023 -0.1980 -0.1561 -0.1331
   65loPI   C3A 1033  16.909   3.951   8.629  0.3073 -0.1534 -0.1247
   65loPI   C4A 1034  16.983   3.989   8.104 -0.1513  0.5208 -0.0892
   65loPI   C5A 1035  16.815   4.155   7.650 -0.3031  0.2311  0.3876
   65loPI   C6A 1036  16.502   4.255   7.379 -0.0178  0.1428 -0.0467
   65loPI   C1B 1037  17.366   4.451   9.395  0.0345 -0.2291  0.1476
   65loPI   C2B 1038  17.239   4.325   8.900 -0.1738  0.1322 -0.3659
   65loPI   C3B 1039  17.377   4.133   8.518  0.1959 -0.4003 -0.1061
   65loPI   C4B 1040  17.669   4.262   8.256 -0.1193 -0.1232  0.0241
   66loPI    C1 1041  16.134  13.498  10.435 -0.2471  0.1096  0.0890
   66loPI    C2 1042  15.787  13.534  10.239 -0.2414 -0.1274  0.0317
   66loPI    C3 1043  15.887  13.185  10.405  0.0799 -0.1311 -0.1623
   66loPI   PO4 1044  16.253  13.700  10.257  0.1969  0.2849 -0.0563
   66loPI   GL1 1045  16.202  13.983   9.863 -0.0531 -0.1053  0.0041
   66loPI   GL2 1046  16.502  13.750   9.720  0.2477 -0.0722  0.2304
   66loPI   C1A 1047  16.011  13.837   9.419 -0.2664  0.1887 -0.2251
   66loPI   C2A 1048  15.751  14.103   9.228 -0.1188  0.0693 -0.3312
   66loPI   C3A 1049  15.805  14.367   8.911  0.3346 -0.0166  0.2836
   66loPI   C4A 1050  15.682  14.425   8.428  0.2626 -0.3730  0.1156
   66loPI   C5A 1051  15.517  14.565   8.066  0.4085  0.1610 -0.1431
   66loPI   C6A 1052  15.343  14.341   7.724  0.0748 -0.0719  0.1465
   66loPI   C1B 1053  16.515  13.425   9.462 -0.1080  0.2177 -0.1724
   66loPI   C2B 1054  16.304  13.516   8.983 -0.1429 -0.3612  0.1521
   66loPI   C3B 1055  16.050  13.844   8.890  0.3168 -0.2990  0.1492
   66loPI   C4B 1056  15.954  13.993   8.491 -0.0560  0.1340 -0.2099
   67loPI    C1 1057   6.247  14.592  10.830 -0.2478  0.0698 -0.0819
   67loPI    C2 1058   6.597  14.495  10.998 -0.1763  0.0134 -0.2608
   67loPI    C3 1059   6.327  14.705  11.205 -0.0455  0.0391 -0.1145
   67loPI   PO4 1060   6.281  14.448  10.544  0.0323 -0.1358  0.1828
   67loPI   GL1 1061   6.438  14.535  10.132 -0.0814  0.0522  0.3395
   67loPI   GL2 1062   6.302  14.151   9.993  0.2754  0.1990 -0.1005
   67loPI   C1A 1063   6.693  14.271   9.743 -0.2494  0.0611 -0.1716
   67loPI   C2A 1064   6.961  14.140   9.413 -0.0257 -0.0171 -0.1976
   67loPI   C3A 1065   6.926  14.180   8.984  0.1295 -0.1221  0.3184
   67loPI   C4A 1066   6.811  14.121   8.552 -0.0588 -0.1954  0.0929
   67loPI   C5A 1067   6.805  14.190   8.126  0.3128  0.1277  0.0293
   67loPI   C6A 1068   6.711  14.343   7.641 -0.1771 -0.1876  0.2079
   67loPI   C1B 1069   6.209  14.485   9.670 -0.0883  0.3129 -0.1891
   67loPI   C2B 1070   6.147  14.288   9.226  0.0309  0.1761 -0.0056
   67loPI   C3B 1071   5.770  14.273   8.992  0.0424  0.0029  0.0227
   67loPI   C4B 1072   5.331  14.142   8.795  0.1209  0.2353 -0.0157
   68loPI    C1 1073   3.928  11.026  10.641  0.0634 -0.1301  0.0655
   68loPI    C2 1074   3.662  10.730  10.605  0.1380 -0.1694 -0.1805
   68loPI    C3 1075   3.752  10.875  10.967 -0.1569 -0.2095 -0.0886
   68loPI   PO4 1076   3.998  10.995  10.380 -0.0056  0.0168  0.1838
   68loPI   GL1 1077   3.756  11.118  10.091 -0.2963 -0.1520  0.0894
   68loPI   GL2 1078   3.546  11.336   9.952  0.2071 -0.2787  0.3117
   68loPI   C1A 1079   4.017  10.939   9.719 -0.1657  0.0394 -0.1983
   68loPI   C2A 1080   4.089  10.965   9.250  0.0821  0.1785  0.1526
   68loPI   C3A 1081   3.985  11.004   8.761  0.2969  0.1072  0.2611
   68loPI   C4A 1082   4.096  11.032   8.323  0.1287  0.2349  0.0362
   68loPI   C5A 1083   4.252  11.001   7.885 -0.0834  0.1643  0.1772
   68loPI   C6A 1084   4.341  10.687   7.613  0.0503 -0.0409 -0.2401
   68loPI   C1B 1085   3.602  11.390   9.460 -0.0443  0.1680 -0.1155
   68loPI   C2B 1086   3.701  11.273   9.102 -0.0264  0.0210 -0.0665
   68loPI   C3B 1087   3.613  11.276   8.704  0.1968  0.0097  0.3115
   68loPI   C4B 1088   3.621  11.267   8.293 -0.0485  0.0726 -0.1018
   69loPI    C1 1089   8.833  17.250  10.419  0.1650  0.1376  0.0594
   69loPI    C2 1090   8.751  17.055  10.759 -0.0910  0.1037 -0.0197
   69loPI    C3 1091   9.026  17.345  10.756  0.2350 -0.1969  0.1174
   69loPI   PO4 1092   8.655  17.177  10.281  0.2626  0.0838  0.1574
   69loPI   GL1 1093   8.423  17.221   9.946  0.2713  0.2075 -0.2726
   69loPI   GL2 1094   8.167  17.206   9.779 -0.0688 -0.0629 -0.2291
   69loPI   C1A 1095   8.673  17.205   9.562 -0.2461 -0.0333 -0.0693
   69loPI   C2A 1096   8.885  17.203   9.212  0.0203  0.2529 -0.0709
   69loPI   C3A 1097   8.950  17.246   8.759 -0.1365  0.3175  0.2223
   69loPI   C4A 1098   8.992  17.280   8.284 -0.0587  0.1885  0.1198
   69loPI   C5A 1099   9.058  17.355   7.937 -0.3102 -0.1087  0.3868
   69loPI   C6A 1100   9.240  17.258   7.569  0.1051  0.3777 -0.0834
   69loPI   C1B 1101   8.240  17.078   9.329  0.3912 -0.0586  0.0451
   69loPI   C2B 1102   8.552  16.964   8.984 -0.2830  0.1800 -0.3039
   69loPI   C3B 1103   8.684  16.848   8.556  0.2020  0.2094  0.0753
   69loPI   C4B 1104   8.786  16.868   8.118  0.0054 -0.2152 -0.0477
   70loPI    C1 1105  15.110  14.065  10.379 -0.2964 -0.4178 -0.0839
   70loPI    C2 1106  15.393  13.793  10.457  0.2128  0.1349  0.0694
   70loPI    C3 1107  15.189  13.961  10.757  0.0085  0.0383 -0.0137
   70loPI   PO4 1108  15.215  14.251  10.161  0.0058  0.0007  0.4155
   70loPI   GL1 1109  15.099  14.161   9.731 -0.0731 -0.1337 -0.2745
   70loPI   GL2 1110  15.194  13.918   9.651  0.0181 -0.1437  0.0100
   70loPI   C1A 1111  15.285  14.351   9.361  0.1550 -0.0182  0.0106
   70loPI   C2A 1112  15.268  14.237   8.966 -0.1202 -0.2063 -0.0081
   70loPI   C3A 1113  15.471  14.005   8.651 -0.0091 -0.2506  0.1562
   70loPI   C4A 1114  15.482  13.591   8.539  0.1189  0.2368  0.2941
   70loPI   C5A 1115  15.692  13.541   8.183  0.1599  0.2046  0.1630
   70loPI   C6A 1116  15.748  13.628   7.777  0.2197  0.1521 -0.0740
   70loPI   C1B 1117  15.307  13.754   9.256 -0.1401 -0.1184 -0.0396
   70loPI   C2B 1118  15.732  13.566   9.078 -0.1234 -0.0826  0.2056
   70loPI   C3B 1119  15.921  13.425   8.670  0.0866  0.2147  0.1802
   70loPI   C4B 1120  16.292  13.453   8.498  0.1371 -0.0590 -0.0524
   71loPI    C1 1121  15.676   5.671  10.429 -0.0497 -0.2505 -0.1890
   71loPI    C2 1122  15.348   5.897  10.464 -0.0253 -0.2215 -0.1462
   71loPI    C3 1123  15.515   5.737  10.790  0.0678 -0.1439 -0.1554
   71loPI   PO4 1124  15.683   5.817  10.148 -0.1679 -0.0876  0.0583
   71loPI   GL1 1125  15.586   5.667   9.743 -0.0801 -0.1462 -0.0925
   71loPI   GL2 1126  15.656   5.345   9.713  0.1135  0.1011 -0.0005
   71loPI   C1A 1127  15.688   5.728   9.431 -0.0137  0.0821 -0.3058
   71loPI   C2A 1128  15.745   5.631   8.970  0.0494 -0.0477 -0.3390
   71loPI   C3A 1129  15.721   5.651   8.525 -0.0325 -0.3832 -0.0725
   71loPI   C4A 1130  15.667   5.512   8.155 -0.0252  0.0247 -0.0952
   71loPI   C5A 1131  15.526   5.538   7.753 -0.0291  0.3289 -0.2953
   71loPI   C6A 1132  15.168   5.345   7.467  0.0971 -0.2466 -0.1638
   71loPI   C1B 1133  15.701   5.252   9.259  0.0375  0.0080 -0.0082
   71loPI   C2B 1134  15.482   5.193   8.810  0.0005 -0.0006  0.0255
   71loPI   C3B 1135  15.373   4.993   8.477 -0.0667 -0.1043 -0.1973
   71loPI   C4B 1136  15.320   4.816   8.022  0.1851  0.0321  0.4050
   72loPI    C1 1137   0.597   6.744  10.530  0.2313  0.2247  0.0321
   72loPI    C2 1138   0.305   6.920  10.739  0.1101  0.0463  0.0151
   72loPI    C3 1139   0.686   6.964  10.851  0.0698  0.2031  0.0927
   72loPI   PO4 1140   0.505   6.791  10.285  0.1121  0.4158  0.1760
   72loPI   GL1 1141   0.520   6.901   9.831  0.1217  0.0050 -0.2191
   72loPI   GL2 1142   0.559   7.242   9.935  0.5105  0.0022 -0.1261
   72loPI   C1A 1143   0.406   6.831   9.458  0.0317  0.2219 -0.0007
   72loPI   C2A 1144   0.554   6.668   9.029 -0.0282  0.0348  0.0544
   72loPI   C3A 1145   0.700   6.617   8.687 -0.1785 -0.1616  0.0739
   72loPI   C4A 1146   0.764   6.529   8.183 -0.0871  0.3727 -0.0424
   72loPI   C5A 1147   0.875   6.191   7.928 -0.0140  0.0219 -0.0956
   72loPI   C6A 1148   1.074   6.107   7.578  0.0635  0.2303 -0.1138
   72loPI   C1B 1149   0.721   7.364   9.515 -0.0251  0.0793 -0.1436
   72loPI   C2B 1150   0.746   7.229   9.119  0.2613  0.0176  0.3520
   72loPI   C3B 1151   0.837   7.163   8.792 -0.1446  0.2602  0.0807
   72loPI   C4B 1152   0.972   7.119   8.310 -0.3103 -0.0623  0.1344
   73loPI    C1 1153   7.843  15.255  10.436 -0.0296  0.1131  0.0341
   73loPI    C2 1154   8.160  15.288  10.678 -0.0248  0.3091  0.0027
   73loPI    C3 1155   7.799  15.209  10.830  0.0269  0.1486  0.0447
   73loPI   PO4 1156   8.021  15.259  10.205  0.2270  0.0043  0.1393
   73loPI   GL1 1157   8.047  15.117   9.780  0.2548 -0.0435  0.0152
   73loPI   GL2 1158   7.953  14.851   9.699 -0.1002  0.0262 -0.2436
   73loPI   C1A 1159   7.865  15.159   9.350  0.1700 -0.1999 -0.1866
   73loPI   C2A 1160   7.690  15.313   8.966 -0.2074 -0.0295 -0.1117
   73loPI   C3A 1161   7.566  15.241   8.554 -0.2604 -0.1444  0.2588
   73loPI   C4A 1162   7.470  15.234   8.083  0.1548 -0.0248 -0.2817
   73loPI   C5A 1163   7.503  15.113   7.684 -0.0309 -0.0736  0.1189
   73loPI   C6A 1164   7.827  14.780   7.480 -0.1762  0.0831 -0.0250
   73loPI   C1B 1165   8.003  14.617   9.326  0.1506 -0.1729 -0.2119
   73loPI   C2B 1166   7.848  14.502   8.947 -0.1316 -0.0929  0.1145
   73loPI   C3B 1167   7.797  14.422   8.422  0.0454 -0.0415 -0.1966
   73loPI   C4B 1168   7.767  14.143   8.048  0.0834 -0.1270  0.0904
   74loPI    C1 1169  10.679   4.393  10.639  0.1551 -0.1340  0.0988
   74loPI    C2 1170  10.465   4.284  10.959  0.1923  0.1131  0.2098
   74loPI    C3 1171  10.598   4.660  10.926 -0.0952  0.1816 -0.2561
   74loPI   PO4 1172  10.488   4.343  10.393 -0.2036  0.1680  0.0852
   74loPI   GL1 1173  10.488   4.209   9.964 -0.0410  0.2077  0.0568
   74loPI   GL2 1174  10.655   3.948  10.103 -0.4150  0.2388 -0.0872
   74loPI   C1A 1175  10.418   4.073   9.491  0.3294  0.1098 -0.1606
   74loPI   C2A 1176  10.329   4.024   9.057  0.0415  0.3274  0.1077
   74loPI   C3A 1177  10.229   3.921   8.680  0.0133  0.0042  0.1894
   74loPI   C4A 1178  10.266   3.907   8.217  0.0624  0.2457 -0.3076
   74loPI   C5A 1179  10.199   3.650   7.752 -0.5061  0.0042  0.0408
   74loPI   C6A 1180  10.024   3.436   7.364  0.0431  0.3303 -0.1167
   74loPI   C1B 1181  10.940   3.901   9.762  0.1204 -0.0942  0.2056
   74loPI   C2B 1182  10.997   4.175   9.334  0.1403  0.4447 -0.1765
   74loPI   C3B 1183  10.824   3.924   8.954  0.0204 -0.0439  0.1359
   74loPI   C4B 1184  10.749   3.928   8.483 -0.0708 -0.1980 -0.1839
   75loPI    C1 1185   8.972  17.770  10.513  0.0766  0.0006 -0.0138
   75loPI    C2 1186   8.685  18.048  10.515  0.0680 -0.0040 -0.2543
   75loPI    C3 1187   8.634  17.706  10.717  0.0988  0.1861  0.0829
   75loPI   PO4 1188   8.997  17.794  10.227  0.2311  0.2859 -0.2066
   75loPI   GL1 1189   9.041  17.920   9.832 -0.0325  0.1196 -0.0714
   75loPI   GL2 1190   9.256  18.032   9.585 -0.0292  0.0566  0.1749
   75loPI   C1A 1191   8.907  17.752   9.394  0.1950  0.2601 -0.0825
   75loPI   C2A 1192   8.800  17.753   8.916  0.0004 -0.0579  0.0881
   75loPI   C3A 1193   8.773  17.667   8.597  0.2836  0.1110  0.1049
   75loPI   C4A 1194   8.742  17.726   8.053 -0.3020 -0.0571  0.1466
   75loPI   C5A 1195   8.643  17.546   7.646  0.0275  0.1961 -0.1683
   75loPI   C6A 1196   8.463  17.654   7.279 -0.3285 -0.1478  0.1134
   75loPI   C1B 1197   8.965  18.159   9.180  0.2732  0.0048  0.0146
   75loPI   C2B 1198   8.936  18.518   8.891 -0.1391  0.0528 -0.1568
   75loPI   C3B 1199   9.083  18.634   8.569  0.0447 -0.1667  0.0954
   75loPI   C4B 1200   9.114  18.619   8.133 -0.1670 -0.0866 -0.0178
   76loPI    C1 1201  13.404   3.824  10.463 -0.1583 -0.2074 -0.0391
   76loPI    C2 1202  13.388   3.591  10.787 -0.4295  0.1017  0.1770
   76loPI    C3 1203  13.520   3.967  10.818 -0.3777  0.1073 -0.0894
   76loPI   PO4 1204  13.222   3.714  10.299  0.2237  0.2865  0.0960
   76loPI   GL1 1205  13.141   3.778   9.865  0.0940 -0.2347 -0.1147
   76loPI   GL2 1206  13.510   3.664   9.776 -0.0274  0.1537  0.1344
   76loPI   C1A 1207  13.121   3.593   9.478 -0.1372 -0.3404  0.3163
   76loPI   C2A 1208  13.222   3.673   9.028 -0.2308  0.2005 -0.0349
   76loPI   C3A 1209  13.154   3.759   8.618 -0.0741  0.3223  0.1979
   76loPI   C4A 1210  13.193   3.824   8.140 -0.1358  0.2274  0.0277
   76loPI   C5A 1211  12.979   3.603   7.741  0.2239 -0.1535  0.1685
   76loPI   C6A 1212  12.664   3.234   7.630 -0.3128  0.0823 -0.1995
   76loPI   C1B 1213  13.655   3.574   9.380 -0.3484  0.0025  0.0454
   76loPI   C2B 1214  13.674   3.522   8.888  0.1071  0.1897 -0.2484
   76loPI   C3B 1215  13.660   3.543   8.475  0.0997  0.0244 -0.2347
   76loPI   C4B 1216  13.675   3.625   8.090  0.2641  0.2197  0.0307
   77loPI    C1 1217   1.045  11.288  10.401  0.1149  0.1596 -0.0723
   77loPI    C2 1218   0.679  11.160  10.500  0.0074  0.4797 -0.0458
   77loPI    C3 1219   0.970  11.165  10.775  0.1235 -0.0765 -0.1464
   77loPI   PO4 1220   0.946  11.351  10.093 -0.2835  0.0375 -0.0349
   77loPI   GL1 1221   0.682  11.477   9.772 -0.1427  0.0211 -0.1062
   77loPI   GL2 1222   0.837  11.736   9.839 -0.1054  0.2192  0.0378
   77loPI   C1A 1223   0.397  11.482   9.423  0.1156  0.0935  0.0574
   77loPI   C2A 1224   0.405  11.600   8.942  0.1496 -0.1320 -0.1270
   77loPI   C3A 1225   0.411  11.582   8.449  0.2198 -0.1714 -0.2469
   77loPI   C4A 1226   0.436  11.514   8.035 -0.1095 -0.1732  0.3224
   77loPI   C5A 1227   0.501  11.719   7.686 -0.1931 -0.1333  0.0689
   77loPI   C6A 1228   0.651  12.129   7.587 -0.1367 -0.1397  0.0587
   77loPI   C1B 1229   0.942  11.726   9.409  0.3055  0.2300 -0.1336
   77loPI   C2B 1230   0.922  11.824   8.910 -0.0146  0.2192  0.0770
   77loPI   C3B 1231   0.862  11.820   8.472 -0.2249  0.2843  0.1154
   77loPI   C4B 1232   0.872  11.867   8.025  0.0773  0.0495  0.0935
   78loPI    C1 1233   0.746   0.939   9.988 -0.0245 -0.4161 -0.1523
   78loPI    C2 1234   0.456   0.720  10.155 -0.2899  0.0211 -0.0246
   78loPI    C3 1235   0.544   1.082  10.302  0.0200  0.0797 -0.3404
   78loPI   PO4 1236   0.686   1.002   9.740  0.0724 -0.0705  0.2134
   78loPI   GL1 1237   0.953   1.118   9.388 -0.2176 -0.0468  0.2835
   78loPI   GL2 1238   0.724   1.101   9.223  0.3613  0.2606  0.0130
   78loPI   C1A 1239   1.044   1.210   8.888 -0.0488 -0.1253 -0.1337
   78loPI   C2A 1240   1.153   1.363   8.436  0.0713  0.1314 -0.1679
   78loPI   C3A 1241   1.230   1.264   7.965 -0.0734 -0.0884  0.0894
   78loPI   C4A 1242   1.292   1.270   7.449  0.2427 -0.2217 -0.0791
   78loPI   C5A 1243   0.802   1.255   7.247  0.0001 -0.2010 -0.0530
   78loPI   C6A 1244   0.489   0.988   6.967 -0.0460 -0.2425  0.4996
   78loPI   C1B 1245   0.564   1.151   8.815 -0.0602 -0.2716 -0.1955
   78loPI   C2B 1246   0.381   1.048   8.499 -0.1042 -0.2291  0.0503
   78loPI   C3B 1247   0.281   1.076   8.040 -0.0617  0.0924 -0.1333
   78loPI   C4B 1248   0.091   0.935   7.645 -0.0403  0.0571 -0.2271
   79loPI    C1 1249  13.962   2.059  10.562  0.4122  0.3256 -0.1318
   79loPI    C2 1250  13.624   2.254  10.651  0.1423 -0.2264  0.0970
   79loPI    C3 1251  13.968   2.455  10.620 -0.1609  0.3115  0.0936
   79loPI   PO4 1252  13.867   1.819  10.399 -0.1415  0.3546  0.1223
   79loPI   GL1 1253  13.795   1.808   9.991 -0.0161  0.0634 -0.3467
   79loPI   GL2 1254  13.973   2.004   9.857  0.1177 -0.1688 -0.1357
   79loPI   C1A 1255  13.754   1.585   9.601  0.0123 -0.1040  0.0731
   79loPI   C2A 1256  13.665   1.609   9.078  0.0459 -0.2216  0.0188
   79loPI   C3A 1257  13.615   1.648   8.696  0.3439  0.1619 -0.3198
   79loPI   C4A 1258  13.628   1.780   8.232 -0.1982 -0.2371  0.2521
   79loPI   C5A 1259  13.390   1.745   7.911  0.1070  0.1364 -0.1079
   79loPI   C6A 1260  13.214   1.336   7.687 -0.1760 -0.1071 -0.2107
   79loPI   C1B 1261  14.055   2.002   9.414 -0.1420 -0.1444  0.0638
   79loPI   C2B 1262  14.053   1.992   8.974  0.1018 -0.0391 -0.1031
   79loPI   C3B 1263  14.042   2.005   8.559  0.0545  0.0992 -0.0987
   79loPI   C4B 1264  14.006   2.164   8.107  0.1437  0.0237 -0.2106
   80loPI    C1 1265  16.035   6.364  10.375 -0.0807 -0.0427  0.0875
   80loPI    C2 1266  15.770   6.157  10.592 -0.0700  0.0269  0.1676
   80loPI    C3 1267  16.113   6.279  10.759 -0.0080 -0.0225  0.0774
   80loPI   PO4 1268  15.961   6.226  10.058  0.0564 -0.1342 -0.0599
   80loPI   GL1 1269  16.199   5.981   9.674  0.0599  0.1735 -0.3942
   80loPI   GL2 1270  16.258   5.723   9.511  0.1291  0.0136 -0.2682
   80loPI   C1A 1271  16.011   6.122   9.282  0.3544 -0.0875  0.0447
   80loPI   C2A 1272  15.975   6.182   8.892 -0.1410 -0.0902  0.3217
   80loPI   C3A 1273  15.686   6.388   8.570  0.1848 -0.3609  0.0587
   80loPI   C4A 1274  15.727   6.712   8.357  0.1554 -0.4197  0.1020
   80loPI   C5A 1275  15.497   6.801   7.974 -0.1450  0.1297 -0.0318
   80loPI   C6A 1276  15.472   7.094   7.594 -0.1287  0.0132  0.1441
   80loPI   C1B 1277  16.230   5.703   9.097  0.1476 -0.2029  0.1881
   80loPI   C2B 1278  16.242   5.616   8.750 -0.0502  0.0191  0.0211
   80loPI   C3B 1279  16.144   5.769   8.293  0.3658 -0.0495  0.2417
   80loPI   C4B 1280  15.879   6.051   8.299  0.1504 -0.0434 -0.0906
   81loPI    C1 1281   0.753  12.815  10.098 -0.0291  0.0916  0.0979
   81loPI    C2 1282   1.067  12.568  10.119 -0.0206  0.0643 -0.2770
   81loPI    C3 1283   0.974  12.801  10.431  0.1655 -0.1745 -0.0384
   81loPI   PO4 1284   0.741  12.942   9.932 -0.1564  0.0517 -0.0921
   81loPI   GL1 1285   1.012  12.907   9.582  0.1822  0.1340  0.2754
   81loPI   GL2 1286   0.709  13.093   9.355 -0.0919  0.0879  0.3224
   81loPI   C1A 1287   1.113  12.806   9.175  0.1886  0.1052  0.0239
   81loPI   C2A 1288   1.061  12.825   8.698 -0.2330  0.0209 -0.0983
   81loPI   C3A 1289   1.026  12.842   8.227  0.2123  0.1085  0.1067
   81loPI   C4A 1290   1.044  12.782   7.886  0.0588  0.0658  0.0574
   81loPI   C5A 1291   1.084  12.934   7.476  0.2227 -0.1596  0.2090
   81loPI   C6A 1292   1.450  12.996   7.265  0.3213 -0.0608 -0.0909
   81loPI   C1B 1293   0.616  13.153   8.976  0.0387  0.0099  0.1273
   81loPI   C2B 1294   0.612  13.113   8.606  0.0663 -0.1224  0.1758
   81loPI   C3B 1295   0.654  13.185   8.190  0.2196 -0.1105 -0.0363
   81loPI   C4B 1296   0.706  13.247   7.744 -0.0523  0.1439 -0.0078
   82loPI    C1 1297   8.433   2.740  10.566 -0.0896  0.0041  0.0466
   82loPI    C2 1298   8.441   2.341  10.597 -0.0526  0.0051  0.0504
   82loPI    C3 1299   8.608   2.568  10.881  0.0056  0.0213  0.0035
   82loPI   PO4 1300   8.352   2.754  10.308  0.2930  0.2293 -0.1080
   82loPI   GL1 1301   8.186   3.022   9.940 -0.0617  0.0569  0.1041
   82loPI   GL2 1302   7.901   3.196   9.989 -0.1554 -0.0912  0.1081
   82loPI   C1A 1303   8.171   2.725   9.526  0.1601 -0.1191  0.1673
   82loPI   C2A 1304   8.276   2.777   9.123 -0.1870 -0.2604  0.1175
   82loPI   C3A 1305   8.273   2.735   8.637  0.2696 -0.1142  0.4212
   82loPI   C4A 1306   8.119   2.688   8.202  0.2098  0.0166 -0.0975
   82loPI   C5A 1307   8.103   2.603   7.772  0.3787  0.2506 -0.2258
   82loPI   C6A 1308   7.936   2.479   7.444 -0.1084 -0.1257  0.3691
   82loPI   C1B 1309   7.690   3.022   9.747  0.2025  0.2449 -0.0007
   82loPI   C2B 1310   7.738   2.905   9.345 -0.1285  0.0491 -0.0114
   82loPI   C3B 1311   7.681   2.907   8.909 -0.0027  0.1911 -0.2599
   82loPI   C4B 1312   7.695   2.898   8.439 -0.0098 -0.3074 -0.0677
   83loPI    C1 1313  12.355  12.279  10.205  0.1422  0.1099 -0.1111
   83loPI    C2 1314  12.720  12.442  10.207  0.1067  0.1898  0.0281
   83loPI    C3 1315  12.625  12.163  10.476  0.1222  0.0385 -0.1215
   83loPI   PO4 1316  12.242  12.434   9.894  0.0372  0.1930  0.0369
   83loPI   GL1 1317  12.164  12.279   9.546 -0.2667  0.1952 -0.3353
   83loPI   GL2 1318  11.884  12.460   9.536  0.1230  0.2541 -0.2003
   83loPI   C1A 1319  12.197  12.235   9.051 -0.1862 -0.1240 -0.0676
   83loPI   C2A 1320  12.266  12.290   8.653 -0.2886  0.2104  0.2577
   83loPI   C3A 1321  12.330  12.611   8.593  0.1826 -0.0437 -0.3487
   83loPI   C4A 1322  12.461  12.680   8.192 -0.1693  0.2057  0.0722
   83loPI   C5A 1323  12.429  12.685   7.715  0.0256 -0.1068  0.1003
   83loPI   C6A 1324  12.539  12.882   7.350  0.2581 -0.1364  0.3191
   83loPI   C1B 1325  11.538  12.586   9.273  0.1190  0.0577 -0.4498
   83loPI   C2B 1326  11.291  12.633   8.768 -0.1458  0.1389 -0.1786
   83loPI   C3B 1327  11.480  12.824   8.404  0.1702  0.2564 -0.0903
   83loPI   C4B 1328  11.506  12.798   7.912  0.1873 -0.1116 -0.2035
   84loPI    C1 1329   7.331  11.043   9.794  0.0004  0.1614  0.0637
   84loPI    C2 1330   7.040  11.141   9.538 -0.0585 -0.2750 -0.0455
   84loPI    C3 1331   6.949  10.993   9.898  0.0293 -0.0624  0.0666
   84loPI   PO4 1332   7.505  10.881   9.611  0.0911 -0.1951  0.3263
   84loPI   GL1 1333   7.603  11.033   9.146  0.1310 -0.2472  0.1027
   84loPI   GL2 1334   7.386  10.705   9.152  0.1759 -0.1085  0.3802
   84loPI   C1A 1335   7.709  11.191   8.858  0.1833 -0.0762 -0.0659
   84loPI   C2A 1336   7.820  11.471   8.553 -0.1547  0.1857  0.0326
   84loPI   C3A 1337   7.995  11.489   8.162  0.0602 -0.2902  0.0446
   84loPI   C4A 1338   8.181  11.672   7.799  0.0526 -0.2647 -0.0466
   84loPI   C5A 1339   8.215  12.210   7.610  0.0244 -0.1336  0.3271
   84loPI   C6A 1340   8.571  12.305   7.338  0.1808  0.1109 -0.3395
   84loPI   C1B 1341   7.427  10.784   8.749  0.0525 -0.1704  0.1611
   84loPI   C2B 1342   7.362  10.582   8.337  0.0499  0.2177  0.1643
   84loPI   C3B 1343   7.359  10.424   7.953 -0.2643 -0.0605  0.0571
   84loPI   C4B 1344   6.958  10.273   7.907  0.1958  0.0797 -0.2460
   85loPI    C1 1345   2.363  14.280   9.998  0.2167 -0.3075 -0.1307
   85loPI    C2 1346   2.205  14.039  10.275  0.2267 -0.2670 -0.0896
   85loPI    C3 1347   2.543  14.239  10.353 -0.0009  0.0811  0.0313
   85loPI   PO4 1348   2.386  14.215   9.772  0.0062 -0.2579  0.1455
   85loPI   GL1 1349   2.069  14.168   9.437  0.1978 -0.0923 -0.1088
   85loPI   GL2 1350   1.998  13.886   9.481 -0.2846  0.0643  0.0063
   85loPI   C1A 1351   2.171  14.128   8.972 -0.2151 -0.0461  0.0743
   85loPI   C2A 1352   2.228  14.149   8.511 -0.0830  0.0763 -0.0640
   85loPI   C3A 1353   2.224  14.182   8.103  0.3115 -0.3269  0.0573
   85loPI   C4A 1354   2.066  14.160   7.811 -0.0146 -0.1331  0.2006
   85loPI   C5A 1355   2.001  13.908   7.445  0.1339  0.1204 -0.1852
   85loPI   C6A 1356   1.904  13.723   7.118  0.0829  0.0585 -0.1533
   85loPI   C1B 1357   2.114  13.651   9.152 -0.4147  0.2273 -0.0469
   85loPI   C2B 1358   2.140  13.676   8.723 -0.0408 -0.1209 -0.1651
   85loPI   C3B 1359   2.057  13.694   8.267 -0.1189 -0.1720 -0.0916
   85loPI   C4B 1360   2.134  13.632   7.872  0.0298 -0.5077 -0.0438
   86loPI    C1 1361  18.480  15.164  10.153  0.0688  0.0925  0.0334
   86loPI    C2 1362  18.337  15.312  10.496  0.1232  0.1312  0.0394
   86loPI    C3 1363  18.732  15.274  10.443  0.1086 -0.0529  0.0548
   86loPI   PO4 1364  18.327  15.379   9.935  0.2618  0.0144  0.0542
   86loPI   GL1 1365  18.198  15.381   9.562 -0.1717  0.0163  0.0987
   86loPI   GL2 1366  18.307  15.737   9.464 -0.2579  0.0208  0.0957
   86loPI   C1A 1367  18.012  15.013   9.324 -0.2365 -0.1600  0.0817
   86loPI   C2A 1368  18.000  14.944   8.920 -0.0988 -0.1269  0.1076
   86loPI   C3A 1369  17.870  15.112   8.528  0.0830 -0.2496  0.3272
   86loPI   C4A 1370  17.748  15.076   8.049 -0.1065  0.1832  0.1911
   86loPI   C5A 1371  17.811  14.853   7.574  0.3523 -0.1210  0.0816
   86loPI   C6A 1372  17.720  15.123   7.159  0.1708  0.3700 -0.0261
   86loPI   C1B 1373  18.466  15.681   9.075  0.0530 -0.1419  0.1393
   86loPI   C2B 1374  18.704  15.675   8.763  0.2201 -0.0131 -0.3328
   86loPI   C3B 1375  18.610  15.870   8.356 -0.0036  0.4160 -0.3539
   86loPI   C4B 1376  18.514  15.997   7.914  0.1243 -0.0411  0.1035
   87loPI    C1 1377   9.790   1.774  10.533 -0.0537  0.0615  0.0965
   87loPI    C2 1378   9.905   1.668  10.901 -0.2375  0.0297  0.1461
   87loPI    C3 1379   9.802   1.387  10.635 -0.0423  0.0489  0.0481
   87loPI   PO4 1380   9.971   1.817  10.401 -0.0699  0.3732  0.3640
   87loPI   GL1 1381  10.115   1.702  10.029 -0.0604 -0.0949 -0.0835
   87loPI   GL2 1382   9.905   1.697   9.841 -0.1197  0.0220 -0.0081
   87loPI   C1A 1383  10.372   1.620   9.640 -0.0402 -0.2837 -0.1544
   87loPI   C2A 1384  10.438   1.607   9.179  0.1429 -0.0044  0.0211
   87loPI   C3A 1385  10.388   1.582   8.776 -0.0167 -0.2603 -0.4752
   87loPI   C4A 1386  10.502   1.645   8.369  0.0556  0.1644  0.1612
   87loPI   C5A 1387  10.528   1.648   8.028 -0.0069  0.1621 -0.1442
   87loPI   C6A 1388  10.493   1.583   7.544 -0.1076  0.0191  0.1526
   87loPI   C1B 1389   9.906   1.735   9.386 -0.0622  0.0190  0.0807
   87loPI   C2B 1390   9.906   1.750   8.965 -0.0174  0.0540 -0.0155
   87loPI   C3B 1391   9.938   1.675   8.487  0.0139 -0.1549  0.0444
   87loPI   C4B 1392   9.931   1.699   8.045  0.1792 -0.1362  0.0729
   88loPI    C1 1393   4.554   5.524  10.710  0.0089  0.1744 -0.1139
   88loPI    C2 1394   4.842   5.782  10.812  0.1669 -0.0699  0.0667
   88loPI    C3 1395   4.463   5.852  10.920  0.1442  0.2836 -0.2238
   88loPI   PO4 1396   4.563   5.409  10.477  0.2518  0.1521 -0.1676
   88loPI   GL1 1397   4.631   5.369  10.103 -0.3910 -0.1038 -0.3415
   88loPI   GL2 1398   4.634   5.722   9.933 -0.0357 -0.1454 -0.2185
   88loPI   C1A 1399   4.528   5.271   9.651  0.1722 -0.3658 -0.0946
   88loPI   C2A 1400   4.545   5.331   9.362  0.1602 -0.0666  0.2284
   88loPI   C3A 1401   4.480   5.365   8.906 -0.5735  0.0371  0.3397
   88loPI   C4A 1402   4.346   5.497   8.493 -0.0251 -0.3598  0.1076
   88loPI   C5A 1403   4.477   5.420   8.025  0.0154 -0.2739  0.1930
   88loPI   C6A 1404   4.554   5.394   7.550 -0.1408  0.0637 -0.2701
   88loPI   C1B 1405   4.780   5.759   9.551  0.0560 -0.1035  0.0660
   88loPI   C2B 1406   4.861   5.807   9.071 -0.1564  0.0762 -0.2606
   88loPI   C3B 1407   4.826   5.603   8.671 -0.1826  0.1171  0.0212
   88loPI   C4B 1408   4.739   5.803   8.303 -0.0599 -0.0934  0.2065
   89loPI    C1 1409   5.393  13.958  10.742 -0.0879 -0.1992 -0.0885
   89loPI    C2 1410   5.374  14.272  10.989 -0.0554 -0.1089 -0.2002
   89loPI    C3 1411   5.568  13.941  11.101  0.0424 -0.0326 -0.1428
   89loPI   PO4 1412   5.490  14.106  10.519 -0.0675  0.0510 -0.0755
   89loPI   GL1 1413   5.397  14.458  10.124 -0.0350  0.1294  0.1745
   89loPI   GL2 1414   5.165  14.437   9.984 -0.0849  0.1835  0.0664
   89loPI   C1A 1415   5.551  14.445   9.656  0.1327  0.2294  0.0667
   89loPI   C2A 1416   5.846  14.620   9.347 -0.0061 -0.1595  0.0335
   89loPI   C3A 1417   5.774  14.985   9.099 -0.0273  0.1672 -0.0343
   89loPI   C4A 1418   5.595  15.152   8.733 -0.0590  0.1460 -0.1411
   89loPI   C5A 1419   5.514  15.316   8.284  0.2384  0.0913 -0.0459
   89loPI   C6A 1420   5.610  14.954   7.858  0.0151 -0.3068 -0.1538
   89loPI   C1B 1421   4.860  14.435   9.490  0.0603  0.2190 -0.0754
   89loPI   C2B 1422   4.885  14.317   8.985  0.2175 -0.2071 -0.4814
   89loPI   C3B 1423   4.880  13.945   8.526 -0.0470  0.0321 -0.3107
   89loPI   C4B 1424   4.607  13.881   8.169  0.0893 -0.0021 -0.1811
   90loPI    C1 1425   2.090   0.016  10.166 -0.0674  0.0162  0.0843
   90loPI    C2 1426   1.889  -0.200  10.437 -0.3320 -0.0685 -0.1733
   90loPI    C3 1427   1.959   0.189  10.503 -0.0161 -0.1829  0.2081
   90loPI   PO4 1428   1.964  -0.060   9.908 -0.0037  0.0539  0.1098
   90loPI   GL1 1429   2.115   0.057   9.475 -0.0834 -0.0672 -0.2246
   90loPI   GL2 1430   1.966  -0.114   9.332 -0.2000 -0.2617 -0.0561
   90loPI   C1A 1431   2.071   0.413   9.203  0.1053 -0.0110 -0.0789
   90loPI   C2A 1432   2.159   0.486   8.803  0.2044 -0.0715 -0.4279
   90loPI   C3A 1433   2.320   0.525   8.308  0.2407 -0.1202 -0.1685
   90loPI   C4A 1434   2.049   0.714   8.019 -0.4203 -0.1829 -0.0811
   90loPI   C5A 1435   1.953   0.812   7.686  0.2573  0.0345 -0.0500
   90loPI   C6A 1436   1.595   0.913   7.603  0.1440 -0.0946 -0.0740
   90loPI   C1B 1437   2.194  -0.057   8.883  0.0702  0.2653 -0.2777
   90loPI   C2B 1438   2.308  -0.034   8.435  0.0822 -0.5837 -0.0639
   90loPI   C3B 1439   2.226  -0.038   7.996  0.0408 -0.4193 -0.0366
   90loPI   C4B 1440   2.073   0.281   7.753 -0.2284 -0.1640  0.2392
   91loPI    C1 1441  11.929   5.939  10.460 -0.1491 -0.1343  0.0899
   91loPI    C2 1442  12.162   5.905  10.783 -0.1953 -0.2506  0.1118
   91loPI    C3 1443  11.770   5.967  10.826 -0.1514  0.0733  0.0742
   91loPI   PO4 1444  12.044   6.036  10.287  0.1881 -0.0806 -0.0626
   91loPI   GL1 1445  12.117   6.034   9.851 -0.0639 -0.0937  0.1117
   91loPI   GL2 1446  12.475   6.072   9.921  0.3211  0.0323 -0.0932
   91loPI   C1A 1447  12.141   6.076   9.495 -0.4098 -0.0676  0.0331
   91loPI   C2A 1448  12.114   6.279   9.118 -0.4053  0.3931  0.1022
   91loPI   C3A 1449  12.180   6.346   8.663  0.1704 -0.1498  0.0548
   91loPI   C4A 1450  12.208   6.375   8.250 -0.1780 -0.2910  0.0357
   91loPI   C5A 1451  12.194   6.648   7.933  0.0882 -0.1306  0.3401
   91loPI   C6A 1452  12.176   7.001   7.664 -0.4997  0.2787 -0.2379
   91loPI   C1B 1453  12.645   6.195   9.534 -0.1811  0.5315 -0.3245
   91loPI   C2B 1454  12.638   6.084   9.084 -0.1986  0.0588  0.0237
   91loPI   C3B 1455  12.664   6.271   8.601  0.1653 -0.0043 -0.3381
   91loPI   C4B 1456  12.756   6.621   8.369  0.2025  0.0297  0.3065
   92loPI    C1 1457   1.559   1.546  10.021  0.1351  0.2262 -0.1957
   92loPI    C2 1458   1.889   1.524  10.245 -0.0355  0.1435  0.0523
   92loPI    C3 1459   1.597   1.779  10.344 -0.1550  0.0349 -0.0186
   92loPI   PO4 1460   1.590   1.622   9.772 -0.0484 -0.0922 -0.2205
   92loPI   GL1 1461   1.563   1.674   9.419  0.1692  0.2477  0.2358
   92loPI   GL2 1462   1.269   1.505   9.191 -0.1207 -0.0992 -0.0290
   92loPI   C1A 1463   1.740   1.832   8.946  0.0641  0.0348 -0.4688
   92loPI   C2A 1464   1.621   1.693   8.561  0.2751 -0.2852  0.1029
   92loPI   C3A 1465   1.500   1.668   8.167 -0.0406 -0.3702 -0.3231
   92loPI   C4A 1466   1.717   1.671   7.814 -0.1294 -0.0427  0.4553
   92loPI   C5A 1467   1.711   1.379   7.617  0.0551 -0.0525  0.4746
   92loPI   C6A 1468   1.722   1.283   7.188 -0.2084 -0.1297 -0.2026
   92loPI   C1B 1469   1.620   1.340   9.025 -0.0808  0.0523  0.2061
   92loPI   C2B 1470   1.748   1.187   8.603 -0.4156  0.2029  0.2289
   92loPI   C3B 1471   1.806   0.695   8.478 -0.2982  0.0314  0.0944
   92loPI   C4B 1472   1.845   0.231   8.336  0.1664 -0.0219 -0.2024
   93loPI    C1 1473   9.531  15.325  10.134 -0.0509 -0.0540  0.0206
   93loPI    C2 1474   9.821  15.350  10.409  0.0208 -0.2132 -0.0395
   93loPI    C3 1475   9.540  15.066  10.439  0.0126 -0.2135 -0.1150
   93loPI   PO4 1476   9.636  15.336   9.930  0.4036  0.1895  0.0689
   93loPI   GL1 1477   9.472  15.067   9.607 -0.3649 -0.1420 -0.1055
   93loPI   GL2 1478   9.591  15.043   9.333  0.2625  0.2184 -0.0112
   93loPI   C1A 1479   9.154  14.863   9.303 -0.3068 -0.3399 -0.2533
   93loPI   C2A 1480   9.028  14.944   8.923 -0.0801 -0.3190  0.0232
   93loPI   C3A 1481   8.942  14.937   8.456  0.2443 -0.1300  0.1174
   93loPI   C4A 1482   8.924  14.809   8.069 -0.1179  0.1703 -0.2189
   93loPI   C5A 1483   8.625  14.541   7.728 -0.1603 -0.2281  0.3628
   93loPI   C6A 1484   8.538  14.335   7.305 -0.4076  0.0860  0.2665
   93loPI   C1B 1485   9.462  15.200   8.878 -0.0976  0.0156  0.0528
   93loPI   C2B 1486   9.491  14.968   8.444  0.0468 -0.1433  0.0729
   93loPI   C3B 1487   9.443  14.859   8.008 -0.5391 -0.2285  0.2065
   93loPI   C4B 1488   9.454  14.653   7.642 -0.0831 -0.0108  0.1021
   94loPI    C1 1489  10.492  17.193  10.130  0.1154 -0.2336  0.1051
   94loPI    C2 1490  10.129  17.099  10.270  0.0022  0.1082  0.0513
   94loPI    C3 1491  10.314  17.430  10.399  0.2473 -0.0036 -0.0067
   94loPI   PO4 1492  10.569  16.929  10.129 -0.3251 -0.2271  0.1459
   94loPI   GL1 1493  10.458  16.827   9.712 -0.3510 -0.1441  0.1595
   94loPI   GL2 1494  10.314  16.455   9.560 -0.0905 -0.3003 -0.0062
   94loPI   C1A 1495  10.445  17.148   9.369 -0.1280  0.1101 -0.0726
   94loPI   C2A 1496  10.340  17.297   8.945 -0.0568 -0.0730  0.0638
   94loPI   C3A 1497  10.307  17.304   8.493  0.2088  0.0469 -0.0868
   94loPI   C4A 1498  10.180  17.311   8.004 -0.0656 -0.2142  0.0307
   94loPI   C5A 1499  10.020  17.370   7.626 -0.4538 -0.0974 -0.0083
   94loPI   C6A 1500  10.122  17.392   7.201 -0.1882  0.1555  0.1323
   94loPI   C1B 1501  10.418  16.482   9.168 -0.0422  0.0377 -0.1245
   94loPI   C2B 1502  10.207  16.361   8.752 -0.0417 -0.1080 -0.0289
   94loPI   C3B 1503   9.956  16.368   8.399 -0.0178 -0.1507  0.2339
   94loPI   C4B 1504   9.464  16.217   8.309 -0.1496  0.0621  0.2288
   95loPI    C1 1505   8.225   0.149  10.149  0.0739  0.0298 -0.0083
   95loPI    C2 1506   8.421   0.424  10.363  0.0758  0.0079  0.0182
   95loPI    C3 1507   8.617   0.109  10.215  0.0273 -0.1058  0.1937
   95loPI   PO4 1508   8.116   0.248   9.914  0.1562  0.1387  0.0778
   95loPI   GL1 1509   8.111   0.371   9.499 -0.0053 -0.4830  0.0526
   95loPI   GL2 1510   8.373   0.200   9.314  0.3234 -0.0080  0.1820
   95loPI   C1A 1511   8.152   0.692   9.183  0.0770  0.1302  0.1235
   95loPI   C2A 1512   8.208   1.056   9.072 -0.0472 -0.2173  0.1204
   95loPI   C3A 1513   8.604   1.236   9.185  0.1714  0.0815  0.0776
   95loPI   C4A 1514   8.915   1.512   9.049  0.0326  0.0892 -0.0268
   95loPI   C5A 1515   9.088   1.617   8.684 -0.0713  0.0220  0.1453
   95loPI   C6A 1516   8.980   1.712   8.253 -0.1829 -0.0888 -0.1156
   95loPI   C1B 1517   8.168   0.134   8.884  0.0045  0.3919  0.1264
   95loPI   C2B 1518   7.968  -0.248   8.683 -0.3920  0.3642 -0.2066
   95loPI   C3B 1519   8.190  -0.415   8.348  0.0076  0.0030 -0.0145
   95loPI   C4B 1520   8.409  -0.583   7.964 -0.2618 -0.1680 -0.0859
   96loPI    C1 1521   9.657  16.126  10.061  0.0872  0.0599  0.1467
   96loPI    C2 1522   9.674  15.778  10.258 -0.2443 -0.1630 -0.2043
   96loPI    C3 1523   9.638  16.121  10.461  0.2642 -0.3100  0.1556
   96loPI   PO4 1524   9.392  16.113   9.913 -0.1135  0.2620 -0.0598
   96loPI   GL1 1525   9.274  15.881   9.542  0.2837 -0.0300 -0.1614
   96loPI   GL2 1526   9.561  15.749   9.714  0.1956  0.2423  0.0155
   96loPI   C1A 1527   9.064  15.992   9.103  0.3342  0.2684 -0.0317
   96loPI   C2A 1528   9.151  16.237   8.741  0.2579 -0.1530  0.1450
   96loPI   C3A 1529   8.967  16.325   8.362  0.0005  0.1952 -0.0409
   96loPI   C4A 1530   8.931  16.156   7.938  0.1714 -0.0077 -0.2233
   96loPI   C5A 1531   9.016  16.150   7.447  0.0990  0.1690 -0.0631
   96loPI   C6A 1532   9.483  15.933   7.307 -0.1781  0.1367  0.3062
   96loPI   C1B 1533   9.650  15.593   9.242 -0.0447 -0.0757 -0.2731
   96loPI   C2B 1534   9.500  15.685   8.893 -0.0255 -0.0837  0.0598
   96loPI   C3B 1535   9.356  15.808   8.643 -0.0631  0.1315  0.2128
   96loPI   C4B 1536   9.299  15.793   8.203 -0.0473  0.1843  0.1254
   97loPI    C1 1537  13.099   5.718  10.425  0.0307 -0.0565 -0.0563
   97loPI    C2 1538  13.340   5.985  10.250  0.0261  0.0331  0.0726
   97loPI    C3 1539  13.469   5.775  10.565 -0.0633  0.0800  0.1409
   97loPI   PO4 1540  12.951   5.630  10.268  0.1128  0.2152  0.2501
   97loPI   GL1 1541  12.851   5.775   9.854 -0.5818 -0.0078 -0.1025
   97loPI   GL2 1542  12.892   5.743   9.640 -0.0433 -0.2416 -0.0757
   97loPI   C1A 1543  12.446   5.658   9.571 -0.1593  0.0026 -0.4260
   97loPI   C2A 1544  12.322   5.709   9.150  0.1160 -0.1149  0.0881
   97loPI   C3A 1545  12.336   5.812   8.743 -0.0672  0.1831  0.0866
   97loPI   C4A 1546  12.423   5.879   8.238  0.0632 -0.1248 -0.1624
   97loPI   C5A 1547  12.010   5.775   8.256  0.1332 -0.1528 -0.2476
   97loPI   C6A 1548  11.595   5.686   8.445  0.1333 -0.1287  0.1826
   97loPI   C1B 1549  12.969   5.667   9.175  0.1119  0.0408  0.1769
   97loPI   C2B 1550  12.910   5.789   8.757 -0.2221 -0.0509 -0.0664
   97loPI   C3B 1551  12.890   5.734   8.299  0.3250 -0.2555 -0.1333
   97loPI   C4B 1552  12.817   5.720   7.888 -0.3589  0.0213 -0.1034
   98loPI    C1 1553  13.220   5.423   9.900 -0.1998  0.0458  0.1765
   98loPI    C2 1554  13.484   5.457  10.198 -0.2075 -0.0273  0.1920
   98loPI    C3 1555  13.272   5.120  10.156 -0.0513 -0.1012 -0.0237
   98loPI   PO4 1556  13.364   5.700   9.768 -0.1679 -0.0759  0.1011
   98loPI   GL1 1557  13.487   5.871   9.348  0.0495 -0.1106  0.4157
   98loPI   GL2 1558  13.689   6.029   9.596 -0.0911  0.0840 -0.0934
   98loPI   C1A 1559  13.425   6.027   8.890  0.0046  0.0577  0.1040
   98loPI   C2A 1560  13.251   6.153   8.444  0.0236 -0.2030  0.0583
   98loPI   C3A 1561  12.931   6.238   8.122 -0.1618 -0.2842 -0.1335
   98loPI   C4A 1562  12.836   6.558   7.853  0.1731 -0.0234 -0.0985
   98loPI   C5A 1563  13.017   7.031   7.902  0.1790  0.3252 -0.1727
   98loPI   C6A 1564  13.109   7.421   7.825 -0.1289 -0.1012  0.1136
   98loPI   C1B 1565  13.917   6.152   9.235 -0.2922 -0.1965  0.0767
   98loPI   C2B 1566  13.998   6.188   8.839 -0.0708  0.4415 -0.0006
   98loPI   C3B 1567  13.786   5.934   8.594 -0.4032  0.0091  0.1830
   98loPI   C4B 1568  13.773   5.992   8.208 -0.0214  0.2040 -0.1213
   99loPI    C1 1569  11.656  16.495   9.938 -0.0507  0.1167  0.2547
   99loPI    C2 1570  11.462  16.229  10.165  0.0762 -0.1865  0.0165
   99loPI    C3 1571  11.779  16.114   9.951  0.1837  0.1790 -0.0269
   99loPI   PO4 1572  11.572  16.673  10.011  0.1435 -0.4864  0.1997
   99loPI   GL1 1573  11.446  16.938   9.735 -0.0001  0.1380 -0.1647
   99loPI   GL2 1574  11.249  16.713   9.572  0.1252 -0.0044  0.0681
   99loPI   C1A 1575  11.650  17.120   9.511  0.0109 -0.1567  0.0762
   99loPI   C2A 1576  11.582  17.273   9.001 -0.1044 -0.2928 -0.1023
   99loPI   C3A 1577  11.663  17.467   8.666  0.0444  0.3095  0.1242
   99loPI   C4A 1578  11.673  17.522   8.230  0.3722 -0.3212 -0.2167
   99loPI   C5A 1579  11.438  17.559   7.687  0.0343  0.0090 -0.2966
   99loPI   C6A 1580  11.574  17.679   7.373 -0.0708  0.2161 -0.1359
   99loPI   C1B 1581  11.277  16.826   9.055  0.0594 -0.2245 -0.1595
   99loPI   C2B 1582  11.146  16.828   8.661 -0.1945 -0.1506  0.0337
   99loPI   C3B 1583  11.223  17.079   8.335 -0.1096 -0.2415 -0.0910
   99loPI   C4B 1584  11.307  17.225   7.980  0.0980  0.4790 -0.0076
  100loPI    C1 1585   1.594  11.775  10.541 -0.1275  0.1721  0.0185
  100loPI    C2 1586   1.460  11.427  10.688 -0.1837  0.2431  0.1367
  100loPI    C3 1587   1.224  11.750  10.690 -0.1071  0.2998  0.0917
  100loPI   PO4 1588   1.718  11.739  10.235 -0.0877  0.0371  0.1457
  100loPI   GL1 1589   1.642  11.687   9.823  0.3172  0.0647 -0.1275
  100loPI   GL2 1590   1.337  11.598   9.771  0.0241  0.0958 -0.2771
  100loPI   C1A 1591   1.831  11.726   9.379  0.1853  0.0216  0.0535
  100loPI   C2A 1592   1.726  11.685   8.967  0.0883  0.1226 -0.0155
  100loPI   C3A 1593   1.784  11.609   8.519 -0.2132  0.0886 -0.0476
  100loPI   C4A 1594   1.776  11.719   8.045  0.0512  0.0520  0.1209
  100loPI   C5A 1595   1.601  12.012   7.812 -0.2346 -0.1864  0.2951
  100loPI   C6A 1596   1.525  12.515   7.560  0.1306  0.1145 -0.2413
  100loPI   C1B 1597   1.376  11.450   9.261 -0.2646  0.2148 -0.0081
  100loPI   C2B 1598   1.361  11.480   8.752 -0.1578 -0.0033  0.2668
  100loPI   C3B 1599   1.389  11.447   8.293 -0.1238 -0.0169 -0.0858
  100loPI   C4B 1600   1.286  11.566   7.918  0.0649  0.0243  0.0407
  101loPI    C1 1601   1.101  12.348  10.595  0.1553  0.3466  0.1272
  101loPI    C2 1602   0.846  12.052  10.682  0.1935  0.2362 -0.1267
  101loPI    C3 1603   0.849  12.385  10.903  0.1425  0.0528  0.1554
  101loPI   PO4 1604   1.331  12.204  10.468 -0.0995 -0.3133  0.1131
  101loPI   GL1 1605   1.548  12.193  10.018 -0.3247 -0.2366 -0.0311
  101loPI   GL2 1606   1.258  12.118   9.857  0.4567  0.2547 -0.0997
  101loPI   C1A 1607   1.780  12.159   9.674 -0.2194 -0.0932 -0.0510
  101loPI   C2A 1608   1.958  12.189   9.261 -0.2416 -0.0775  0.0335
  101loPI   C3A 1609   1.962  12.083   8.777  0.0658  0.0237 -0.3924
  101loPI   C4A 1610   1.897  12.178   8.311 -0.0813 -0.0101  0.0373
  101loPI   C5A 1611   2.034  12.250   7.971  0.2341 -0.2904 -0.3173
  101loPI   C6A 1612   2.376  12.367   7.733  0.2218  0.2449  0.1972
  101loPI   C1B 1613   1.404  11.984   9.489 -0.0485  0.0038  0.3016
  101loPI   C2B 1614   1.373  12.011   9.084  0.1978 -0.0614 -0.1635
  101loPI   C3B 1615   1.455  11.975   8.611 -0.0446  0.2191 -0.4082
  101loPI   C4B 1616   1.306  11.986   8.190  0.2776 -0.3640 -0.0148
  102loPI    C1 1617   2.153  17.351   9.793 -0.0197  0.1121 -0.1793
  102loPI    C2 1618   2.464  17.415  10.037 -0.0693 -0.1605 -0.0412
  102loPI    C3 1619   2.117  17.603  10.102 -0.0114 -0.0523 -0.0426
  102loPI   PO4 1620   2.165  17.335   9.529 -0.1047 -0.2094  0.0921
  102loPI   GL1 1621   2.341  17.036   9.337  0.0813  0.1583 -0.1180
  102loPI   GL2 1622   2.287  16.861   9.183 -0.1015  0.0277  0.1921
  102loPI   C1A 1623   2.565  17.307   8.981  0.2473 -0.0206 -0.1162
  102loPI   C2A 1624   2.594  17.197   8.509  0.1808  0.0896 -0.3092
  102loPI   C3A 1625   2.683  17.014   8.049  0.1240  0.0433 -0.1647
  102loPI   C4A 1626   2.451  16.825   7.721  0.1273  0.0320 -0.0314
  102loPI   C5A 1627   2.417  16.896   7.236  0.0944  0.0463 -0.0113
  102loPI   C6A 1628   2.371  17.172   6.948 -0.1154  0.0737 -0.0188
  102loPI   C1B 1629   2.154  17.126   8.823 -0.0443  0.0537 -0.2886
  102loPI   C2B 1630   2.041  17.461   8.566  0.0866 -0.1859  0.1654
  102loPI   C3B 1631   2.244  17.391   8.183  0.0569 -0.3114  0.2240
  102loPI   C4B 1632   2.101  17.410   7.834 -0.0634 -0.1029  0.0907
  103loPI    C1 1633   2.764  14.579   9.993 -0.1455 -0.3113 -0.0099
  103loPI    C2 1634   2.539  14.719  10.293 -0.0295 -0.1308 -0.0053
  103loPI    C3 1635   2.924  14.632  10.356  0.0922  0.2564 -0.1875
  103loPI   PO4 1636   2.652  14.743   9.716 -0.5289 -0.0920 -0.0396
  103loPI   GL1 1637   2.773  14.591   9.324  0.0376  0.2045 -0.1773
  103loPI   GL2 1638   2.556  14.344   9.359  0.1113  0.2040 -0.2095
  103loPI   C1A 1639   2.699  14.369   8.925 -0.1219  0.0420 -0.6953
  103loPI   C2A 1640   2.693  14.367   8.531  0.0700 -0.0236 -0.2284
  103loPI   C3A 1641   2.731  14.391   8.053  0.0125  0.0524  0.0975
  103loPI   C4A 1642   2.719  14.295   7.679 -0.2174  0.0939 -0.1222
  103loPI   C5A 1643   2.514  13.920   7.618  0.1090 -0.0519  0.1731
  103loPI   C6A 1644   2.324  13.527   7.395 -0.3441  0.1176 -0.0565
  103loPI   C1B 1645   2.298  14.652   9.139 -0.4174  0.1631  0.2012
  103loPI   C2B 1646   2.313  14.674   8.669  0.0610 -0.0278 -0.1617
  103loPI   C3B 1647   2.350  14.612   8.246  0.1104  0.4011  0.3196
  103loPI   C4B 1648   2.172  14.622   7.797  0.0128 -0.0678  0.4996
  104loPI    C1 1649  12.979  15.864   9.755 -0.0740  0.2872 -0.1305
  104loPI    C2 1650  12.937  16.029  10.116 -0.1052  0.0128 -0.0056
  104loPI    C3 1651  12.709  15.718  10.012  0.1295 -0.1166 -0.1387
  104loPI   PO4 1652  12.958  16.019   9.615 -0.2934 -0.2533  0.2632
  104loPI   GL1 1653  13.096  16.348   9.342  0.1348 -0.1538  0.2102
  104loPI   GL2 1654  13.088  16.077   9.154  0.2623  0.0449 -0.1830
  104loPI   C1A 1655  13.136  16.471   8.850 -0.0188  0.0162  0.1262
  104loPI   C2A 1656  13.203  16.381   8.517 -0.3510 -0.3256 -0.0905
  104loPI   C3A 1657  13.112  16.429   8.020 -0.0768 -0.0639  0.0891
  104loPI   C4A 1658  12.788  16.279   7.715 -0.0995 -0.2059 -0.2266
  104loPI   C5A 1659  12.557  16.158   7.378 -0.1035  0.2262 -0.1486
  104loPI   C6A 1660  12.199  15.849   7.197 -0.0066  0.1366 -0.2468
  104loPI   C1B 1661  13.225  15.919   8.754  0.1834 -0.0155  0.0024
  104loPI   C2B 1662  13.433  15.634   8.468  0.2173  0.0142  0.0106
  104loPI   C3B 1663  13.624  15.514   8.137  0.3627 -0.1654 -0.3244
  104loPI   C4B 1664  13.616  15.422   7.702  0.0045  0.4569 -0.0518
  105loPI    C1 1665  16.468  17.510  10.168 -0.1109 -0.0808  0.1218
  105loPI    C2 1666  16.357  17.889  10.228  0.0380 -0.0294  0.0761
  105loPI    C3 1667  16.716  17.763  10.352  0.0517 -0.1141 -0.0470
  105loPI   PO4 1668  16.397  17.429   9.904 -0.3266  0.0304 -0.3390
  105loPI   GL1 1669  16.203  17.242   9.566  0.0376 -0.3382 -0.0326
  105loPI   GL2 1670  16.286  17.549   9.438 -0.2168 -0.0331  0.1856
  105loPI   C1A 1671  16.278  17.275   9.048 -0.0450  0.4749 -0.1408
  105loPI   C2A 1672  16.285  17.412   8.639 -0.1834 -0.4249  0.1225
  105loPI   C3A 1673  16.134  17.408   8.251  0.0610 -0.2276 -0.1554
  105loPI   C4A 1674  16.122  17.222   7.983  0.3335  0.1388 -0.0835
  105loPI   C5A 1675  15.778  16.921   7.755  0.3658 -0.1019 -0.1513
  105loPI   C6A 1676  15.443  16.665   7.539  0.0078  0.0624  0.1887
  105loPI   C1B 1677  16.261  17.814   9.108 -0.2482 -0.0636  0.3253
  105loPI   C2B 1678  16.145  17.886   8.723 -0.0448  0.0040  0.2206
  105loPI   C3B 1679  16.084  17.908   8.315 -0.2930  0.0594  0.0968
  105loPI   C4B 1680  16.014  17.790   7.797 -0.0526 -0.0336  0.1113
  106loPI    C1 1681  15.969  11.475  10.354  0.0048  0.2552  0.1747
  106loPI    C2 1682  15.750  11.793  10.251 -0.0007  0.2624  0.2089
  106loPI    C3 1683  15.858  11.739  10.633  0.2280  0.3663  0.1606
  106loPI   PO4 1684  15.764  11.266  10.240  0.1593  0.1496 -0.0377
  106loPI   GL1 1685  15.700  11.082   9.825 -0.2327  0.0849 -0.0877
  106loPI   GL2 1686  15.417  10.993   9.863  0.0213 -0.0911  0.2300
  106loPI   C1A 1687  15.770  11.191   9.516 -0.0649  0.0950 -0.1784
  106loPI   C2A 1688  15.555  11.282   9.179 -0.2937  0.3856  0.1073
  106loPI   C3A 1689  15.578  11.236   8.717 -0.2147  0.1497 -0.2274
  106loPI   C4A 1690  15.538  11.210   8.265  0.0737 -0.2826 -0.1948
  106loPI   C5A 1691  15.400  11.090   7.809  0.0529  0.1987 -0.1121
  106loPI   C6A 1692  14.997  11.131   7.440  0.0025 -0.0129  0.0128
  106loPI   C1B 1693  15.299  10.918   9.518  0.2429 -0.1073  0.0370
  106loPI   C2B 1694  15.508  10.781   9.225  0.2933 -0.0622 -0.2008
  106loPI   C3B 1695  15.434  10.683   8.828  0.0512 -0.2738  0.1976
  106loPI   C4B 1696  15.406  10.672   8.417 -0.0154  0.0522  0.0775
  107loPI    C1 1697  13.746   8.509   9.917 -0.1458  0.1349 -0.1774
  107loPI    C2 1698  13.661   8.388  10.288 -0.1158 -0.0027 -0.2148
  107loPI    C3 1699  13.900   8.168  10.056 -0.2806 -0.0108 -0.3789
  107loPI   PO4 1700  13.760   8.804  10.020  0.1594  0.0257 -0.0056
  107loPI   GL1 1701  13.880   9.018   9.623 -0.0234 -0.1274 -0.2917
  107loPI   GL2 1702  14.200   8.795   9.585  0.1555  0.1573  0.1285
  107loPI   C1A 1703  13.697   9.035   9.247  0.0601 -0.0608  0.0311
  107loPI   C2A 1704  13.921   9.100   8.817  0.0312 -0.0017  0.3234
  107loPI   C3A 1705  13.931   9.123   8.399 -0.1097 -0.0958  0.0710
  107loPI   C4A 1706  13.773   9.293   7.948 -0.4161 -0.4169 -0.0874
  107loPI   C5A 1707  13.749   9.675   7.724 -0.0316  0.0807 -0.0555
  107loPI   C6A 1708  13.492   9.919   7.432  0.0875  0.2650  0.1862
  107loPI   C1B 1709  14.311   9.173   9.412 -0.1699 -0.3301 -0.0274
  107loPI   C2B 1710  14.282   9.364   8.998 -0.0026  0.1660 -0.2823
  107loPI   C3B 1711  14.358   9.320   8.578  0.1236 -0.3473 -0.0018
  107loPI   C4B 1712  14.278   9.324   8.083  0.0153  0.0388  0.1574
  108loPI    C1 1713   6.524  11.287   9.913  0.1566  0.3652  0.1276
  108loPI    C2 1714   6.707  11.499   9.627  0.1598  0.0798 -0.0867
  108loPI    C3 1715   6.862  11.483   9.995  0.3844  0.1113 -0.1787
  108loPI   PO4 1716   6.372  11.045   9.769  0.1108  0.0858  0.2341
  108loPI   GL1 1717   6.168  10.823   9.413 -0.0245  0.2569  0.1684
  108loPI   GL2 1718   6.476  10.756   9.352  0.0664  0.0910 -0.0352
  108loPI   C1A 1719   5.904  11.151   9.330  0.2303  0.3742 -0.1735
  108loPI   C2A 1720   5.846  11.239   8.944 -0.0268  0.0894 -0.1593
  108loPI   C3A 1721   5.882  11.349   8.575 -0.0488 -0.0281  0.0241
  108loPI   C4A 1722   6.017  11.158   8.187 -0.2989 -0.1956 -0.1175
  108loPI   C5A 1723   6.286  10.944   7.882 -0.2525  0.2781 -0.1233
  108loPI   C6A 1724   6.095  10.743   7.624  0.0709  0.1655 -0.0300
  108loPI   C1B 1725   6.304  10.903   8.983 -0.1345 -0.0475 -0.2037
  108loPI   C2B 1726   6.365  11.090   8.552  0.0481 -0.1660  0.3192
  108loPI   C3B 1727   6.386  11.458   8.214 -0.0032  0.2804  0.1206
  108loPI   C4B 1728   6.290  11.406   7.720  0.4826  0.1907  0.0526
  109loPI    C1 1729   6.895   5.950  10.904 -0.1196 -0.0717 -0.1573
  109loPI    C2 1730   6.791   6.312  11.040 -0.1703 -0.1746  0.0829
  109loPI    C3 1731   7.107   6.122  11.196 -0.0510 -0.1704 -0.1484
  109loPI   PO4 1732   6.886   6.070  10.621  0.3512 -0.0945  0.2572
  109loPI   GL1 1733   6.963   5.896  10.210 -0.0170  0.1593  0.0110
  109loPI   GL2 1734   6.736   5.807  10.037  0.1151  0.0571 -0.3699
  109loPI   C1A 1735   7.022   6.018   9.733 -0.0534 -0.0042  0.0689
  109loPI   C2A 1736   7.014   5.940   9.344  0.1959 -0.0837  0.0803
  109loPI   C3A 1737   7.126   5.950   8.905 -0.0019  0.0703  0.1413
  109loPI   C4A 1738   7.151   5.757   8.540  0.1706  0.2652  0.2616
  109loPI   C5A 1739   7.190   5.671   8.089  0.0789 -0.1193  0.1103
  109loPI   C6A 1740   7.332   5.663   7.725 -0.3523  0.0739  0.2245
  109loPI   C1B 1741   6.666   5.637   9.599  0.1045  0.2201 -0.1857
  109loPI   C2B 1742   6.633   5.652   9.154 -0.1775  0.1358  0.0599
  109loPI   C3B 1743   6.759   5.550   8.809 -0.2318 -0.1049  0.1413
  109loPI   C4B 1744   6.816   5.462   8.356  0.1441  0.3643  0.0267
  110loPI    C1 1745   5.972  15.684  10.109 -0.1609 -0.0012 -0.0845
  110loPI    C2 1746   5.699  15.524   9.865  0.0198 -0.2109 -0.1531
  110loPI    C3 1747   5.909  15.289  10.112  0.0942 -0.0438 -0.0553
  110loPI   PO4 1748   6.138  15.836   9.972 -0.0967 -0.4283 -0.1441
  110loPI   GL1 1749   6.164  15.687   9.603  0.1811  0.3498  0.0397
  110loPI   GL2 1750   6.009  15.450   9.482 -0.0072 -0.0309 -0.1022
  110loPI   C1A 1751   6.108  15.894   9.163 -0.1912  0.0901  0.1868
  110loPI   C2A 1752   6.159  15.953   8.750 -0.1406 -0.1404 -0.0195
  110loPI   C3A 1753   6.392  15.854   8.432  0.1966 -0.1754 -0.1801
  110loPI   C4A 1754   6.747  16.023   8.210  0.0527  0.0001 -0.1778
  110loPI   C5A 1755   7.159  16.045   7.967 -0.1034 -0.1430 -0.2890
  110loPI   C6A 1756   7.431  15.681   7.916 -0.3976  0.1417  0.0364
  110loPI   C1B 1757   5.854  15.468   9.106  0.0200  0.0426  0.3654
  110loPI   C2B 1758   5.807  15.600   8.738 -0.1749  0.0851  0.1759
  110loPI   C3B 1759   6.006  15.581   8.281 -0.0930  0.1598 -0.1893
  110loPI   C4B 1760   5.773  15.550   7.903 -0.0234  0.1703  0.0619
  111loPI    C1 1761   5.254   9.837  10.195  0.0060 -0.0219  0.1392
  111loPI    C2 1762   5.003   9.715  10.482  0.0311  0.0356  0.1858
  111loPI    C3 1763   5.352   9.527  10.428  0.0004 -0.0125  0.1541
  111loPI   PO4 1764   5.114  10.015  10.048 -0.0485 -0.1656  0.3267
  111loPI   GL1 1765   5.212  10.034   9.666  0.1578 -0.0822 -0.0439
  111loPI   GL2 1766   5.530  10.069   9.475 -0.0723 -0.2206  0.3139
  111loPI   C1A 1767   5.178   9.987   9.188  0.1351  0.5852 -0.0049
  111loPI   C2A 1768   5.209   9.947   8.803  0.1066  0.0841 -0.2216
  111loPI   C3A 1769   5.285  10.005   8.411 -0.1033 -0.1192 -0.1404
  111loPI   C4A 1770   5.189   9.881   8.061 -0.0651 -0.0919 -0.1596
  111loPI   C5A 1771   5.475  10.037   7.821 -0.1039  0.0788 -0.0432
  111loPI   C6A 1772   5.627  10.364   7.543  0.2812 -0.2806  0.0180
  111loPI   C1B 1773   5.642  10.131   9.087 -0.1468  0.0356  0.0632
  111loPI   C2B 1774   5.726  10.118   8.640  0.0674 -0.1204 -0.4461
  111loPI   C3B 1775   5.823  10.188   8.266 -0.0496  0.0644  0.0454
  111loPI   C4B 1776   6.006  10.281   7.974  0.0810  0.1697 -0.0204
  112loPI    C1 1777   4.736   2.225  10.499  0.0113  0.0960 -0.0760
  112loPI    C2 1778   4.664   1.998  10.820 -0.2078  0.1522 -0.0842
  112loPI    C3 1779   4.968   2.258  10.824  0.0511 -0.1449 -0.0783
  112loPI   PO4 1780   4.702   2.071  10.185 -0.0079 -0.2263  0.2439
  112loPI   GL1 1781   4.596   2.143   9.700  0.1862  0.0286  0.0226
  112loPI   GL2 1782   4.629   1.876   9.699  0.0481 -0.1426 -0.0533
  112loPI   C1A 1783   4.552   2.421   9.313 -0.1590  0.0855 -0.2327
  112loPI   C2A 1784   4.656   2.497   8.953 -0.1009 -0.2070  0.1765
  112loPI   C3A 1785   4.641   2.544   8.505 -0.0283  0.1389 -0.1152
  112loPI   C4A 1786   4.528   2.499   8.153 -0.0374 -0.0532 -0.0478
  112loPI   C5A 1787   4.417   2.707   7.849 -0.1274 -0.2293 -0.1505
  112loPI   C6A 1788   3.949   2.596   7.655  0.3545  0.0440  0.1673
  112loPI   C1B 1789   4.724   1.881   9.236  0.1866  0.1794  0.0050
  112loPI   C2B 1790   4.763   1.993   8.734  0.0838  0.0295  0.1368
  112loPI   C3B 1791   4.759   2.070   8.325 -0.1154  0.1897  0.2272
  112loPI   C4B 1792   4.736   2.105   7.875  0.1131 -0.2591 -0.0378
  113loPI    C1 1793   0.639  13.705  10.240  0.0548 -0.0957  0.0253
  113loPI    C2 1794   0.435  13.622  10.574 -0.0045  0.2858  0.0883
  113loPI    C3 1795   0.820  13.730  10.595  0.0360  0.1577  0.0185
  113loPI   PO4 1796   0.472  13.861  10.058  0.3871  0.0261  0.0647
  113loPI   GL1 1797   0.297  13.681   9.646 -0.0602  0.2414  0.0741
  113loPI   GL2 1798   0.186  13.477   9.597 -0.1730 -0.0978 -0.4035
  113loPI   C1A 1799   0.437  13.998   9.254  0.0978  0.0402 -0.0355
  113loPI   C2A 1800   0.456  13.963   8.895  0.2904  0.0108 -0.0123
  113loPI   C3A 1801   0.294  14.030   8.538 -0.0199 -0.0867 -0.0978
  113loPI   C4A 1802   0.336  13.923   8.199 -0.1102  0.2055 -0.1728
  113loPI   C5A 1803   0.364  13.791   7.760  0.0805  0.0426  0.0056
  113loPI   C6A 1804   0.297  13.612   7.416  0.0317 -0.0310 -0.0942
  113loPI   C1B 1805   0.315  13.503   9.153 -0.1142  0.3004  0.0272
  113loPI   C2B 1806   0.251  13.450   8.726 -0.1069  0.1740  0.1863
  113loPI   C3B 1807   0.215  13.419   8.288  0.1786  0.1689 -0.0023
  113loPI   C4B 1808   0.273  13.369   7.912  0.2481  0.3661 -0.0728
  114loPI    C1 1809   3.852   1.823  10.410 -0.0623  0.1278 -0.2312
  114loPI    C2 1810   3.757   1.953  10.776 -0.0216  0.2008 -0.2464
  114loPI    C3 1811   4.084   1.729  10.722 -0.0317  0.1838 -0.2369
  114loPI   PO4 1812   3.838   2.035  10.220 -0.0374 -0.0842  0.0631
  114loPI   GL1 1813   3.730   1.943   9.811 -0.0455  0.0041 -0.1841
  114loPI   GL2 1814   4.120   1.985   9.757  0.1100 -0.2061 -0.0338
  114loPI   C1A 1815   3.830   1.685   9.528  0.4249 -0.0099 -0.0643
  114loPI   C2A 1816   3.766   1.777   9.017  0.0937 -0.1244  0.0498
  114loPI   C3A 1817   3.812   1.859   8.580 -0.0451  0.0740  0.4261
  114loPI   C4A 1818   3.816   1.857   8.158 -0.2567  0.0053  0.1439
  114loPI   C5A 1819   3.673   2.139   7.839 -0.0215 -0.1965  0.0269
  114loPI   C6A 1820   3.449   2.343   7.582  0.0299  0.1033 -0.0478
  114loPI   C1B 1821   4.201   2.028   9.303 -0.0416 -0.0395  0.1400
  114loPI   C2B 1822   4.211   2.057   8.865 -0.1984  0.0244 -0.1699
  114loPI   C3B 1823   4.276   2.163   8.376  0.0140 -0.1251 -0.0249
  114loPI   C4B 1824   4.204   2.212   7.916 -0.0891 -0.3804  0.0047
  115loPI    C1 1825   4.817  14.717  10.376  0.0813 -0.1908  0.2882
  115loPI    C2 1826   4.431  14.797  10.307  0.2049  0.2720  0.0949
  115loPI    C3 1827   4.584  14.848  10.673  0.0168 -0.2198  0.2506
  115loPI   PO4 1828   4.888  14.797  10.088 -0.1026 -0.4026 -0.2283
  115loPI   GL1 1829   4.870  14.957   9.691 -0.0665  0.4633 -0.1414
  115loPI   GL2 1830   4.588  14.802   9.690  0.1302  0.2520  0.1666
  115loPI   C1A 1831   4.966  15.039   9.223  0.0029 -0.3388 -0.0478
  115loPI   C2A 1832   5.186  15.023   8.971  0.1879  0.0176 -0.0191
  115loPI   C3A 1833   5.078  15.049   8.498 -0.0002 -0.2536 -0.1356
  115loPI   C4A 1834   5.024  14.816   8.162 -0.4538 -0.0634 -0.0351
  115loPI   C5A 1835   5.068  14.804   7.767  0.1819  0.0014 -0.1433
  115loPI   C6A 1836   5.245  14.860   7.333  0.1648 -0.0055 -0.0490
  115loPI   C1B 1837   4.586  14.790   9.180  0.1820 -0.0809  0.0999
  115loPI   C2B 1838   4.745  14.723   8.721  0.1093  0.0684 -0.0532
  115loPI   C3B 1839   5.004  14.469   8.543  0.0115 -0.0997 -0.1095
  115loPI   C4B 1840   5.271  14.170   8.317 -0.3253 -0.0263  0.3081
  116loPI    C1 1841   4.018  18.588  10.101 -0.3842  0.0717 -0.1450
  116loPI    C2 1842   3.819  18.381  10.380 -0.2662  0.1058 -0.0345
  116loPI    C3 1843   4.027  18.706  10.483 -0.0405 -0.0072 -0.1258
  116loPI   PO4 1844   3.829  18.653   9.934 -0.2862  0.1611 -0.1166
  116loPI   GL1 1845   3.687  18.347   9.579  0.0742 -0.2143  0.2855
  116loPI   GL2 1846   3.975  18.101   9.537 -0.0129  0.3408  0.1646
  116loPI   C1A 1847   3.697  18.320   9.063 -0.0785  0.0344 -0.1179
  116loPI   C2A 1848   3.842  18.324   8.664 -0.1515 -0.1262  0.0052
  116loPI   C3A 1849   3.809  18.365   8.260  0.3240  0.1035 -0.1446
  116loPI   C4A 1850   4.063  18.263   7.942  0.0492 -0.3572  0.4076
  116loPI   C5A 1851   4.192  18.393   7.633 -0.3176  0.1445 -0.2393
  116loPI   C6A 1852   4.301  18.175   7.250 -0.1521 -0.1788  0.1132
  116loPI   C1B 1853   4.231  18.122   9.151  0.0848  0.1954 -0.5161
  116loPI   C2B 1854   4.354  18.027   8.689  0.2511 -0.4831 -0.0700
  116loPI   C3B 1855   4.378  18.167   8.288  0.3132 -0.0646 -0.1410
  116loPI   C4B 1856   4.565  17.973   7.975  0.4075  0.0717 -0.0534
  117loPI    C1 1857  17.196   9.395  10.481  0.1955 -0.0734  0.0796
  117loPI    C2 1858  17.098   9.013  10.550  0.4615 -0.1767 -0.0973
  117loPI    C3 1859  17.203   9.251  10.854 -0.0092 -0.1523  0.0545
  117loPI   PO4 1860  17.324   9.391  10.323  0.1050 -0.2967 -0.0361
  117loPI   GL1 1861  17.348   9.508   9.961 -0.1052  0.2312  0.0813
  117loPI   GL2 1862  17.456   9.828  10.001 -0.0561 -0.2841  0.0482
  117loPI   C1A 1863  17.690   9.424   9.656  0.1248  0.1081  0.2298
  117loPI   C2A 1864  17.664   9.539   9.126  0.0825 -0.0655 -0.1099
  117loPI   C3A 1865  17.610   9.581   8.673  0.0402 -0.3161  0.1225
  117loPI   C4A 1866  17.516   9.718   8.242  0.1954  0.0703 -0.1725
  117loPI   C5A 1867  17.552   9.771   7.741  0.2835  0.0218 -0.1443
  117loPI   C6A 1868  17.615   9.946   7.429 -0.2060 -0.3487 -0.2208
  117loPI   C1B 1869  17.286   9.734   9.569  0.1600 -0.1077 -0.1957
  117loPI   C2B 1870  17.274   9.910   9.111 -0.0082  0.0264 -0.1136
  117loPI   C3B 1871  17.182   9.864   8.634  0.1189  0.1518 -0.1145
  117loPI   C4B 1872  17.150  10.051   8.120 -0.2737 -0.3034 -0.1394
  118loPI    C1 1873   8.298   7.424  10.531  0.1240  0.1854 -0.0368
  118loPI    C2 1874   8.582   7.247  10.749 -0.1666 -0.2166  0.0258
  118loPI    C3 1875   8.208   7.269  10.888 -0.2154  0.1175 -0.1484
  118loPI   PO4 1876   8.455   7.397  10.276 -0.4368 -0.1602  0.0664
  118loPI   GL1 1877   8.503   7.105   9.953 -0.0413 -0.2763  0.1029
  118loPI   GL2 1878   8.792   7.117   9.875  0.1761  0.1827  0.1094
  118loPI   C1A 1879   8.387   6.914   9.493 -0.1043  0.1639 -0.0301
  118loPI   C2A 1880   8.347   6.601   9.303  0.0335  0.1075  0.0106
  118loPI   C3A 1881   8.387   6.432   8.854  0.1470  0.0479 -0.0508
  118loPI   C4A 1882   8.377   6.372   8.386  0.1920 -0.0417  0.2815
  118loPI   C5A 1883   8.425   6.294   7.979  0.0418  0.1572 -0.0688
  118loPI   C6A 1884   8.568   6.014   7.640  0.1691 -0.1424 -0.2130
  118loPI   C1B 1885   8.942   6.918   9.559 -0.1816 -0.0704  0.2941
  118loPI   C2B 1886   8.812   6.852   9.218 -0.1438  0.1921  0.0494
  118loPI   C3B 1887   8.689   6.829   8.829 -0.2090  0.2344  0.0564
  118loPI   C4B 1888   8.651   6.764   8.387  0.1156 -0.6036 -0.1511
  119loPI    C1 1889  15.747  10.734  10.337  0.0918 -0.2823 -0.3816
  119loPI    C2 1890  15.614  10.360  10.384  0.0568 -0.2212  0.0461
  119loPI    C3 1891  15.751  10.565  10.699 -0.1048  0.1955 -0.1468
  119loPI   PO4 1892  15.818  10.745  10.141 -0.1219 -0.1043  0.1957
  119loPI   GL1 1893  15.707  10.515   9.844 -0.1319  0.1810  0.1648
  119loPI   GL2 1894  15.381  10.520   9.988 -0.1340 -0.0878  0.1919
  119loPI   C1A 1895  15.770  10.390   9.495 -0.1790  0.2149 -0.3536
  119loPI   C2A 1896  15.849  10.356   9.108  0.2156  0.0166  0.2368
  119loPI   C3A 1897  15.828  10.318   8.701 -0.1251  0.0120  0.0314
  119loPI   C4A 1898  15.861  10.382   8.293 -0.2784 -0.1069  0.0793
  119loPI   C5A 1899  15.995  10.284   7.860  0.1865  0.1461 -0.4589
  119loPI   C6A 1900  16.369  10.110   7.740  0.2919  0.1910 -0.2246
  119loPI   C1B 1901  15.285  10.304   9.645 -0.0205 -0.1626 -0.1872
  119loPI   C2B 1902  15.295  10.219   9.279  0.1683 -0.2958  0.3460
  119loPI   C3B 1903  15.393  10.160   8.817 -0.0584 -0.0708 -0.0969
  119loPI   C4B 1904  15.351  10.214   8.392 -0.3762  0.3985  0.1704
  120loPI    C1 1905  17.071  14.246  10.289  0.0142  0.3122 -0.2581
  120loPI    C2 1906  16.903  13.893  10.207 -0.1471  0.3265 -0.0012
  120loPI    C3 1907  17.256  13.908  10.395 -0.1184  0.3023 -0.0530
  120loPI   PO4 1908  17.098  14.455  10.064 -0.1368 -0.1178 -0.1403
  120loPI   GL1 1909  16.982  14.381   9.660  0.1897 -0.2278  0.0089
  120loPI   GL2 1910  17.070  14.002   9.710  0.2988 -0.0598 -0.1544
  120loPI   C1A 1911  16.661  14.284   9.416  0.2521  0.2728  0.4907
  120loPI   C2A 1912  16.553  13.924   9.077 -0.0971  0.0940  0.0896
  120loPI   C3A 1913  16.458  13.916   8.579  0.3263  0.1478  0.0505
  120loPI   C4A 1914  16.437  13.852   8.200 -0.0599  0.3132  0.2420
  120loPI   C5A 1915  16.287  13.797   7.832 -0.1325 -0.0201 -0.1567
  120loPI   C6A 1916  16.185  13.948   7.409 -0.2073  0.2625  0.1034
  120loPI   C1B 1917  17.038  14.115   9.185 -0.1558 -0.1239 -0.0110
  120loPI   C2B 1918  16.864  14.189   8.731  0.2989  0.2024  0.1374
  120loPI   C3B 1919  16.882  14.096   8.293 -0.0296  0.0011  0.0853
  120loPI   C4B 1920  16.791  13.921   7.878  0.0239  0.2524 -0.0864
  121loPI    C1 1921  16.509  13.115  10.318  0.1533  0.1256  0.0267
  121loPI    C2 1922  16.649  13.419  10.098 -0.0235  0.1559 -0.0459
  121loPI    C3 1923  16.737  13.396  10.488 -0.0480  0.3267 -0.0295
  121loPI   PO4 1924  16.592  12.947  10.223  0.3605 -0.0868 -0.0099
  121loPI   GL1 1925  16.549  12.762   9.835 -0.0580  0.2075  0.0763
  121loPI   GL2 1926  16.851  13.055   9.778 -0.1918  0.1796  0.0890
  121loPI   C1A 1927  16.883  12.657   9.514 -0.3544  0.1901 -0.1475
  121loPI   C2A 1928  17.071  12.350   9.190  0.0941 -0.1913 -0.0886
  121loPI   C3A 1929  17.139  12.169   8.796  0.0419 -0.1851  0.0397
  121loPI   C4A 1930  17.042  12.261   8.315  0.1893 -0.0884 -0.3313
  121loPI   C5A 1931  17.038  12.139   7.858 -0.2978  0.1832 -0.2387
  121loPI   C6A 1932  16.943  12.361   7.486  0.1840 -0.2323 -0.0984
  121loPI   C1B 1933  16.944  13.187   9.383  0.0928  0.0946  0.0816
  121loPI   C2B 1934  16.808  13.257   9.070  0.3824  0.0625 -0.1065
  121loPI   C3B 1935  16.807  13.126   8.584 -0.4139  0.1758 -0.0127
  121loPI   C4B 1936  16.621  12.944   8.292 -0.3433  0.1343 -0.0874
  122loPI    C1 1937  12.407   7.215  10.142 -0.1029  0.2856  0.2122
  122loPI    C2 1938  12.110   6.967  10.042 -0.0302  0.2363  0.1166
  122loPI    C3 1939  12.142   7.098  10.418 -0.0572  0.0845  0.1727
  122loPI   PO4 1940  12.407   7.462   9.977  0.0845 -0.0853  0.4168
  122loPI   GL1 1941  12.091   7.460   9.675  0.2365  0.1352 -0.0464
  122loPI   GL2 1942  12.024   7.735   9.715 -0.3019 -0.1545 -0.0797
  122loPI   C1A 1943  12.011   7.325   9.342  0.2904  0.0053  0.0211
  122loPI   C2A 1944  12.192   7.433   8.978 -0.1032  0.0442 -0.4425
  122loPI   C3A 1945  12.172   7.279   8.569  0.4731 -0.0091 -0.0236
  122loPI   C4A 1946  12.104   7.387   8.165 -0.0361 -0.0569  0.2140
  122loPI   C5A 1947  11.891   7.415   7.775  0.0423  0.1544  0.1566
  122loPI   C6A 1948  11.843   7.270   7.374 -0.0655  0.2622  0.1619
  122loPI   C1B 1949  12.212   7.823   9.305 -0.0696 -0.0894  0.2859
  122loPI   C2B 1950  12.203   7.938   8.921 -0.3213 -0.0189  0.2665
  122loPI   C3B 1951  12.270   7.924   8.487 -0.1335 -0.1341 -0.1303
  122loPI   C4B 1952  12.295   7.885   8.080 -0.6045  0.1662 -0.3180
  123loPI    C1 1953   3.344  14.315  10.421  0.0163  0.0704  0.0383
  123loPI    C2 1954   3.693  14.161  10.543  0.0137  0.0217 -0.0155
  123loPI    C3 1955   3.615  14.549  10.601  0.1893  0.0942 -0.2461
  123loPI   PO4 1956   3.195  14.226  10.142 -0.2130  0.1211 -0.2771
  123loPI   GL1 1957   3.172  14.361   9.813 -0.1301 -0.1461 -0.1305
  123loPI   GL2 1958   2.913  14.195   9.678  0.0470 -0.2068  0.0801
  123loPI   C1A 1959   3.302  14.533   9.430 -0.0297 -0.0932  0.1913
  123loPI   C2A 1960   3.270  14.508   9.031  0.0013 -0.2085  0.1772
  123loPI   C3A 1961   3.208  14.411   8.556  0.0935 -0.2823 -0.2311
  123loPI   C4A 1962   3.334  14.296   8.216 -0.2011  0.2285  0.0926
  123loPI   C5A 1963   3.189  14.571   7.895 -0.0831 -0.4762 -0.2190
  123loPI   C6A 1964   3.141  14.571   7.468 -0.2807  0.0703  0.1316
  123loPI   C1B 1965   3.110  14.122   9.332  0.0935 -0.1864 -0.0834
  123loPI   C2B 1966   3.073  14.038   8.845 -0.0255  0.0198  0.2117
  123loPI   C3B 1967   3.061  13.932   8.411  0.0642  0.1976 -0.0835
  123loPI   C4B 1968   2.982  14.001   7.969  0.0819 -0.1947 -0.0117
  124loPI    C1 1969   7.941   8.117  10.211  0.2249  0.1804  0.0059
  124loPI    C2 1970   8.097   7.941  10.534 -0.0641 -0.0310  0.0348
  124loPI    C3 1971   8.252   7.868  10.173  0.0455 -0.0605  0.0873
  124loPI   PO4 1972   7.685   7.998  10.120  0.0330 -0.0856 -0.0215
  124loPI   GL1 1973   7.719   7.749   9.833 -0.0875  0.1827  0.3052
  124loPI   GL2 1974   7.967   7.759   9.815 -0.2066  0.0981 -0.2362
  124loPI   C1A 1975   7.750   7.750   9.399  0.1257 -0.0531  0.0653
  124loPI   C2A 1976   7.905   7.675   9.041  0.3263 -0.1873  0.2500
  124loPI   C3A 1977   8.141   7.434   8.717 -0.2367  0.1606  0.0954
  124loPI   C4A 1978   8.073   7.227   8.269  0.0244 -0.1772 -0.0811
  124loPI   C5A 1979   8.241   6.866   8.148 -0.1039 -0.0519  0.2304
  124loPI   C6A 1980   8.479   6.815   7.890 -0.0109 -0.1001  0.3236
  124loPI   C1B 1981   8.241   7.983   9.343  0.1412  0.1793 -0.0650
  124loPI   C2B 1982   8.356   7.844   8.939  0.1656  0.0852  0.4221
  124loPI   C3B 1983   8.637   7.716   8.724  0.1071  0.0423 -0.1015
  124loPI   C4B 1984   8.934   7.580   8.465 -0.3067 -0.3753  0.0734
  125loPI    C1 1985   6.513   8.256  10.131  0.2591  0.0696 -0.0558
  125loPI    C2 1986   6.456   8.649  10.178 -0.1204  0.0398 -0.2293
  125loPI    C3 1987   6.330   8.394  10.460  0.0546  0.0353 -0.1537
  125loPI   PO4 1988   6.379   8.111   9.937 -0.1601  0.1406 -0.0638
  125loPI   GL1 1989   6.085   7.951   9.756  0.3299 -0.0167  0.0530
  125loPI   GL2 1990   5.744   8.096   9.821 -0.1638 -0.0657  0.1664
  125loPI   C1A 1991   6.079   8.160   9.252 -0.1128 -0.1402 -0.1992
  125loPI   C2A 1992   5.859   8.148   8.795  0.0350 -0.0568  0.2587
  125loPI   C3A 1993   5.791   8.403   8.369  0.0809  0.3815 -0.1068
  125loPI   C4A 1994   5.667   8.180   8.022  0.0421  0.1644  0.4223
  125loPI   C5A 1995   5.488   7.825   7.811  0.1090 -0.3763  0.0365
  125loPI   C6A 1996   5.489   7.659   7.345  0.1077 -0.2303 -0.0481
  125loPI   C1B 1997   5.609   8.234   9.411  0.1339  0.2653 -0.2947
  125loPI   C2B 1998   5.626   8.509   9.095 -0.1042  0.0833 -0.0210
  125loPI   C3B 1999   6.018   8.718   8.728 -0.0504 -0.1095 -0.1346
  125loPI   C4B 2000   6.048   8.816   8.266 -0.1178  0.3131 -0.2182
  126loPI    C1 2001   4.689   9.715  10.097  0.2806 -0.1059 -0.0115
  126loPI    C2 2002   4.418   9.634  10.380  0.1311  0.0474 -0.1083
  126loPI    C3 2003   4.376   9.959  10.150  0.2492 -0.0769 -0.3091
  126loPI   PO4 2004   4.705   9.395   9.887 -0.2411 -0.1766  0.0093
  126loPI   GL1 2005   4.947   9.477   9.564  0.2956  0.0900  0.1933
  126loPI   GL2 2006   4.723   9.712   9.537  0.3631 -0.2725  0.3287
  126loPI   C1A 2007   4.632   9.264   9.263 -0.0923 -0.1300  0.0170
  126loPI   C2A 2008   4.509   9.362   8.806  0.1696  0.0885 -0.0734
  126loPI   C3A 2009   4.654   9.318   8.364 -0.1287  0.1432 -0.0629
  126loPI   C4A 2010   4.833   9.414   7.973  0.1562 -0.0744  0.5571
  126loPI   C5A 2011   5.074   9.197   7.668  0.0130  0.2430 -0.0310
  126loPI   C6A 2012   5.254   8.936   7.370 -0.0711 -0.3185 -0.1806
  126loPI   C1B 2013   4.684   9.794   9.102 -0.2608  0.0169  0.2050
  126loPI   C2B 2014   4.724   9.879   8.630  0.3684  0.2111  0.0304
  126loPI   C3B 2015   4.713   9.806   8.294  0.0688 -0.0702 -0.0608
  126loPI   C4B 2016   4.591   9.863   7.930  0.1406  0.0703 -0.3220
  127loPI    C1 2017   4.666  13.399  10.560  0.2407 -0.0864 -0.0717
  127loPI    C2 2018   4.652  13.761  10.730 -0.0177  0.0000 -0.2707
  127loPI    C3 2019   4.708  13.436  10.957 -0.1800  0.1290 -0.0421
  127loPI   PO4 2020   4.415  13.438  10.402 -0.2004  0.0893 -0.2579
  127loPI   GL1 2021   4.296  13.313   9.915 -0.3156 -0.0453  0.0612
  127loPI   GL2 2022   4.076  13.353  10.065 -0.0108  0.1884  0.1857
  127loPI   C1A 2023   4.484  13.513   9.525  0.1989 -0.1569  0.1919
  127loPI   C2A 2024   4.416  13.484   9.054 -0.1024 -0.2766  0.0872
  127loPI   C3A 2025   4.585  13.555   8.589 -0.0012 -0.1620  0.0800
  127loPI   C4A 2026   4.616  13.421   8.258  0.1475 -0.1658  0.2739
  127loPI   C5A 2027   4.773  13.329   7.846 -0.2379  0.4518 -0.1087
  127loPI   C6A 2028   5.146  13.223   7.792  0.1942  0.0432  0.2349
  127loPI   C1B 2029   3.877  13.443   9.639 -0.4443  0.1340 -0.3169
  127loPI   C2B 2030   3.909  13.383   9.236 -0.0324 -0.0569  0.0015
  127loPI   C3B 2031   3.920  13.305   8.850  0.2192  0.1569 -0.1069
  127loPI   C4B 2032   4.128  13.356   8.470 -0.0450  0.2838  0.1713
  128loPI    C1 2033   0.078  10.916  10.704 -0.2813  0.3312 -0.2394
  128loPI    C2 2034  -0.293  10.788  10.626 -0.1775 -0.1383  0.0015
  128loPI    C3 2035  -0.062  10.586  10.882  0.1492  0.3082  0.0701
  128loPI   PO4 2036   0.188  10.962  10.385 -0.0065 -0.1136  0.1892
  128loPI   GL1 2037   0.067  10.987   9.933 -0.0101  0.2335  0.0628
  128loPI   GL2 2038  -0.119  11.194  10.013 -0.2625 -0.0607 -0.1240
  128loPI   C1A 2039  -0.093  11.006   9.563 -0.2303  0.0822  0.1395
  128loPI   C2A 2040  -0.185  10.961   9.112 -0.2023 -0.0085 -0.2238
  128loPI   C3A 2041  -0.094  10.873   8.772  0.0855  0.0559  0.3602
  128loPI   C4A 2042  -0.178  10.920   8.314  0.1347 -0.0629  0.0693
  128loPI   C5A 2043  -0.426  10.668   8.194 -0.0029  0.0459 -0.0761
  128loPI   C6A 2044  -0.777  10.493   7.999 -0.0974  0.1684  0.2060
  128loPI   C1B 2045  -0.474  10.810   9.819 -0.1255  0.1689 -0.1720
  128loPI   C2B 2046  -0.682  10.737   9.411 -0.1555 -0.1528 -0.0686
  128loPI   C3B 2047  -0.757  10.707   8.928 -0.2865 -0.2232  0.0273
  128loPI   C4B 2048  -0.597  10.616   8.602  0.0779 -0.0181  0.0016
  129loPI    C1 2049  11.848   1.118  10.502 -0.0332  0.0459 -0.0759
  129loPI    C2 2050  12.115   0.841  10.613 -0.0091  0.0605 -0.0976
  129loPI    C3 2051  12.240   1.196  10.477 -0.0407  0.1026 -0.0180
  129loPI   PO4 2052  11.677   1.006  10.368 -0.1224 -0.1327 -0.0931
  129loPI   GL1 2053  11.558   1.134   9.970 -0.3369  0.1412 -0.0368
  129loPI   GL2 2054  11.349   1.273   9.800  0.2258  0.1565  0.1661
  129loPI   C1A 2055  11.450   0.854   9.541  0.0579  0.0014 -0.0981
  129loPI   C2A 2056  11.506   0.858   9.145  0.2411 -0.2429  0.2001
  129loPI   C3A 2057  11.509   0.808   8.756  0.3896 -0.0087  0.2205
  129loPI   C4A 2058  11.594   0.877   8.270 -0.0898 -0.0938  0.0001
  129loPI   C5A 2059  11.602   0.999   7.884 -0.1535 -0.3263  0.1528
  129loPI   C6A 2060  11.817   1.134   7.640 -0.1563 -0.3807  0.1730
  129loPI   C1B 2061  11.332   1.349   9.330  0.0892  0.1490  0.1945
  129loPI   C2B 2062  11.407   1.352   8.845  0.1219  0.0803 -0.1768
  129loPI   C3B 2063  11.520   1.440   8.402  0.2516  0.1050  0.1944
  129loPI   C4B 2064  11.437   1.503   7.974  0.1598  0.2746 -0.2298
  130loPI    C1 2065   3.684  13.238  10.397 -0.1097 -0.1640  0.1800
  130loPI    C2 2066   3.639  13.358  10.776 -0.1169 -0.0323  0.1380
  130loPI    C3 2067   4.003  13.268  10.637 -0.0882  0.1057  0.1215
  130loPI   PO4 2068   3.551  13.381  10.209 -0.2736  0.1312 -0.1006
  130loPI   GL1 2069   3.397  13.505   9.802 -0.3070 -0.0099 -0.0601
  130loPI   GL2 2070   3.209  13.799   9.783  0.0316  0.0319 -0.0218
  130loPI   C1A 2071   3.436  13.259   9.503 -0.1187 -0.1629  0.1043
  130loPI   C2A 2072   3.440  13.313   9.062 -0.1242  0.0526 -0.3244
  130loPI   C3A 2073   3.335  13.115   8.678  0.1215  0.0443  0.1092
  130loPI   C4A 2074   3.451  13.073   8.266 -0.0538  0.3399  0.0270
  130loPI   C5A 2075   3.687  12.933   7.862 -0.1239  0.2534  0.4370
  130loPI   C6A 2076   3.532  12.642   7.467  0.1852 -0.3286  0.5322
  130loPI   C1B 2077   3.048  13.544   9.405 -0.1571  0.1783 -0.0706
  130loPI   C2B 2078   2.947  13.536   8.971  0.1872  0.2167  0.1332
  130loPI   C3B 2079   3.002  13.447   8.575  0.1497  0.2786  0.2570
  130loPI   C4B 2080   3.106  13.406   8.141 -0.0917  0.0474  0.1416
  131loPI    C1 2081  14.789   9.706  10.432  0.1878 -0.1787  0.1836
  131loPI    C2 2082  14.875  10.080  10.544  0.1959 -0.0539 -0.2225
  131loPI    C3 2083  15.060   9.771  10.719  0.1874  0.1289  0.1172
  131loPI   PO4 2084  14.715   9.704  10.192  0.1563  0.2001 -0.1973
  131loPI   GL1 2085  14.671   9.662   9.718 -0.0091  0.2870  0.1411
  131loPI   GL2 2086  14.430   9.636   9.628 -0.1947  0.2927  0.0297
  131loPI   C1A 2087  14.709   9.524   9.225  0.0351  0.0545 -0.0349
  131loPI   C2A 2088  14.766   9.611   8.795  0.1589  0.0341 -0.1038
  131loPI   C3A 2089  14.770   9.514   8.346 -0.1718 -0.0997 -0.1805
  131loPI   C4A 2090  14.725   9.419   7.912  0.1298 -0.0494 -0.2092
  131loPI   C5A 2091  14.989   9.457   7.542  0.3318 -0.1275 -0.1039
  131loPI   C6A 2092  15.153   9.523   7.155  0.0308  0.2330  0.1606
  131loPI   C1B 2093  14.412   9.892   9.173 -0.0668 -0.0630 -0.0598
  131loPI   C2B 2094  14.319   9.862   8.734  0.0418 -0.1728  0.0595
  131loPI   C3B 2095  14.397   9.831   8.337  0.0164 -0.2279 -0.0705
  131loPI   C4B 2096  14.382   9.794   7.857  0.1491 -0.2753 -0.0697
  132loPI    C1 2097   4.088  16.553  10.013 -0.2908 -0.2435  0.2447
  132loPI    C2 2098   4.411  16.423  10.210  0.0445 -0.0041 -0.1324
  132loPI    C3 2099   4.202  16.733  10.352 -0.0302 -0.1669  0.1191
  132loPI   PO4 2100   4.186  16.617   9.767  0.1139  0.3657  0.1939
  132loPI   GL1 2101   4.341  16.921   9.430  0.1415 -0.0813  0.2440
  132loPI   GL2 2102   4.604  16.828   9.284  0.1136 -0.0479  0.1403
  132loPI   C1A 2103   4.181  16.921   8.978  0.0030 -0.1528 -0.2438
  132loPI   C2A 2104   3.878  16.961   8.645 -0.1716 -0.1156 -0.0397
  132loPI   C3A 2105   3.709  16.876   8.307  0.1976 -0.0067 -0.0646
  132loPI   C4A 2106   3.641  16.916   7.987  0.2078 -0.0171  0.1603
  132loPI   C5A 2107   3.464  16.827   7.551  0.1539 -0.0779 -0.2230
  132loPI   C6A 2108   3.180  16.595   7.357  0.1598 -0.1103 -0.0305
  132loPI   C1B 2109   4.871  17.169   9.106  0.1258  0.2377  0.0486
  132loPI   C2B 2110   4.822  17.347   8.759  0.0014  0.0346  0.0127
  132loPI   C3B 2111   4.788  17.315   8.375  0.1557  0.0642 -0.2005
  132loPI   C4B 2112   5.046  17.157   8.009 -0.1107 -0.1218 -0.3841
  133loPI    C1 2113  11.956   7.998  10.428 -0.0203  0.2545  0.0028
  133loPI    C2 2114  12.191   7.675  10.398 -0.1817  0.1255  0.1055
  133loPI    C3 2115  12.250   7.939  10.692 -0.1523  0.1042  0.1187
  133loPI   PO4 2116  11.855   7.959  10.184 -0.1763 -0.1838 -0.2374
  133loPI   GL1 2117  11.576   8.098   9.917 -0.0285 -0.0621 -0.1820
  133loPI   GL2 2118  11.246   8.218   9.948  0.3388  0.0090 -0.0465
  133loPI   C1A 2119  11.587   8.364   9.553 -0.0203  0.0504  0.1949
  133loPI   C2A 2120  11.814   8.191   9.178  0.4597  0.0363 -0.0709
  133loPI   C3A 2121  11.673   8.067   8.715 -0.1378  0.2402 -0.0179
  133loPI   C4A 2122  11.822   8.200   8.341  0.0727  0.3160 -0.0993
  133loPI   C5A 2123  12.130   8.398   8.012 -0.2097  0.0390 -0.0463
  133loPI   C6A 2124  12.558   8.246   7.819  0.0664  0.1840  0.2789
  133loPI   C1B 2125  11.187   8.059   9.512  0.1834 -0.1031 -0.1539
  133loPI   C2B 2126  11.333   7.994   9.086  0.1079 -0.0888  0.0749
  133loPI   C3B 2127  11.065   8.054   8.693  0.1907  0.0000 -0.1475
  133loPI   C4B 2128  10.535   8.051   8.687  0.1179  0.1342 -0.1773
  134loPI    C1 2129  13.301  12.542  10.360 -0.2731  0.1699  0.1268
  134loPI    C2 2130  13.498  12.885  10.415  0.0308  0.0346 -0.0888
  134loPI    C3 2131  13.381  12.669  10.730  0.2442  0.1086  0.0433
  134loPI   PO4 2132  13.451  12.516  10.058  0.0742 -0.0126 -0.2472
  134loPI   GL1 2133  13.754  12.526   9.627  0.2804 -0.2819 -0.2184
  134loPI   GL2 2134  13.603  12.187   9.558  0.0949 -0.1854  0.0118
  134loPI   C1A 2135  13.687  12.561   9.235 -0.1204  0.0923  0.2918
  134loPI   C2A 2136  13.453  12.390   8.886 -0.1456 -0.3950 -0.1167
  134loPI   C3A 2137  13.344  12.355   8.497  0.1186  0.0629  0.1996
  134loPI   C4A 2138  13.280  12.252   8.044 -0.3930 -0.2847 -0.0292
  134loPI   C5A 2139  13.165  12.317   7.572 -0.0378  0.0797 -0.1918
  134loPI   C6A 2140  12.770  12.327   7.356 -0.3772  0.0312 -0.0441
  134loPI   C1B 2141  13.662  12.037   9.172  0.0443 -0.0480 -0.0498
  134loPI   C2B 2142  13.802  12.043   8.764 -0.0268 -0.1416  0.0256
  134loPI   C3B 2143  13.952  11.990   8.340  0.0389 -0.1362 -0.0656
  134loPI   C4B 2144  13.817  11.766   7.961 -0.2051  0.1465 -0.3651
  135loPI    C1 2145  17.328  11.137  10.400  0.0691 -0.0930 -0.1762
  135loPI    C2 2146  17.043  11.149  10.680  0.0464 -0.0027 -0.2030
  135loPI    C3 2147  17.415  11.268  10.768 -0.0001  0.1860 -0.2565
  135loPI   PO4 2148  17.189  11.115  10.215 -0.1467 -0.0874 -0.1835
  135loPI   GL1 2149  17.061  11.407   9.923  0.2464  0.1549  0.0648
  135loPI   GL2 2150  16.926  11.723   9.960  0.1630 -0.2216  0.2225
  135loPI   C1A 2151  16.942  11.236   9.530 -0.1283 -0.1985  0.3158
  135loPI   C2A 2152  16.890  11.201   9.149 -0.0002  0.1425  0.0895
  135loPI   C3A 2153  16.827  11.188   8.752 -0.1021 -0.3678 -0.0913
  135loPI   C4A 2154  16.841  11.262   8.317  0.0192 -0.0377 -0.1858
  135loPI   C5A 2155  16.903  11.302   7.860  0.0750  0.0288 -0.1317
  135loPI   C6A 2156  16.826  10.940   7.564  0.1886  0.1260  0.0567
  135loPI   C1B 2157  16.985  11.784   9.502  0.0284 -0.2784 -0.0635
  135loPI   C2B 2158  17.013  11.822   9.087 -0.2580 -0.1982  0.0389
  135loPI   C3B 2159  17.028  11.714   8.663 -0.0532  0.0251  0.0199
  135loPI   C4B 2160  17.046  11.758   8.192 -0.1335 -0.3169  0.0463
  136loPI    C1 2161  13.274  17.462  10.227 -0.1015  0.1221  0.1271
  136loPI    C2 2162  13.426  17.241  10.523 -0.3599 -0.2665 -0.0236
  136loPI    C3 2163  13.163  17.531  10.605 -0.2034 -0.1730  0.1539
  136loPI   PO4 2164  13.241  17.392  10.014  0.4087 -0.2930  0.1131
  136loPI   GL1 2165  13.167  17.069   9.762 -0.2659 -0.0141 -0.0676
  136loPI   GL2 2166  13.256  16.822   9.627 -0.0782 -0.0530 -0.2473
  136loPI   C1A 2167  12.952  17.363   9.450 -0.3868 -0.2325  0.0217
  136loPI   C2A 2168  12.949  17.385   9.019  0.4571 -0.2375  0.0674
  136loPI   C3A 2169  12.952  17.429   8.603  0.2018 -0.0769  0.1642
  136loPI   C4A 2170  13.092  17.529   8.189 -0.0535 -0.2007  0.3142
  136loPI   C5A 2171  13.302  17.772   7.853  0.1414 -0.3955 -0.1558
  136loPI   C6A 2172  13.457  18.061   7.513  0.0578 -0.1408  0.0602
  136loPI   C1B 2173  13.079  16.876   9.173  0.2322 -0.1826  0.2026
  136loPI   C2B 2174  13.009  16.932   8.663 -0.2007 -0.2397 -0.1165
  136loPI   C3B 2175  13.132  16.898   8.257 -0.1476 -0.2922  0.0577
  136loPI   C4B 2176  13.289  16.837   7.854  0.2171 -0.1071 -0.3482
  137loPI    C1 2177   1.524  16.795   9.909 -0.0382 -0.0875  0.0687
  137loPI    C2 2178   1.711  16.442   9.895 -0.2943 -0.2252  0.0657
  137loPI    C3 2179   1.447  16.517  10.186 -0.2569 -0.0434  0.0538
  137loPI   PO4 2180   1.491  16.803   9.683  0.0329 -0.0573  0.0044
  137loPI   GL1 2181   1.259  16.939   9.271  0.1025  0.1263 -0.1413
  137loPI   GL2 2182   1.343  17.229   9.309 -0.0715 -0.0229 -0.2943
  137loPI   C1A 2183   1.140  16.838   8.802 -0.0622 -0.0338  0.0647
  137loPI   C2A 2184   1.124  16.766   8.444 -0.2360  0.1611  0.0098
  137loPI   C3A 2185   0.982  16.450   8.290 -0.3263  0.0026 -0.0455
  137loPI   C4A 2186   1.195  16.221   7.976 -0.3491 -0.0577 -0.2054
  137loPI   C5A 2187   1.355  15.983   7.600 -0.2527  0.0138 -0.1874
  137loPI   C6A 2188   1.609  15.587   7.545 -0.2803 -0.2117 -0.2569
  137loPI   C1B 2189   1.238  17.311   8.881  0.0490  0.1872  0.2400
  137loPI   C2B 2190   1.103  17.328   8.441  0.1415  0.4272 -0.3177
  137loPI   C3B 2191   0.958  17.077   8.054  0.2026 -0.1329 -0.1790
  137loPI   C4B 2192   1.045  16.685   7.870 -0.4881 -0.0743 -0.2539
  138loPI    C1 2193  13.778  16.830   9.965 -0.0360  0.0968 -0.1837
  138loPI    C2 2194  13.743  16.842  10.363  0.1414  0.0254 -0.1649
  138loPI    C3 2195  13.690  17.175  10.147  0.1166  0.0797 -0.0753
  138loPI   PO4 2196  13.719  16.601   9.871 -0.1135 -0.1585  0.1223
  138loPI   GL1 2197  13.548  16.414   9.599  0.1151 -0.3299 -0.1583
  138loPI   GL2 2198  13.883  16.216   9.575 -0.0626  0.0824  0.1666
  138loPI   C1A 2199  13.486  16.608   9.191  0.0203  0.0651  0.1926
  138loPI   C2A 2200  13.601  16.721   8.719  0.2454  0.0383  0.1022
  138loPI   C3A 2201  13.537  16.635   8.197 -0.1081  0.0758 -0.0619
  138loPI   C4A 2202  13.591  16.453   7.868  0.1968  0.0840  0.0222
  138loPI   C5A 2203  13.721  16.029   7.542 -0.0004  0.1460  0.0998
  138loPI   C6A 2204  14.019  15.654   7.590  0.1952  0.1906  0.0528
  138loPI   C1B 2205  14.025  16.157   9.113  0.1610  0.0845  0.0794
  138loPI   C2B 2206  14.082  16.308   8.674 -0.0847 -0.0032  0.1337
  138loPI   C3B 2207  13.982  16.400   8.188 -0.1549 -0.2155  0.1264
  138loPI   C4B 2208  14.105  16.431   7.689  0.2172 -0.2932  0.1247
  139loPI    C1 2209   3.073   6.184  10.079  0.1285  0.1285  0.0568
  139loPI    C2 2210   2.725   6.367  10.002  0.0105 -0.1784 -0.1576
  139loPI    C3 2211   2.957   6.497  10.301 -0.1291  0.2369 -0.2230
  139loPI   PO4 2212   3.178   6.182   9.869  0.0141  0.2758  0.1310
  139loPI   GL1 2213   3.068   6.010   9.566 -0.2305  0.0647  0.1542
  139loPI   GL2 2214   3.310   6.310   9.418 -0.0120 -0.1101  0.3641
  139loPI   C1A 2215   2.839   5.900   9.255 -0.1787  0.0011 -0.1968
  139loPI   C2A 2216   2.607   5.966   8.894  0.0937  0.0692 -0.0752
  139loPI   C3A 2217   2.498   5.988   8.529 -0.1000  0.2231 -0.1624
  139loPI   C4A 2218   2.714   6.180   8.144  0.0742 -0.1210 -0.0488
  139loPI   C5A 2219   3.065   6.486   8.308 -0.1583  0.0493  0.5450
  139loPI   C6A 2220   3.373   6.618   8.631 -0.1077 -0.0547  0.1691
  139loPI   C1B 2221   3.175   6.747   9.095  0.0125 -0.1695  0.0004
  139loPI   C2B 2222   3.029   6.994   8.763  0.1378 -0.0684 -0.2111
  139loPI   C3B 2223   3.255   6.993   8.384 -0.3032 -0.0291 -0.4000
  139loPI   C4B 2224   3.508   6.659   8.167 -0.0831  0.1679 -0.0341
  140loPI    C1 2225   1.185   0.793   9.762 -0.0393  0.1290 -0.0494
  140loPI    C2 2226   1.580   0.829   9.818 -0.0515  0.1310  0.0359
  140loPI    C3 2227   1.333   0.820  10.133 -0.1239  0.1808 -0.0192
  140loPI   PO4 2228   1.148   0.618   9.572 -0.0686  0.3034  0.1365
  140loPI   GL1 2229   0.937   0.357   9.305 -0.3590 -0.2203  0.2419
  140loPI   GL2 2230   1.164   0.171   9.256  0.1371  0.1099  0.0028
  140loPI   C1A 2231   0.907   0.742   8.965 -0.0606 -0.0357 -0.0397
  140loPI   C2A 2232   0.848   0.850   8.555 -0.0160  0.0595 -0.5170
  140loPI   C3A 2233   0.799   1.003   8.124 -0.3576 -0.0825 -0.3920
  140loPI   C4A 2234   0.689   1.192   7.693 -0.1553  0.1586 -0.2811
  140loPI   C5A 2235   0.340   1.328   7.423  0.3253  0.2681 -0.0812
  140loPI   C6A 2236   0.097   1.382   7.050 -0.2203  0.0744  0.3897
  140loPI   C1B 2237   0.908   0.261   8.820  0.1686 -0.1118  0.2165
  140loPI   C2B 2238   0.814   0.372   8.464 -0.1544  0.1937  0.5068
  140loPI   C3B 2239   0.969   0.533   8.041 -0.2359  0.0291 -0.0996
  140loPI   C4B 2240   1.046   0.766   7.610 -0.1748 -0.0709 -0.0198
  141loPI    C1 2241  11.255  13.948   9.747 -0.2583 -0.1622 -0.0666
  141loPI    C2 2242  11.162  13.821  10.115 -0.0892 -0.0053  0.0324
  141loPI    C3 2243  11.466  13.654   9.916 -0.1781 -0.0874 -0.0356
  141loPI   PO4 2244  11.060  13.943   9.644  0.0155 -0.1765 -0.2256
  141loPI   GL1 2245  10.950  13.938   9.270  0.0294 -0.3259 -0.3078
  141loPI   GL2 2246  10.885  13.622   9.267 -0.0138 -0.0848  0.1384
  141loPI   C1A 2247  10.876  14.019   8.878  0.1698  0.0449 -0.0459
  141loPI   C2A 2248  10.885  14.088   8.536 -0.2778 -0.0797 -0.4031
  141loPI   C3A 2249  10.698  13.773   8.333 -0.0622 -0.0777  0.2122
  141loPI   C4A 2250  10.648  13.388   8.138  0.0446  0.1058 -0.0219
  141loPI   C5A 2251  10.707  13.060   7.955 -0.0636  0.3012  0.1403
  141loPI   C6A 2252  10.615  12.692   7.752 -0.1415  0.1659  0.1837
  141loPI   C1B 2253  10.784  13.555   8.791  0.2140 -0.1751  0.0725
  141loPI   C2B 2254  10.965  13.264   8.496  0.1797  0.1339 -0.1523
  141loPI   C3B 2255  11.148  13.096   8.087 -0.0776  0.1317  0.0444
  141loPI   C4B 2256  11.106  13.008   7.615 -0.0972  0.3213 -0.2107
  142loPI    C1 2257   8.156  14.836  10.409  0.0823 -0.0430  0.1201
  142loPI    C2 2258   8.198  14.467  10.557  0.0501 -0.1298 -0.0843
  142loPI    C3 2259   7.975  14.736  10.751  0.0718 -0.2180  0.0641
  142loPI   PO4 2260   8.188  14.739  10.092 -0.0285  0.4141 -0.2394
  142loPI   GL1 2261   8.445  14.794   9.771 -0.2407 -0.0189 -0.3855
  142loPI   GL2 2262   8.320  14.482   9.700  0.0628 -0.0160 -0.1429
  142loPI   C1A 2263   8.379  14.937   9.354 -0.2509 -0.1653  0.1201
  142loPI   C2A 2264   8.205  14.953   8.920  0.0736 -0.3166  0.0851
  142loPI   C3A 2265   8.008  14.900   8.578  0.0018 -0.1127 -0.2153
  142loPI   C4A 2266   7.912  15.009   8.221 -0.1004 -0.2303 -0.0989
  142loPI   C5A 2267   7.993  15.213   7.872 -0.0152  0.2055  0.2249
  142loPI   C6A 2268   8.047  15.237   7.457 -0.0770 -0.0903 -0.0629
  142loPI   C1B 2269   8.163  14.102   9.547  0.0850  0.1027  0.0294
  142loPI   C2B 2270   7.952  14.060   9.168  0.1585  0.0956  0.2239
  142loPI   C3B 2271   7.675  13.980   8.847 -0.2703 -0.2323  0.1610
  142loPI   C4B 2272   7.772  13.856   8.462  0.0706  0.2737  0.1924
  143loPI    C1 2273  16.858   8.271   9.701 -0.0560 -0.0023  0.1782
  143loPI    C2 2274  16.993   8.526   9.979  0.1444 -0.0512  0.1276
  143loPI    C3 2275  16.822   8.181  10.089 -0.1201  0.0992  0.1962
  143loPI   PO4 2276  16.618   8.379   9.540  0.0122  0.1920  0.0951
  143loPI   GL1 2277  16.252   8.624   9.565  0.1320 -0.1697  0.2453
  143loPI   GL2 2278  16.523   8.848   9.392 -0.0706  0.2437 -0.2201
  143loPI   C1A 2279  15.998   8.583   9.178  0.2020 -0.3277 -0.1165
  143loPI   C2A 2280  16.031   8.447   8.805 -0.1122  0.1502  0.2711
  143loPI   C3A 2281  16.061   8.482   8.335 -0.0840  0.1529 -0.0742
  143loPI   C4A 2282  16.211   8.449   7.905 -0.2723  0.2053 -0.2197
  143loPI   C5A 2283  16.376   8.411   7.437 -0.2046 -0.2783 -0.0444
  143loPI   C6A 2284  16.601   8.598   7.149 -0.0711  0.0967  0.0807
  143loPI   C1B 2285  16.519   8.702   8.983  0.0935  0.0103  0.2195
  143loPI   C2B 2286  16.475   8.685   8.641  0.1222  0.2965  0.1244
  143loPI   C3B 2287  16.614   8.340   8.353  0.0470  0.4352  0.1754
  143loPI   C4B 2288  16.630   8.204   7.934 -0.0899  0.2229 -0.0580
  144loPI    C1 2289  13.672  16.120  10.044 -0.1589  0.0742 -0.0662
  144loPI    C2 2290  13.491  16.360  10.309  0.0311  0.0866  0.0543
  144loPI    C3 2291  13.645  16.010  10.428  0.2248  0.1471 -0.0140
  144loPI   PO4 2292  13.506  16.017   9.949 -0.1232 -0.0112  0.1421
  144loPI   GL1 2293  13.429  15.906   9.601  0.1614 -0.2131 -0.2801
  144loPI   GL2 2294  13.435  15.674   9.480  0.0902  0.4950 -0.2502
  144loPI   C1A 2295  13.560  16.104   9.229 -0.1210 -0.2241  0.2447
  144loPI   C2A 2296  13.624  16.261   8.864  0.0350 -0.0381  0.3568
  144loPI   C3A 2297  13.641  16.107   8.449  0.0204 -0.0698 -0.1807
  144loPI   C4A 2298  13.294  16.040   8.172  0.0616 -0.1348 -0.1429
  144loPI   C5A 2299  13.275  16.013   7.767  0.0038  0.0731  0.3017
  144loPI   C6A 2300  13.223  16.414   7.557 -0.0230 -0.0818 -0.2883
  144loPI   C1B 2301  13.409  15.579   9.118 -0.1547  0.0565 -0.1142
  144loPI   C2B 2302  13.170  15.298   8.997 -0.1667 -0.2545  0.1317
  144loPI   C3B 2303  13.008  15.057   8.529 -0.3566  0.0218  0.0009
  144loPI   C4B 2304  13.291  14.737   8.414  0.2421 -0.0007  0.0501
  145loPI    C1 2305  11.401   9.402  10.396  0.2132  0.0335 -0.0600
  145loPI    C2 2306  11.741   9.223  10.508  0.0472 -0.1697  0.1270
  145loPI    C3 2307  11.397   9.134  10.692 -0.1039  0.0573 -0.0392
  145loPI   PO4 2308  11.415   9.422  10.087  0.1357  0.3230 -0.0242
  145loPI   GL1 2309  11.772   9.467   9.733 -0.0502 -0.0666 -0.2662
  145loPI   GL2 2310  11.547   9.748   9.703 -0.0910  0.2802  0.2055
  145loPI   C1A 2311  11.988   9.563   9.378  0.0921  0.2068  0.0693
  145loPI   C2A 2312  12.189   9.907   9.163 -0.3301 -0.0514  0.0680
  145loPI   C3A 2313  12.164   9.990   8.799 -0.1478  0.0629  0.0679
  145loPI   C4A 2314  12.026   9.900   8.486 -0.1990 -0.0251  0.0589
  145loPI   C5A 2315  12.082  10.069   8.087 -0.0480  0.1812  0.1694
  145loPI   C6A 2316  11.974  10.378   7.792 -0.0729 -0.2075  0.2892
  145loPI   C1B 2317  11.548   9.387   9.299  0.1318  0.2962  0.0116
  145loPI   C2B 2318  11.699   9.533   8.840  0.1199 -0.2907  0.0146
  145loPI   C3B 2319  11.770   9.404   8.474  0.1124 -0.2824 -0.2521
  145loPI   C4B 2320  11.880   9.508   7.992 -0.1815 -0.3930  0.0857
  146loPI    C1 2321  16.927   2.379  10.280 -0.0130  0.0340  0.0958
  146loPI    C2 2322  16.820   2.056  10.491  0.3190 -0.1219  0.0326
  146loPI    C3 2323  17.013   2.357  10.670 -0.1282  0.1173  0.1261
  146loPI   PO4 2324  16.806   2.425  10.083  0.2441  0.0063 -0.2288
  146loPI   GL1 2325  16.700   2.220   9.749  0.2640 -0.0206 -0.0974
  146loPI   GL2 2326  16.422   2.119   9.867  0.4577 -0.3336 -0.0197
  146loPI   C1A 2327  16.368   2.220   9.429  0.0596  0.2073  0.2541
  146loPI   C2A 2328  16.257   2.220   8.982  0.1236  0.3916  0.0933
  146loPI   C3A 2329  16.265   2.187   8.539 -0.1164 -0.0972  0.1286
  146loPI   C4A 2330  16.106   2.271   8.081  0.0799  0.0339  0.0823
  146loPI   C5A 2331  16.196   2.338   7.715 -0.0837 -0.0011 -0.2293
  146loPI   C6A 2332  16.135   2.388   7.385  0.1710  0.1156  0.2123
  146loPI   C1B 2333  16.024   1.921   9.733 -0.1998 -0.1185  0.3700
  146loPI   C2B 2334  15.931   1.847   9.208  0.1099 -0.0936 -0.0668
  146loPI   C3B 2335  15.870   1.848   8.757  0.0655 -0.4886 -0.1679
  146loPI   C4B 2336  15.917   1.935   8.397  0.1220 -0.0104 -0.2119
  147loPI    C1 2337   1.653   7.521  10.368 -0.0183 -0.1677  0.3458
  147loPI    C2 2338   1.921   7.614  10.650  0.1904  0.1532  0.0511
  147loPI    C3 2339   1.584   7.827  10.616  0.0193 -0.0798  0.2487
  147loPI   PO4 2340   1.694   7.527  10.145 -0.1031  0.0754 -0.0892
  147loPI   GL1 2341   1.755   7.762   9.829 -0.2428  0.2017  0.0166
  147loPI   GL2 2342   1.868   8.081   9.809  0.1139 -0.2858 -0.1435
  147loPI   C1A 2343   1.520   7.655   9.474  0.0756  0.0126  0.1518
  147loPI   C2A 2344   1.360   7.823   9.092 -0.1365 -0.2659  0.2770
  147loPI   C3A 2345   1.364   8.009   8.685  0.3048  0.1102  0.0851
  147loPI   C4A 2346   1.517   7.906   8.256 -0.1101 -0.2312  0.0580
  147loPI   C5A 2347   1.626   7.800   7.825 -0.1380  0.2287 -0.0093
  147loPI   C6A 2348   1.670   7.349   7.612  0.2259  0.0289  0.0965
  147loPI   C1B 2349   1.924   7.980   9.360  0.1213 -0.1888  0.0082
  147loPI   C2B 2350   1.837   8.115   8.935 -0.3370 -0.0316  0.0172
  147loPI   C3B 2351   1.749   8.263   8.480  0.0566 -0.0956  0.0276
  147loPI   C4B 2352   1.786   8.260   7.999  0.1010 -0.2024 -0.0680
  148loPI    C1 2353  11.475   7.747  10.408  0.1387  0.0401 -0.2793
  148loPI    C2 2354  11.359   7.451  10.650  0.0743  0.3764  0.1102
  148loPI    C3 2355  11.746   7.497  10.564  0.0516 -0.0352 -0.2477
  148loPI   PO4 2356  11.336   7.763  10.220  0.1390 -0.0273 -0.1181
  148loPI   GL1 2357  11.473   7.636   9.782 -0.0720  0.0931  0.2611
  148loPI   GL2 2358  11.551   7.388   9.611 -0.1210  0.1248 -0.0145
  148loPI   C1A 2359  11.641   7.807   9.450 -0.2035  0.2817 -0.1983
  148loPI   C2A 2360  11.712   7.724   9.036 -0.3299 -0.0146 -0.3364
  148loPI   C3A 2361  11.818   7.609   8.666  0.0753  0.1455  0.2007
  148loPI   C4A 2362  11.652   7.389   8.350 -0.1528  0.1052 -0.1633
  148loPI   C5A 2363  11.350   7.520   7.978  0.3360 -0.6699 -0.0173
  148loPI   C6A 2364  10.925   7.344   7.753 -0.2465  0.0783 -0.1244
  148loPI   C1B 2365  11.325   7.452   9.185  0.2226 -0.0499 -0.1644
  148loPI   C2B 2366  11.243   7.605   8.780 -0.2604  0.2355  0.3424
  148loPI   C3B 2367  11.349   7.842   8.407 -0.3322  0.0522  0.0676
  148loPI   C4B 2368  11.278   8.125   8.227 -0.1422  0.0109 -0.2434
  149loPI    C1 2369  15.551   4.921  10.520  0.0494  0.0624  0.1668
  149loPI    C2 2370  15.447   5.245  10.729  0.1235  0.1617  0.0508
  149loPI    C3 2371  15.725   4.995  10.872  0.0505  0.1371  0.1506
  149loPI   PO4 2372  15.455   4.973  10.305  0.0885  0.1099  0.1928
  149loPI   GL1 2373  15.149   4.640  10.168  0.1057 -0.0354 -0.2147
  149loPI   GL2 2374  14.986   4.950  10.046 -0.0906 -0.2184  0.0468
  149loPI   C1A 2375  15.148   4.478   9.805 -0.2901  0.0909  0.1599
  149loPI   C2A 2376  15.053   4.593   9.380  0.1746  0.0637 -0.2924
  149loPI   C3A 2377  14.885   4.527   8.931  0.0433 -0.2217 -0.2224
  149loPI   C4A 2378  14.764   4.545   8.522  0.0630 -0.0119  0.0477
  149loPI   C5A 2379  14.883   4.476   8.018 -0.0242 -0.1048  0.2143
  149loPI   C6A 2380  14.874   4.325   7.585 -0.1397 -0.3030 -0.2185
  149loPI   C1B 2381  14.735   4.834   9.729  0.0631 -0.0712 -0.0442
  149loPI   C2B 2382  14.674   4.892   9.291 -0.1361 -0.1810 -0.0256
  149loPI   C3B 2383  14.436   4.828   8.860 -0.1667 -0.0902  0.1146
  149loPI   C4B 2384  14.403   4.809   8.453 -0.0514 -0.0647  0.1751
  150loPI    C1 2385  10.872   0.409  10.388  0.1831  0.0018 -0.0067
  150loPI    C2 2386  10.779   0.479  10.770 -0.2881  0.0131 -0.1180
  150loPI    C3 2387  10.907   0.117  10.659 -0.0313  0.0444  0.0687
  150loPI   PO4 2388  10.762   0.507  10.224 -0.1377 -0.1257 -0.2999
  150loPI   GL1 2389  10.400   0.580  10.153  0.0317 -0.0138 -0.1939
  150loPI   GL2 2390  10.580   0.619   9.814 -0.2186 -0.1873  0.0216
  150loPI   C1A 2391  10.112   0.770   9.681 -0.1849  0.0245 -0.0379
  150loPI   C2A 2392  10.059   0.692   9.154  0.4390  0.2631 -0.1749
  150loPI   C3A 2393  10.268   0.757   8.759  0.1491 -0.0088  0.2209
  150loPI   C4A 2394  10.228   0.771   8.310  0.0434  0.0831 -0.1147
  150loPI   C5A 2395  10.296   0.706   7.910 -0.1822 -0.0057 -0.0633
  150loPI   C6A 2396  10.607   0.554   7.655 -0.1359 -0.0850 -0.1858
  150loPI   C1B 2397  10.619   0.656   9.420 -0.1107  0.1835 -0.1265
  150loPI   C2B 2398  10.652   0.682   9.025  0.1510  0.3406 -0.2614
  150loPI   C3B 2399  10.723   0.677   8.682 -0.2459  0.0474  0.2468
  150loPI   C4B 2400  10.761   0.662   8.159 -0.0047  0.0113 -0.1514
  151loPI    C1 2401  12.767  17.418  10.290  0.0518  0.0130  0.0249
  151loPI    C2 2402  12.969  17.084  10.376  0.0833  0.0403  0.0567
  151loPI    C3 2403  12.644  17.182  10.588 -0.0615 -0.0903 -0.1022
  151loPI   PO4 2404  12.755  17.470  10.105  0.2702  0.0208  0.3218
  151loPI   GL1 2405  12.764  17.710   9.704 -0.0080 -0.0848  0.0348
  151loPI   GL2 2406  13.048  17.806   9.745 -0.0384  0.0488  0.3817
  151loPI   C1A 2407  12.852  17.873   9.262  0.1022  0.1237  0.1315
  151loPI   C2A 2408  12.871  17.865   8.898  0.1318 -0.3568 -0.0083
  151loPI   C3A 2409  12.915  18.030   8.403  0.0565 -0.2040 -0.0269
  151loPI   C4A 2410  13.000  18.076   7.998  0.1288 -0.0307  0.1684
  151loPI   C5A 2411  13.181  18.449   7.781  0.0138  0.0400 -0.2151
  151loPI   C6A 2412  13.329  18.775   7.658 -0.1614  0.0595 -0.1341
  151loPI   C1B 2413  13.368  18.095   9.520  0.0921 -0.1026  0.1836
  151loPI   C2B 2414  13.264  18.161   9.090  0.0777 -0.3252 -0.1033
  151loPI   C3B 2415  13.341  18.247   8.648  0.0325  0.1047  0.0966
  151loPI   C4B 2416  13.389  18.282   8.197  0.0498 -0.1253  0.2354
  152loPI    C1 2417   3.164   0.688  10.118  0.3191 -0.0073  0.1505
  152loPI    C2 2418   2.911   0.502  10.366  0.2165 -0.0550  0.0115
  152loPI    C3 2419   3.138   0.803  10.500  0.1714 -0.0890  0.1659
  152loPI   PO4 2420   2.956   0.766   9.926 -0.2579 -0.1712 -0.0941
  152loPI   GL1 2421   2.907   0.905   9.665 -0.0561  0.1167  0.1342
  152loPI   GL2 2422   3.000   1.214   9.690 -0.0173 -0.2686  0.2853
  152loPI   C1A 2423   3.032   0.623   9.191  0.2790  0.4399 -0.2152
  152loPI   C2A 2424   3.169   0.649   8.808 -0.1785 -0.1261  0.1429
  152loPI   C3A 2425   3.152   0.656   8.459  0.2056  0.0028  0.1135
  152loPI   C4A 2426   3.193   0.749   7.975  0.0084  0.0464 -0.3270
  152loPI   C5A 2427   3.355   0.785   7.610  0.3447  0.0860 -0.1697
  152loPI   C6A 2428   3.602   0.527   7.372 -0.1507  0.0385  0.4112
  152loPI   C1B 2429   3.003   1.115   9.179 -0.0480  0.0874 -0.3911
  152loPI   C2B 2430   3.052   1.128   8.743  0.1306  0.0049 -0.1352
  152loPI   C3B 2431   3.114   1.139   8.302  0.2941 -0.1996 -0.3195
  152loPI   C4B 2432   2.912   1.201   7.900 -0.0199 -0.6085 -0.0924
  153loPI    C1 2433  12.324   5.349  10.835  0.0853  0.3588 -0.1272
  153loPI    C2 2434  11.978   5.477  10.990 -0.0390 -0.3509  0.2236
  153loPI    C3 2435  12.325   5.617  11.133 -0.1663  0.1477  0.0678
  153loPI   PO4 2436  12.274   5.385  10.589  0.2590  0.1060  0.4721
  153loPI   GL1 2437  12.141   5.227  10.141  0.0750  0.1976  0.2434
  153loPI   GL2 2438  12.094   5.493  10.148  0.1948  0.0419 -0.2298
  153loPI   C1A 2439  12.290   5.212   9.729  0.2158  0.1094  0.2042
  153loPI   C2A 2440  12.136   5.248   9.364 -0.1959 -0.0400  0.2474
  153loPI   C3A 2441  12.028   5.019   8.994  0.0380  0.0542  0.2818
  153loPI   C4A 2442  11.729   4.906   8.536 -0.2087 -0.0262 -0.0955
  153loPI   C5A 2443  11.539   4.559   8.436 -0.2691 -0.0421  0.0877
  153loPI   C6A 2444  11.637   4.073   8.395 -0.3953  0.0506 -0.1261
  153loPI   C1B 2445  11.951   5.628   9.642  0.3696  0.2235 -0.1545
  153loPI   C2B 2446  11.854   5.751   9.271  0.1044  0.1722  0.0797
  153loPI   C3B 2447  11.751   5.617   8.910  0.2909  0.0236  0.2233
  153loPI   C4B 2448  11.974   5.362   8.629 -0.0586  0.2095 -0.2162
  154loPI    C1 2449   3.730  12.006  10.393  0.0944 -0.3146 -0.2234
  154loPI    C2 2450   3.446  11.773  10.234 -0.0924 -0.0772 -0.2436
  154loPI    C3 2451   3.512  11.767  10.629 -0.0938 -0.1659 -0.2444
  154loPI   PO4 2452   3.707  12.187  10.207  0.0341 -0.1131 -0.0404
  154loPI   GL1 2453   3.791  12.502   9.945  0.1354 -0.1089 -0.1697
  154loPI   GL2 2454   4.113  12.279   9.805 -0.1228 -0.1893 -0.2734
  154loPI   C1A 2455   3.697  12.393   9.541  0.0971 -0.1408 -0.0415
  154loPI   C2A 2456   3.795  12.391   9.195  0.1892  0.3828  0.0577
  154loPI   C3A 2457   3.737  12.298   8.739  0.0727 -0.0434 -0.2922
  154loPI   C4A 2458   3.758  12.220   8.320  0.0746  0.1922 -0.1286
  154loPI   C5A 2459   3.716  12.323   7.817  0.0065  0.1685  0.1060
  154loPI   C6A 2460   3.915  12.268   7.387  0.1947  0.2741  0.0164
  154loPI   C1B 2461   4.172  12.105   9.455  0.2872  0.0188 -0.2338
  154loPI   C2B 2462   4.153  12.120   9.048 -0.2576 -0.0925 -0.3194
  154loPI   C3B 2463   4.158  11.978   8.681  0.0071  0.1636 -0.1895
  154loPI   C4B 2464   4.211  11.946   8.280  0.3009  0.2159 -0.1323
  155loPI    C1 2465   5.398  12.801  10.281 -0.0457 -0.0021 -0.2083
  155loPI    C2 2466   5.643  13.118  10.285 -0.0833  0.0262 -0.1371
  155loPI    C3 2467   5.426  13.028  10.609  0.0714 -0.1853 -0.0902
  155loPI   PO4 2468   5.496  12.652  10.268  0.0121  0.0506  0.1161
  155loPI   GL1 2469   5.658  12.517   9.904  0.0225 -0.1098  0.0311
  155loPI   GL2 2470   5.817  12.816   9.861  0.1865  0.2631 -0.2629
  155loPI   C1A 2471   5.791  12.601   9.449 -0.1806 -0.3077 -0.2485
  155loPI   C2A 2472   5.710  12.669   8.919  0.2872  0.3812  0.0786
  155loPI   C3A 2473   5.735  12.649   8.458 -0.0715  0.0538 -0.0132
  155loPI   C4A 2474   5.850  12.844   8.211 -0.0059  0.3157  0.1133
  155loPI   C5A 2475   6.025  13.159   8.013 -0.1064 -0.2882 -0.1795
  155loPI   C6A 2476   6.058  13.241   7.629  0.1623 -0.2013 -0.0587
  155loPI   C1B 2477   5.892  13.076   9.672 -0.0053  0.0099  0.0258
  155loPI   C2B 2478   5.745  13.155   9.254  0.2589 -0.0158 -0.0878
  155loPI   C3B 2479   5.792  13.160   8.845 -0.1290  0.0600 -0.0078
  155loPI   C4B 2480   6.169  13.116   8.519  0.2105 -0.0793 -0.0192
  156loPI    C1 2481   0.055   0.452  10.102 -0.1007  0.0616 -0.2474
  156loPI    C2 2482   0.050   0.116  10.319 -0.0335  0.1043 -0.1792
  156loPI    C3 2483   0.199   0.453  10.475 -0.0881  0.1626 -0.2522
  156loPI   PO4 2484   0.176   0.444   9.794 -0.1404  0.1070  0.1581
  156loPI   GL1 2485  -0.072   0.469   9.466 -0.0198  0.0474  0.3330
  156loPI   GL2 2486  -0.189   0.778   9.280 -0.0795  0.0128  0.0750
  156loPI   C1A 2487  -0.056   0.078   9.193  0.1504  0.0692 -0.2625
  156loPI   C2A 2488   0.032   0.060   8.784 -0.1904  0.0202 -0.2175
  156loPI   C3A 2489   0.199   0.183   8.393  0.1578 -0.2928  0.0136
  156loPI   C4A 2490   0.494   0.228   7.990  0.0234  0.1258  0.0503
  156loPI   C5A 2491   0.697   0.232   7.725  0.3579 -0.2171 -0.0476
  156loPI   C6A 2492   1.111   0.228   7.628 -0.2732 -0.0427  0.0689
  156loPI   C1B 2493  -0.165   0.598   8.882 -0.1197  0.1757  0.2119
  156loPI   C2B 2494  -0.036   0.624   8.451 -0.1040 -0.0623 -0.1309
  156loPI   C3B 2495   0.088   0.554   7.967  0.0616  0.2275 -0.1941
  156loPI   C4B 2496   0.217   0.334   7.553  0.2183 -0.3278 -0.0062
  157loPI    C1 2497   8.935  12.097  10.411  0.0413  0.1764 -0.0269
  157loPI    C2 2498   8.723  11.759  10.424 -0.1114  0.2683 -0.0979
  157loPI    C3 2499   8.927  11.879  10.746  0.0562  0.0384 -0.1156
  157loPI   PO4 2500   8.972  12.087  10.144  0.0477 -0.1831 -0.2239
  157loPI   GL1 2501   9.148  12.389   9.859  0.1799 -0.0710  0.1519
  157loPI   GL2 2502   9.162  12.090   9.638  0.0829 -0.0561  0.0659
  157loPI   C1A 2503   9.080  12.664   9.521  0.0876 -0.0866  0.0395
  157loPI   C2A 2504   8.779  12.704   9.125 -0.0410 -0.2174 -0.1284
  157loPI   C3A 2505   8.368  12.555   8.960 -0.2305  0.2558 -0.3176
  157loPI   C4A 2506   8.403  12.356   8.588  0.2389  0.2001  0.0581
  157loPI   C5A 2507   8.482  12.449   8.126  0.0066  0.1961  0.1504
  157loPI   C6A 2508   8.711  12.366   7.797  0.0549 -0.0080 -0.2125
  157loPI   C1B 2509   8.864  12.262   9.320  0.0845 -0.3826  0.2162
  157loPI   C2B 2510   8.791  12.286   8.897 -0.4415  0.0867  0.0185
  157loPI   C3B 2511   8.933  12.630   8.597 -0.2011 -0.1353  0.0723
  157loPI   C4B 2512   8.945  12.583   8.234 -0.4717 -0.2275 -0.1558
  158loPI    C1 2513  11.522   0.694  10.746  0.0635 -0.0508 -0.0754
  158loPI    C2 2514  11.252   0.415  10.842  0.1848 -0.1139  0.0880
  158loPI    C3 2515  11.243   0.773  11.022  0.0100  0.0011 -0.1440
  158loPI   PO4 2516  11.708   0.568  10.549  0.1481  0.4146 -0.0299
  158loPI   GL1 2517  11.739   0.527  10.076  0.0378  0.3968 -0.2346
  158loPI   GL2 2518  11.629   0.338   9.807  0.0499 -0.0492 -0.0256
  158loPI   C1A 2519  11.936   0.702   9.668  0.1655 -0.1747  0.0399
  158loPI   C2A 2520  11.985   0.659   9.235  0.1514 -0.0804 -0.1220
  158loPI   C3A 2521  11.965   0.787   8.908 -0.2571  0.1946  0.2511
  158loPI   C4A 2522  12.093   0.694   8.513  0.1117  0.3794  0.0497
  158loPI   C5A 2523  12.254   0.883   8.116 -0.1084 -0.0202  0.1404
  158loPI   C6A 2524  12.327   1.081   7.686 -0.2649  0.3644  0.1144
  158loPI   C1B 2525  11.633   0.368   9.383 -0.0943 -0.0557  0.0148
  158loPI   C2B 2526  11.672   0.335   8.990  0.1230  0.2379 -0.1243
  158loPI   C3B 2527  11.658   0.419   8.495 -0.0668  0.0293 -0.0674
  158loPI   C4B 2528  11.726   0.281   7.945  0.3938  0.2448 -0.1353
  159loPI    C1 2529   8.426  16.024  10.292  0.0778 -0.0052  0.2441
  159loPI    C2 2530   8.260  16.367  10.416 -0.0946 -0.0131  0.0401
  159loPI    C3 2531   8.510  16.366  10.104  0.0352 -0.0499  0.1432
  159loPI   PO4 2532   8.180  15.761  10.259 -0.3927  0.0777  0.0013
  159loPI   GL1 2533   8.161  15.597   9.934  0.2151  0.0380 -0.0813
  159loPI   GL2 2534   7.850  15.678   9.773  0.2165 -0.1688 -0.1045
  159loPI   C1A 2535   8.312  15.492   9.503  0.2266  0.2583 -0.0380
  159loPI   C2A 2536   8.172  15.434   9.105  0.0089  0.0379  0.0129
  159loPI   C3A 2537   8.143  15.456   8.653  0.0497  0.1667 -0.1543
  159loPI   C4A 2538   8.208  15.542   8.263  0.2738 -0.1141 -0.2652
  159loPI   C5A 2539   8.364  15.514   7.878  0.0705  0.0779  0.0812
  159loPI   C6A 2540   8.596  15.276   7.461  0.2682  0.1097 -0.0777
  159loPI   C1B 2541   7.781  15.705   9.334 -0.0924  0.2710  0.1429
  159loPI   C2B 2542   7.788  15.772   8.855  0.1990 -0.2162  0.2279
  159loPI   C3B 2543   7.827  15.772   8.398  0.1337  0.3000 -0.0328
  159loPI   C4B 2544   7.982  15.928   8.012 -0.0374 -0.3610 -0.0082
  160loPI    C1 2545  13.859   4.965  10.226 -0.0214  0.0494  0.0904
  160loPI    C2 2546  13.577   4.706  10.341 -0.0815  0.1463  0.1629
  160loPI    C3 2547  13.619   5.053  10.534 -0.0773  0.2409 -0.0068
  160loPI   PO4 2548  13.697   5.015   9.944  0.0656 -0.1120 -0.0200
  160loPI   GL1 2549  13.553   5.288   9.534  0.2677 -0.2462 -0.0903
  160loPI   GL2 2550  13.323   5.005   9.650  0.1678  0.2483 -0.0451
  160loPI   C1A 2551  13.274   5.275   9.254 -0.1251  0.0616 -0.2073
  160loPI   C2A 2552  13.094   5.222   8.874  0.1740  0.0437 -0.0805
  160loPI   C3A 2553  12.920   5.302   8.513  0.0747 -0.0680 -0.0738
  160loPI   C4A 2554  12.789   5.188   8.170 -0.1856  0.2672 -0.1023
  160loPI   C5A 2555  12.775   5.190   7.763 -0.0696  0.1125  0.2335
  160loPI   C6A 2556  12.844   5.300   7.424 -0.0170 -0.0680 -0.1183
  160loPI   C1B 2557  13.459   4.648   9.440 -0.0317  0.1531  0.1184
  160loPI   C2B 2558  13.472   4.553   8.994  0.2169  0.2700  0.1721
  160loPI   C3B 2559  13.542   4.617   8.568  0.1752  0.0521  0.0465
  160loPI   C4B 2560  13.375   4.657   8.224 -0.3131  0.1349  0.2069
  161loPI    C1 2561  18.671   3.533  10.323 -0.0191 -0.1007  0.0006
  161loPI    C2 2562  18.998   3.762  10.343 -0.2468  0.2084  0.2937
  161loPI    C3 2563  18.952   3.455  10.596  0.0303 -0.1348 -0.0598
  161loPI   PO4 2564  18.662   3.447  10.102 -0.0031  0.0148  0.2724
  161loPI   GL1 2565  18.983   3.431   9.839 -0.0060 -0.4686 -0.0644
  161loPI   GL2 2566  18.900   3.240   9.580 -0.1806 -0.0360  0.0201
  161loPI   C1A 2567  19.190   3.639   9.453  0.3163  0.1243 -0.1486
  161loPI   C2A 2568  19.157   3.828   9.131  0.2339 -0.1925  0.1656
  161loPI   C3A 2569  18.950   3.851   8.696  0.1172 -0.1984  0.5257
  161loPI   C4A 2570  18.859   3.796   8.371 -0.0702 -0.0168  0.0441
  161loPI   C5A 2571  18.535   3.654   8.208  0.1979 -0.0310  0.3231
  161loPI   C6A 2572  18.310   3.748   7.859  0.1198  0.0763 -0.0391
  161loPI   C1B 2573  18.877   3.026   9.126  0.0045 -0.2175  0.1972
  161loPI   C2B 2574  19.231   2.872   8.829 -0.2476  0.2433 -0.0105
  161loPI   C3B 2575  19.319   2.990   8.481  0.3510 -0.1033  0.1197
  161loPI   C4B 2576  19.359   3.145   8.048  0.1940 -0.1259 -0.0401
  162loPI    C1 2577   1.009  17.141   9.755  0.0638  0.0084 -0.1165
  162loPI    C2 2578   0.670  17.024   9.933  0.0111  0.2553 -0.0508
  162loPI    C3 2579   1.017  16.852  10.031 -0.0616  0.1712  0.0607
  162loPI   PO4 2580   0.870  17.232   9.508  0.1620 -0.1254 -0.0586
  162loPI   GL1 2581   0.791  17.091   9.155  0.1269  0.0230  0.4120
  162loPI   GL2 2582   0.563  17.431   9.194 -0.0501 -0.0810  0.1503
  162loPI   C1A 2583   0.709  17.132   8.745 -0.4992  0.2001 -0.0332
  162loPI   C2A 2584   0.515  17.095   8.331 -0.0001  0.0838  0.1283
  162loPI   C3A 2585   0.467  16.994   7.886  0.0718 -0.0277 -0.0303
  162loPI   C4A 2586   0.404  16.983   7.534 -0.0625 -0.0287 -0.0121
  162loPI   C5A 2587   0.233  17.328   7.363  0.0158  0.0341  0.2954
  162loPI   C6A 2588   0.197  17.769   7.403 -0.0878  0.3261 -0.1071
  162loPI   C1B 2589   0.312  17.407   8.818  0.1133 -0.1463  0.0094
  162loPI   C2B 2590   0.240  17.517   8.463  0.1751 -0.0760  0.0338
  162loPI   C3B 2591   0.115  17.276   8.134 -0.1220 -0.0251 -0.1716
  162loPI   C4B 2592  -0.083  17.158   7.777 -0.0347  0.3320  0.0443
  163loPI    C1 2593   3.596   5.341  10.078 -0.3904  0.0455  0.0121
  163loPI    C2 2594   3.665   5.248  10.461  0.0803  0.0050 -0.0769
  163loPI    C3 2595   3.780   5.603  10.318  0.2176 -0.1122 -0.2628
  163loPI   PO4 2596   3.542   5.015  10.023  0.0906  0.0973  0.0251
  163loPI   GL1 2597   3.633   4.887   9.742  0.1459  0.2902  0.2550
  163loPI   GL2 2598   3.746   4.567   9.789  0.2456 -0.1145 -0.0255
  163loPI   C1A 2599   3.739   4.742   9.306 -0.0968  0.1796 -0.0728
  163loPI   C2A 2600   3.788   4.682   8.846 -0.0583  0.1699 -0.2172
  163loPI   C3A 2601   3.831   4.747   8.361  0.1411  0.0041  0.2604
  163loPI   C4A 2602   3.632   4.993   7.959  0.0230 -0.1926  0.0795
  163loPI   C5A 2603   3.499   5.462   7.830  0.0707  0.0727  0.1579
  163loPI   C6A 2604   3.089   5.593   7.876 -0.0617 -0.1939 -0.1703
  163loPI   C1B 2605   4.151   4.587   9.506 -0.2312 -0.2501 -0.2461
  163loPI   C2B 2606   4.177   4.454   9.071  0.0153 -0.1059  0.3960
  163loPI   C3B 2607   4.242   4.496   8.654  0.2474  0.2276  0.0067
  163loPI   C4B 2608   4.268   4.490   8.216 -0.1400 -0.2042  0.1763
  164loPI    C1 2609   8.714   6.490  10.613  0.0800 -0.0424  0.0066
  164loPI    C2 2610   9.051   6.456  10.825 -0.0127  0.1296  0.1851
  164loPI    C3 2611   8.825   6.784  10.860 -0.0188  0.1706 -0.1989
  164loPI   PO4 2612   8.701   6.391  10.325 -0.0575 -0.0024  0.1960
  164loPI   GL1 2613   8.852   6.516   9.992  0.0447  0.3139 -0.1051
  164loPI   GL2 2614   8.540   6.632   9.826 -0.1128  0.0433 -0.0662
  164loPI   C1A 2615   8.930   6.020   9.789  0.0545 -0.0138 -0.1807
  164loPI   C2A 2616   8.850   5.882   9.380 -0.1251 -0.3047 -0.2915
  164loPI   C3A 2617   8.839   5.749   8.902 -0.2410  0.1999  0.1878
  164loPI   C4A 2618   8.962   5.692   8.451  0.2138 -0.2423  0.0194
  164loPI   C5A 2619   8.598   5.749   8.055 -0.1928  0.0051 -0.0694
  164loPI   C6A 2620   8.173   5.637   7.956  0.1070 -0.1086  0.1392
  164loPI   C1B 2621   8.776   6.450   9.487 -0.2171 -0.1785  0.1896
  164loPI   C2B 2622   8.805   6.294   9.123  0.1678 -0.1460 -0.1390
  164loPI   C3B 2623   8.827   6.273   8.691  0.2270  0.0266 -0.1888
  164loPI   C4B 2624   8.785   6.172   8.331  0.1036 -0.1926  0.0255
  165loPI    C1 2625   5.916  11.256  10.424  0.0516 -0.1255  0.0257
  165loPI    C2 2626   6.154  11.151  10.728 -0.0086  0.1953  0.1873
  165loPI    C3 2627   5.767  11.052  10.734  0.0324  0.0287  0.1189
  165loPI   PO4 2628   6.124  11.344  10.254 -0.1264 -0.1422  0.2650
  165loPI   GL1 2629   6.019  11.597   9.842 -0.0254  0.0586  0.0304
  165loPI   GL2 2630   5.741  11.324   9.765  0.0671  0.2459  0.1983
  165loPI   C1A 2631   6.058  11.677   9.367 -0.0906 -0.1700  0.2694
  165loPI   C2A 2632   5.958  11.807   8.933  0.1541 -0.0165  0.2682
  165loPI   C3A 2633   6.106  11.782   8.492 -0.1821  0.1479  0.2019
  165loPI   C4A 2634   5.918  11.721   8.102  0.0301 -0.1493  0.0058
  165loPI   C5A 2635   5.989  11.941   7.771  0.1370 -0.1106 -0.0556
  165loPI   C6A 2636   6.124  12.279   7.513 -0.0528 -0.0567 -0.0369
  165loPI   C1B 2637   5.465  11.119   9.655  0.2217  0.1237  0.0254
  165loPI   C2B 2638   5.412  11.004   9.276 -0.4008 -0.2915 -0.1790
  165loPI   C3B 2639   5.435  10.928   8.865  0.0391  0.2548 -0.1924
  165loPI   C4B 2640   5.462  11.024   8.464 -0.1393  0.2271  0.2675
  166loPI    C1 2641   3.488  11.183  10.632 -0.2377 -0.1880 -0.1759
  166loPI    C2 2642   3.633  11.380  10.948 -0.0661  0.0595 -0.4039
  166loPI    C3 2643   3.293  11.171  10.981 -0.1108  0.1761 -0.0887
  166loPI   PO4 2644   3.433  11.329  10.432 -0.1729  0.0273 -0.1394
  166loPI   GL1 2645   3.065  11.498  10.157 -0.0463 -0.1518 -0.0628
  166loPI   GL2 2646   2.775  11.419  10.038  0.2000  0.0840  0.3892
  166loPI   C1A 2647   3.232  11.692   9.753 -0.3486 -0.3755 -0.1190
  166loPI   C2A 2648   3.244  11.750   9.340  0.3474  0.1281  0.0957
  166loPI   C3A 2649   3.224  11.604   8.953 -0.1974 -0.3698 -0.2653
  166loPI   C4A 2650   3.198  11.570   8.550 -0.1309  0.2346 -0.1319
  166loPI   C5A 2651   3.141  11.544   8.133  0.4930 -0.0060 -0.0020
  166loPI   C6A 2652   3.459  11.405   7.801  0.1366  0.0545  0.1583
  166loPI   C1B 2653   2.679  11.630   9.618 -0.1481  0.3119 -0.1578
  166loPI   C2B 2654   2.793  11.560   9.217  0.3436 -0.0009  0.3439
  166loPI   C3B 2655   2.773  11.334   8.875 -0.1484 -0.0103  0.0638
  166loPI   C4B 2656   2.672  11.469   8.472 -0.0144  0.0799  0.0615
  167loPI    C1 2657   8.669   0.350   9.632  0.0663  0.1382 -0.0666
  167loPI    C2 2658   8.765   0.539   9.970 -0.1185  0.0180  0.0549
  167loPI    C3 2659   8.442   0.651   9.763 -0.1381 -0.0603  0.0430
  167loPI   PO4 2660   8.712   0.058   9.663  0.0827 -0.1804  0.0214
  167loPI   GL1 2661   8.879  -0.156   9.367 -0.0947  0.3929 -0.2459
  167loPI   GL2 2662   8.595  -0.461   9.467  0.2933  0.0337  0.2329
  167loPI   C1A 2663   8.800   0.102   8.963  0.1778 -0.1925  0.0327
  167loPI   C2A 2664   8.838   0.369   8.623  0.0028  0.0972  0.1460
  167loPI   C3A 2665   8.822   0.718   8.390 -0.1193 -0.0299 -0.1592
  167loPI   C4A 2666   8.971   1.099   8.337  0.2201 -0.0785  0.1039
  167loPI   C5A 2667   8.998   1.344   7.892 -0.0538  0.2075 -0.2608
  167loPI   C6A 2668   9.149   1.683   7.635  0.0790  0.2773  0.0677
  167loPI   C1B 2669   8.487  -0.252   9.057  0.2869  0.3442  0.1068
  167loPI   C2B 2670   8.499  -0.116   8.585  0.1794  0.0060  0.3956
  167loPI   C3B 2671   8.539  -0.101   8.125 -0.0841 -0.1218  0.0013
  167loPI   C4B 2672   8.324  -0.093   7.764 -0.2237  0.2014 -0.1192
  168loPI    C1 2673  11.649  13.229  10.220  0.0762 -0.0513 -0.1184
  168loPI    C2 2674  11.859  12.938  10.396  0.1436  0.2175  0.2570
  168loPI    C3 2675  12.044  13.268  10.268  0.0991  0.0179 -0.3521
  168loPI   PO4 2676  11.521  13.146   9.943  0.1433 -0.1787  0.0771
  168loPI   GL1 2677  11.563  13.066   9.597 -0.1480 -0.3601  0.1435
  168loPI   GL2 2678  11.263  13.031   9.390 -0.1289  0.1727 -0.1234
  168loPI   C1A 2679  11.702  13.004   9.145 -0.0092  0.2398 -0.3798
  168loPI   C2A 2680  11.796  13.184   8.844 -0.1637  0.0867 -0.0069
  168loPI   C3A 2681  12.034  12.974   8.389  0.0333  0.1480  0.0119
  168loPI   C4A 2682  11.971  12.598   8.051  0.2934  0.2017 -0.1875
  168loPI   C5A 2683  11.728  12.374   7.727 -0.0369 -0.1375  0.0513
  168loPI   C6A 2684  11.878  12.004   7.781  0.1023 -0.3733 -0.0785
  168loPI   C1B 2685  11.251  13.105   8.906  0.2325 -0.1485  0.2886
  168loPI   C2B 2686  11.465  13.307   8.472  0.2182 -0.0492 -0.1773
  168loPI   C3B 2687  11.766  13.467   8.147 -0.2358 -0.1071  0.1330
  168loPI   C4B 2688  11.939  13.643   7.846 -0.1523 -0.0923  0.3092
  169loPI    C1 2689  15.430  12.492  10.394  0.2826  0.1477 -0.0332
  169loPI    C2 2690  15.578  12.489  10.765 -0.0556 -0.1986  0.1052
  169loPI    C3 2691  15.493  12.144  10.581 -0.2762 -0.0188 -0.1364
  169loPI   PO4 2692  15.628  12.724  10.267 -0.2066  0.0933 -0.2605
  169loPI   GL1 2693  15.726  12.721   9.862 -0.3020 -0.2384  0.2428
  169loPI   GL2 2694  16.030  12.637   9.879 -0.0941  0.3630 -0.0918
  169loPI   C1A 2695  15.660  12.717   9.360 -0.0251  0.1063  0.0371
  169loPI   C2A 2696  15.779  12.643   8.924 -0.1159  0.3158  0.1160
  169loPI   C3A 2697  15.893  12.831   8.563 -0.0297  0.3290 -0.0530
  169loPI   C4A 2698  16.151  12.974   8.301 -0.1452 -0.1252 -0.1638
  169loPI   C5A 2699  16.256  12.782   7.830  0.3087  0.2082  0.0301
  169loPI   C6A 2700  15.919  12.749   7.552  0.1530 -0.0754  0.4258
  169loPI   C1B 2701  16.097  12.877   9.539  0.4614 -0.1144  0.0693
  169loPI   C2B 2702  16.480  12.896   9.309 -0.2084  0.0668  0.1420
  169loPI   C3B 2703  16.761  12.777   8.974  0.0799 -0.3782 -0.1094
  169loPI   C4B 2704  16.706  12.580   8.611  0.0347 -0.2526 -0.0245
  170loPI    C1 2705   4.492  12.591  10.744 -0.1674  0.0780 -0.2534
  170loPI    C2 2706   4.466  12.984  10.818  0.1584  0.0750 -0.1085
  170loPI    C3 2707   4.299  12.721  11.069 -0.0569  0.1187 -0.2038
  170loPI   PO4 2708   4.617  12.514  10.406  0.1375  0.0287  0.0200
  170loPI   GL1 2709   4.873  12.586  10.009 -0.1724 -0.1748  0.3092
  170loPI   GL2 2710   5.148  12.603   9.856  0.0189 -0.2804  0.2890
  170loPI   C1A 2711   4.724  12.998   9.704  0.2426 -0.4023  0.2899
  170loPI   C2A 2712   4.359  13.076   9.317  0.0716  0.0901 -0.0668
  170loPI   C3A 2713   4.403  13.063   8.836  0.4443  0.3878  0.1813
  170loPI   C4A 2714   4.519  12.925   8.443 -0.0620  0.1348  0.3733
  170loPI   C5A 2715   4.576  12.849   8.106 -0.1379  0.0532  0.2326
  170loPI   C6A 2716   4.937  12.735   7.813 -0.1826 -0.3111 -0.0697
  170loPI   C1B 2717   4.909  12.567   9.424 -0.0994  0.2057 -0.1720
  170loPI   C2B 2718   4.748  12.771   9.075 -0.0449 -0.1619 -0.0191
  170loPI   C3B 2719   4.803  12.575   8.649 -0.0609  0.2612 -0.1306
  170loPI   C4B 2720   5.271  12.377   8.484 -0.0892 -0.1575 -0.0415
  171loPI    C1 2721   7.639  12.238  10.319  0.1496 -0.0764  0.2057
  171loPI    C2 2722   8.017  12.114  10.279  0.0688 -0.1798 -0.3152
  171loPI    C3 2723   7.724  11.930  10.078 -0.2842 -0.1911  0.1895
  171loPI   PO4 2724   7.597  12.579  10.247  0.1507 -0.4825 -0.1333
  171loPI   GL1 2725   7.591  12.887   9.845  0.0819  0.3544  0.4048
  171loPI   GL2 2726   7.909  13.055   9.852  0.1852 -0.0119  0.0217
  171loPI   C1A 2727   7.587  12.919   9.430  0.0614  0.2898  0.0898
  171loPI   C2A 2728   7.566  12.841   8.919 -0.0422  0.0270 -0.0625
  171loPI   C3A 2729   7.619  12.921   8.501 -0.0937 -0.1084 -0.1117
  171loPI   C4A 2730   7.557  12.843   8.090 -0.0837  0.2471 -0.0669
  171loPI   C5A 2731   7.419  13.071   7.749  0.3700  0.1066 -0.1697
  171loPI   C6A 2732   7.531  13.307   7.578  0.0025 -0.1468  0.0545
  171loPI   C1B 2733   8.077  12.823   9.604 -0.2659 -0.3330  0.2901
  171loPI   C2B 2734   7.963  12.513   9.306 -0.2076 -0.0653  0.1170
  171loPI   C3B 2735   7.784  12.399   8.988 -0.0470  0.3800  0.2048
  171loPI   C4B 2736   7.832  12.346   8.653 -0.0966 -0.0465 -0.0789
  172loPI    C1 2737  17.045   3.857  10.326  0.2519 -0.1164 -0.1079
  172loPI    C2 2738  16.899   3.507  10.199  0.0194 -0.0292 -0.0855
  172loPI    C3 2739  17.128   3.521  10.526 -0.1228 -0.1377  0.0200
  172loPI   PO4 2740  17.215   3.962  10.169  0.1138 -0.0897  0.0118
  172loPI   GL1 2741  17.225   3.848   9.711  0.0174 -0.0060 -0.0654
  172loPI   GL2 2742  17.031   3.769   9.726  0.0826  0.2175 -0.0158
  172loPI   C1A 2743  17.337   3.933   9.219  0.0075 -0.1803 -0.0229
  172loPI   C2A 2744  17.276   3.770   8.869 -0.2579  0.1566 -0.0624
  172loPI   C3A 2745  17.180   3.577   8.444 -0.1331  0.0088  0.4249
  172loPI   C4A 2746  16.838   3.307   7.983  0.0437  0.1521 -0.0738
  172loPI   C5A 2747  16.515   2.931   7.806  0.0057 -0.1464  0.1260
  172loPI   C6A 2748  16.128   2.890   7.665 -0.2518  0.0569 -0.0659
  172loPI   C1B 2749  16.859   3.627   9.232 -0.2010 -0.2475 -0.4331
  172loPI   C2B 2750  16.852   3.535   8.916  0.1677 -0.1004  0.0907
  172loPI   C3B 2751  17.057   3.133   8.928 -0.0113 -0.0309  0.0955
  172loPI   C4B 2752  17.121   2.923   8.577  0.1382 -0.2238  0.0618
  173loPI    C1 2753   6.298   0.453  10.497 -0.1798 -0.0159 -0.0876
  173loPI    C2 2754   6.383   0.836  10.575 -0.2422  0.0111 -0.1509
  173loPI    C3 2755   6.464   0.553  10.847  0.0274  0.0380 -0.1999
  173loPI   PO4 2756   6.257   0.456  10.226 -0.1415  0.0703  0.0941
  173loPI   GL1 2757   6.288   0.329   9.860 -0.1256  0.3355 -0.1144
  173loPI   GL2 2758   6.536   0.397   9.706  0.1584 -0.1278 -0.1275
  173loPI   C1A 2759   6.089   0.111   9.533 -0.1307  0.2199  0.0444
  173loPI   C2A 2760   6.037   0.077   9.129 -0.0914 -0.1312 -0.2420
  173loPI   C3A 2761   5.874   0.066   8.749 -0.0581  0.0053 -0.0853
  173loPI   C4A 2762   5.941  -0.299   8.398  0.1140  0.2596  0.1274
  173loPI   C5A 2763   5.995  -0.295   8.008  0.1223  0.3900  0.0030
  173loPI   C6A 2764   6.091  -0.144   7.561 -0.1152  0.3128 -0.0191
  173loPI   C1B 2765   6.479   0.468   9.324  0.3319  0.0351 -0.3059
  173loPI   C2B 2766   6.351   0.453   8.938  0.0148  0.2695  0.1066
  173loPI   C3B 2767   6.174   0.423   8.533  0.0133 -0.1945 -0.2339
  173loPI   C4B 2768   6.063   0.152   8.234  0.0847  0.2980  0.0751
  174loPI    C1 2769   9.906   0.317  10.680  0.0857 -0.0517  0.0159
  174loPI    C2 2770   9.764  -0.024  10.527 -0.1245  0.0228  0.0413
  174loPI    C3 2771   9.833   0.006  10.920  0.0284 -0.0354  0.0196
  174loPI   PO4 2772   9.954   0.468  10.466  0.0009  0.0708  0.0824
  174loPI   GL1 2773   9.846   0.400  10.047  0.0811  0.0287 -0.3239
  174loPI   GL2 2774   9.711   0.106   9.964  0.0530  0.2250  0.0507
  174loPI   C1A 2775  10.165   0.271   9.767  0.1819  0.3371  0.0532
  174loPI   C2A 2776  10.235   0.320   9.405 -0.0288  0.3264 -0.1970
  174loPI   C3A 2777  10.273   0.217   8.929  0.0717  0.1536 -0.0020
  174loPI   C4A 2778  10.306   0.286   8.506 -0.0054 -0.3355  0.0113
  174loPI   C5A 2779  10.422   0.238   8.074  0.2036 -0.0405  0.0000
  174loPI   C6A 2780  10.543   0.036   7.721  0.2436 -0.4420  0.1215
  174loPI   C1B 2781   9.695   0.383   9.523  0.0721  0.0199  0.0491
  174loPI   C2B 2782   9.688   0.412   9.073  0.2117  0.1156  0.1156
  174loPI   C3B 2783   9.827   0.417   8.643 -0.0365  0.2308  0.0709
  174loPI   C4B 2784   9.695   0.469   8.262  0.2629 -0.1129 -0.3629
  175loPI    C1 2785   8.077   9.596  10.225  0.1244 -0.1138 -0.0738
  175loPI    C2 2786   7.843   9.557  10.547  0.0138  0.1646 -0.1174
  175loPI    C3 2787   8.224   9.673  10.589  0.1046 -0.1455 -0.0591
  175loPI   PO4 2788   7.825   9.488  10.002  0.3212  0.0353  0.2173
  175loPI   GL1 2789   7.895   9.239   9.578 -0.1597  0.2251  0.1811
  175loPI   GL2 2790   7.618   9.306   9.489  0.0299  0.0118  0.1294
  175loPI   C1A 2791   8.128   9.244   9.259 -0.2955  0.0904 -0.1634
  175loPI   C2A 2792   8.323   9.145   8.840 -0.1747 -0.0185 -0.0491
  175loPI   C3A 2793   8.714   9.129   8.718  0.0637 -0.0888  0.0152
  175loPI   C4A 2794   8.996   9.149   8.375 -0.0993 -0.1725  0.0816
  175loPI   C5A 2795   9.051   9.402   8.134 -0.1504  0.0239  0.1835
  175loPI   C6A 2796   9.311   9.416   7.756  0.0443  0.0956 -0.0089
  175loPI   C1B 2797   7.602   9.211   9.088  0.1999 -0.1849  0.1628
  175loPI   C2B 2798   7.417   9.103   8.614 -0.1265  0.0161  0.0047
  175loPI   C3B 2799   7.456   8.983   8.170 -0.2795  0.1659 -0.1243
  175loPI   C4B 2800   7.545   8.984   7.709  0.1280  0.3003 -0.3703
  176loPI    C1 2801  17.384   0.671  10.125  0.2428  0.0560 -0.2327
  176loPI    C2 2802  17.352   0.509   9.761  0.3257 -0.1919 -0.1319
  176loPI    C3 2803  17.516   0.299  10.059  0.1692 -0.0270  0.0728
  176loPI   PO4 2804  17.289   0.867  10.071  0.2524 -0.2029 -0.3065
  176loPI   GL1 2805  17.187   1.060   9.700  0.0675 -0.0125 -0.0026
  176loPI   GL2 2806  16.923   0.955   9.418 -0.3478  0.1528  0.1854
  176loPI   C1A 2807  17.413   0.924   9.351 -0.1012  0.2266 -0.1746
  176loPI   C2A 2808  17.611   0.911   8.978 -0.1541 -0.0436 -0.2145
  176loPI   C3A 2809  17.757   0.993   8.516  0.3637  0.0010  0.1760
  176loPI   C4A 2810  17.650   1.218   8.110  0.1670 -0.0588 -0.0959
  176loPI   C5A 2811  17.457   1.169   7.716 -0.3834 -0.0832  0.0339
  176loPI   C6A 2812  17.474   0.943   7.290 -0.3499 -0.0770  0.0325
  176loPI   C1B 2813  17.050   0.930   9.000  0.2040  0.4340  0.2461
  176loPI   C2B 2814  17.253   0.923   8.573  0.3529  0.0283  0.2355
  176loPI   C3B 2815  17.181   1.248   8.161 -0.3616  0.0124 -0.1865
  176loPI   C4B 2816  17.303   1.626   7.958 -0.3619 -0.0409 -0.1227
  177loPI    C1 2817  10.254   2.473  10.876  0.1831  0.1562  0.0760
  177loPI    C2 2818  10.105   2.108  10.806 -0.0372  0.2912 -0.1782
  177loPI    C3 2819  10.126   2.247  11.180 -0.2520  0.1432 -0.1092
  177loPI   PO4 2820  10.125   2.592  10.744 -0.0785  0.0077  0.1986
  177loPI   GL1 2821  10.276   2.882  10.470 -0.1337 -0.0882 -0.2173
  177loPI   GL2 2822  10.528   2.966  10.409 -0.0362 -0.0365 -0.1368
  177loPI   C1A 2823  10.074   2.861  10.122  0.0729 -0.1387 -0.0699
  177loPI   C2A 2824  10.238   2.656   9.768  0.1737 -0.0376  0.1173
  177loPI   C3A 2825  10.188   2.650   9.341  0.1397  0.4143  0.3612
  177loPI   C4A 2826  10.142   2.658   8.908 -0.0702 -0.1306  0.0118
  177loPI   C5A 2827  10.157   2.591   8.446  0.0383  0.2883 -0.1726
  177loPI   C6A 2828  10.125   2.522   8.031 -0.0298  0.1381  0.1350
  177loPI   C1B 2829  10.558   2.917  10.001  0.1834 -0.2042 -0.0724
  177loPI   C2B 2830  10.570   3.024   9.562  0.2551  0.2092 -0.1233
  177loPI   C3B 2831  10.592   2.904   9.069 -0.3145  0.0968 -0.0560
  177loPI   C4B 2832  10.623   2.971   8.661  0.1080  0.0512 -0.3942
  178loPI    C1 2833  11.175  18.558  10.582  0.0154  0.0820 -0.0577
  178loPI    C2 2834  10.832  18.423  10.739  0.2675 -0.2229  0.2456
  178loPI    C3 2835  11.076  18.652  10.958  0.1446  0.2070 -0.0544
  178loPI   PO4 2836  11.059  18.616  10.303  0.2596  0.2053 -0.1081
  178loPI   GL1 2837  10.797  18.596   9.936  0.1735 -0.0582  0.2542
  178loPI   GL2 2838  10.628  18.785  10.067 -0.0640  0.0243  0.0114
  178loPI   C1A 2839  10.840  18.597   9.484 -0.1279  0.1307  0.2047
  178loPI   C2A 2840  10.937  18.537   9.019  0.1841  0.1935 -0.3447
  178loPI   C3A 2841  10.970  18.551   8.559  0.1145 -0.0112 -0.0239
  178loPI   C4A 2842  11.061  18.445   8.193  0.0817 -0.0504  0.1943
  178loPI   C5A 2843  10.869  18.527   7.755  0.0597 -0.0432  0.0913
  178loPI   C6A 2844  10.957  18.706   7.396 -0.3318 -0.1323 -0.0228
  178loPI   C1B 2845  10.704  19.004   9.648 -0.1540  0.0357  0.1849
  178loPI   C2B 2846  10.807  18.983   9.201 -0.1138 -0.2602 -0.0587
  178loPI   C3B 2847  10.815  19.106   8.814  0.0533  0.1206  0.3100
  178loPI   C4B 2848  10.847  19.051   8.323  0.0815  0.3960  0.1714
  179loPI    C1 2849   7.535  16.051  10.128  0.0529  0.1753  0.1037
  179loPI    C2 2850   7.695  15.722  10.289 -0.1147  0.0180 -0.0459
  179loPI    C3 2851   7.822  16.083  10.404  0.1263 -0.0989  0.0628
  179loPI   PO4 2852   7.522  16.038   9.912  0.0462  0.3399  0.1926
  179loPI   GL1 2853   7.382  15.955   9.537  0.2710 -0.0974 -0.2647
  179loPI   GL2 2854   7.312  15.620   9.689  0.0256  0.1910  0.0019
  179loPI   C1A 2855   7.046  15.800   9.302 -0.0677 -0.0119 -0.0003
  179loPI   C2A 2856   6.850  15.465   8.915 -0.1555 -0.2145  0.0108
  179loPI   C3A 2857   6.659  15.407   8.527  0.0093 -0.2420 -0.0229
  179loPI   C4A 2858   6.515  15.387   8.150 -0.0900 -0.1334  0.0664
  179loPI   C5A 2859   6.606  15.155   7.750 -0.2663  0.0724 -0.2529
  179loPI   C6A 2860   6.475  15.191   7.403 -0.0668 -0.1283 -0.3726
  179loPI   C1B 2861   7.357  15.440   9.343  0.4027 -0.2222  0.4341
  179loPI   C2B 2862   7.212  15.137   9.017 -0.1684 -0.0846  0.3187
  179loPI   C3B 2863   7.055  15.163   8.531 -0.1187 -0.2141 -0.0277
  179loPI   C4B 2864   6.953  15.066   8.143  0.1542 -0.0726 -0.3182
  180loPI    C1 2865  14.596  15.621   9.998 -0.1742 -0.1592 -0.0977
  180loPI    C2 2866  14.581  15.334  10.276 -0.0784  0.1268  0.2095
  180loPI    C3 2867  14.608  15.718  10.386  0.0585  0.2394 -0.1985
  180loPI   PO4 2868  14.678  15.501   9.779  0.0801  0.1421  0.1202
  180loPI   GL1 2869  14.734  15.542   9.330  0.0205  0.1650 -0.0408
  180loPI   GL2 2870  15.014  15.777   9.244  0.3481 -0.1197  0.0846
  180loPI   C1A 2871  14.752  15.536   8.872  0.3076 -0.0850 -0.0219
  180loPI   C2A 2872  14.958  15.580   8.509  0.1995 -0.0201  0.0380
  180loPI   C3A 2873  14.935  15.468   8.065 -0.0674 -0.2219  0.1640
  180loPI   C4A 2874  15.147  15.298   7.688 -0.4309 -0.0575 -0.0378
  180loPI   C5A 2875  15.441  15.116   7.468  0.0926  0.1301  0.0363
  180loPI   C6A 2876  15.553  14.685   7.474  0.1302 -0.0194  0.0198
  180loPI   C1B 2877  14.819  15.995   8.992 -0.1457  0.3838  0.0233
  180loPI   C2B 2878  15.023  16.079   8.746 -0.0747 -0.4144 -0.0571
  180loPI   C3B 2879  15.166  16.022   8.342  0.2181 -0.0324  0.3426
  180loPI   C4B 2880  15.205  16.226   7.835  0.1727  0.1575  0.0592
  181loPI    C1 2881   7.279  10.430  10.086 -0.0051  0.2014  0.0092
  181loPI    C2 2882   6.894  10.422   9.977 -0.0229  0.1478  0.0752
  181loPI    C3 2883   6.993  10.392  10.363  0.0641 -0.2434  0.0269
  181loPI   PO4 2884   7.446  10.266   9.989 -0.1995 -0.1976  0.0416
  181loPI   GL1 2885   7.717  10.388   9.623 -0.0279  0.1940 -0.0104
  181loPI   GL2 2886   7.832  10.525   9.440 -0.0645  0.0076  0.2531
  181loPI   C1A 2887   7.659  10.167   9.220 -0.3706 -0.1195  0.0338
  181loPI   C2A 2888   7.574  10.101   8.876 -0.1605  0.2066 -0.0033
  181loPI   C3A 2889   7.279  10.070   8.574 -0.1244  0.1498  0.0164
  181loPI   C4A 2890   7.368   9.926   8.172 -0.3733  0.1251 -0.1645
  181loPI   C5A 2891   7.561   9.881   7.753 -0.2366  0.0527  0.2060
  181loPI   C6A 2892   7.486  10.019   7.303  0.3103 -0.2482 -0.3154
  181loPI   C1B 2893   7.898  10.506   8.976  0.1163  0.2147 -0.0327
  181loPI   C2B 2894   7.798  10.466   8.578  0.0836  0.0135 -0.1845
  181loPI   C3B 2895   7.806  10.229   8.214  0.2269 -0.1352 -0.1634
  181loPI   C4B 2896   7.801  10.354   7.752  0.1441  0.0635 -0.1966
  182loPI    C1 2897   7.613   7.335  10.169 -0.0421 -0.1019  0.0076
  182loPI    C2 2898   8.009   7.358  10.116 -0.0594  0.1076 -0.0371
  182loPI    C3 2899   7.834   7.567  10.409 -0.1177 -0.1097  0.0853
  182loPI   PO4 2900   7.576   7.255   9.948  0.1344 -0.3911 -0.1158
  182loPI   GL1 2901   7.307   7.311   9.638  0.1336  0.0867  0.0167
  182loPI   GL2 2902   7.633   7.266   9.456 -0.1608 -0.2548  0.0695
  182loPI   C1A 2903   7.176   7.289   9.220  0.1548 -0.0008 -0.1282
  182loPI   C2A 2904   7.086   7.289   8.812 -0.3094 -0.1483 -0.4517
  182loPI   C3A 2905   6.936   7.296   8.390  0.0321  0.0711 -0.1764
  182loPI   C4A 2906   7.228   7.110   8.084  0.2828 -0.2759 -0.0068
  182loPI   C5A 2907   7.339   7.004   7.651  0.1846 -0.0546  0.0077
  182loPI   C6A 2908   7.373   7.102   7.241 -0.1521  0.1210 -0.0847
  182loPI   C1B 2909   7.651   7.156   9.044 -0.0251 -0.3842  0.0633
  182loPI   C2B 2910   7.760   7.023   8.668 -0.1510  0.0493  0.0244
  182loPI   C3B 2911   7.690   6.985   8.164  0.1022  0.3169  0.0690
  182loPI   C4B 2912   7.851   7.139   7.792 -0.1413  0.4629 -0.1299
  183loPI    C1 2913  17.557   3.080  10.290 -0.0132 -0.1794  0.0999
  183loPI    C2 2914  17.774   3.280  10.560  0.2207  0.0328 -0.2372
  183loPI    C3 2915  17.746   2.881  10.581  0.3645  0.0335  0.0064
  183loPI   PO4 2916  17.407   3.294  10.130  0.1195 -0.0840  0.0501
  183loPI   GL1 2917  17.204   3.312   9.796  0.2570  0.4849  0.1545
  183loPI   GL2 2918  16.947   3.172   9.768 -0.4692  0.3048 -0.0186
  183loPI   C1A 2919  17.281   3.400   9.422 -0.1538  0.1972  0.2817
  183loPI   C2A 2920  17.651   3.535   9.095 -0.0474  0.0593  0.0898
  183loPI   C3A 2921  17.757   3.575   8.603 -0.2773  0.0443  0.0957
  183loPI   C4A 2922  17.578   3.774   8.205  0.3176  0.2125 -0.5274
  183loPI   C5A 2923  17.424   3.708   7.892 -0.0166  0.0984 -0.1337
  183loPI   C6A 2924  17.036   3.637   7.641  0.0054  0.1726 -0.2403
  183loPI   C1B 2925  16.783   3.089   9.352 -0.1124  0.3753  0.0232
  183loPI   C2B 2926  16.526   3.016   9.044 -0.2440  0.0532 -0.0449
  183loPI   C3B 2927  16.513   3.148   8.643 -0.0543  0.0078 -0.3481
  183loPI   C4B 2928  16.698   3.556   8.441 -0.1139 -0.2638 -0.1468
  184loPI    C1 2929  12.260  13.636   9.773  0.1257 -0.3385 -0.1045
  184loPI    C2 2930  12.091  13.861   9.488  0.0478 -0.3430 -0.0624
  184loPI    C3 2931  12.486  13.796   9.484  0.0959 -0.0696  0.0176
  184loPI   PO4 2932  11.977  13.441   9.796  0.4075  0.2782 -0.0678
  184loPI   GL1 2933  11.692  13.578   9.514  0.1036  0.0894  0.0058
  184loPI   GL2 2934  11.438  13.481   9.235 -0.1740  0.0403 -0.2975
  184loPI   C1A 2935  11.786  13.854   9.107 -0.2284 -0.1134 -0.0381
  184loPI   C2A 2936  11.746  13.782   8.654 -0.0690 -0.1800 -0.2212
  184loPI   C3A 2937  11.911  13.906   8.255  0.1171 -0.4161 -0.2262
  184loPI   C4A 2938  11.922  14.248   7.919 -0.1981 -0.2756  0.2985
  184loPI   C5A 2939  11.852  14.047   7.508  0.0014 -0.1143 -0.1116
  184loPI   C6A 2940  12.163  14.038   7.107 -0.1241  0.1792 -0.3035
  184loPI   C1B 2941  11.259  13.637   8.927  0.1134  0.0827 -0.1042
  184loPI   C2B 2942  11.207  13.684   8.489  0.0350 -0.0111  0.0919
  184loPI   C3B 2943  11.103  13.600   8.040  0.2494  0.1972  0.0185
  184loPI   C4B 2944  10.972  13.475   7.609 -0.2779  0.1057 -0.0428
  185loPI    C1 2945  17.363  10.748  10.705  0.0992  0.0292  0.1415
  185loPI    C2 2946  17.263  10.389  10.849 -0.0475  0.0779  0.1631
  185loPI    C3 2947  17.042  10.709  10.941  0.1396  0.1905  0.2243
  185loPI   PO4 2948  17.527  10.599  10.484  0.2793 -0.0799  0.2324
  185loPI   GL1 2949  17.458  10.711  10.098  0.2470 -0.3217  0.4640
  185loPI   GL2 2950  17.199  10.379  10.050  0.1668 -0.1571  0.1879
  185loPI   C1A 2951  17.556  10.695   9.718 -0.6115 -0.2341 -0.0440
  185loPI   C2A 2952  17.679  10.546   9.311  0.1299  0.0190 -0.0026
  185loPI   C3A 2953  17.657  10.576   8.841 -0.0550 -0.0809 -0.2221
  185loPI   C4A 2954  17.779  10.669   8.402  0.1553  0.1907 -0.1026
  185loPI   C5A 2955  17.594  10.677   7.989  0.1466 -0.0991  0.2746
  185loPI   C6A 2956  17.333  10.627   7.751 -0.0947  0.1006 -0.1672
  185loPI   C1B 2957  17.257  10.276   9.522 -0.0545  0.1054 -0.0859
  185loPI   C2B 2958  17.180  10.410   9.089  0.0936 -0.0416 -0.1759
  185loPI   C3B 2959  17.205  10.424   8.593 -0.3344 -0.1653 -0.0642
  185loPI   C4B 2960  17.239  10.533   8.219  0.0711 -0.1780 -0.0109
  186loPI    C1 2961  14.084  10.490  10.663 -0.2188 -0.2654 -0.1771
  186loPI    C2 2962  13.774  10.723  10.761 -0.0415 -0.0828 -0.0427
  186loPI    C3 2963  14.063  10.650  11.029  0.1380 -0.0792 -0.2330
  186loPI   PO4 2964  14.125  10.521  10.465  0.1459 -0.1234 -0.0758
  186loPI   GL1 2965  13.914  10.810  10.211 -0.1915  0.2324 -0.1480
  186loPI   GL2 2966  13.656  10.827  10.081 -0.2036 -0.0720  0.0327
  186loPI   C1A 2967  13.952  10.702   9.673  0.1438 -0.0998 -0.1140
  186loPI   C2A 2968  14.075  10.644   9.199  0.1651  0.3189 -0.3458
  186loPI   C3A 2969  14.079  10.605   8.776  0.2318  0.2705  0.0735
  186loPI   C4A 2970  14.083  10.655   8.399  0.0695 -0.0701  0.2867
  186loPI   C5A 2971  14.384  10.606   8.090  0.0443 -0.0511  0.2380
  186loPI   C6A 2972  14.578  10.603   7.813 -0.0985 -0.2665  0.0789
  186loPI   C1B 2973  13.821  11.152   9.812  0.1081 -0.0176  0.0776
  186loPI   C2B 2974  14.089  11.119   9.443  0.3135 -0.1198 -0.0518
  186loPI   C3B 2975  14.106  11.189   9.017 -0.3281 -0.2115 -0.0447
  186loPI   C4B 2976  14.040  11.139   8.594  0.0337  0.0274  0.0107
  187loPI    C1 2977  11.871   4.592  10.904  0.0034  0.0023  0.0170
  187loPI    C2 2978  11.618   4.342  11.086  0.1876  0.0203  0.3046
  187loPI    C3 2979  11.601   4.734  11.162 -0.0133  0.0835 -0.0449
  187loPI   PO4 2980  11.897   4.568  10.594 -0.0824 -0.1544 -0.0261
  187loPI   GL1 2981  12.014   4.654  10.143  0.1313 -0.2156  0.2388
  187loPI   GL2 2982  11.764   4.383  10.128 -0.1797  0.0231  0.1152
  187loPI   C1A 2983  12.122   4.693   9.811  0.0799  0.1495  0.2851
  187loPI   C2A 2984  12.127   4.633   9.303  0.2640 -0.0532  0.4616
  187loPI   C3A 2985  12.097   4.524   8.887 -0.0749 -0.1079 -0.0318
  187loPI   C4A 2986  12.065   4.523   8.427  0.0237 -0.1190 -0.1281
  187loPI   C5A 2987  12.273   4.325   8.101  0.0517  0.0118 -0.0895
  187loPI   C6A 2988  12.716   4.166   7.976 -0.1714  0.0790 -0.0898
  187loPI   C1B 2989  11.903   4.093   9.801  0.0783  0.0774 -0.1257
  187loPI   C2B 2990  12.198   3.891   9.574  0.3268  0.2201  0.2295
  187loPI   C3B 2991  12.213   3.890   9.078 -0.1142  0.0287  0.2213
  187loPI   C4B 2992  12.212   4.054   8.640 -0.1882  0.1608 -0.0012
  188loPI    C1 2993   6.424   6.101  10.354  0.0476  0.1463 -0.1504
  188loPI    C2 2994   6.221   6.402  10.524 -0.1145 -0.0554  0.0191
  188loPI    C3 2995   6.415   6.137  10.752  0.3039  0.1048 -0.1393
  188loPI   PO4 2996   6.280   6.143  10.075  0.1676  0.1513  0.0466
  188loPI   GL1 2997   6.548   6.341   9.788 -0.4344  0.0141  0.1096
  188loPI   GL2 2998   6.549   6.666   9.695  0.5022 -0.0859  0.4548
  188loPI   C1A 2999   6.605   6.193   9.373  0.2884  0.1417  0.2678
  188loPI   C2A 3000   6.626   6.052   8.921  0.0367 -0.2151 -0.0758
  188loPI   C3A 3001   6.641   5.919   8.529 -0.0006  0.0095  0.0529
  188loPI   C4A 3002   6.715   5.917   8.092 -0.4223  0.0820  0.0899
  188loPI   C5A 3003   6.646   6.169   7.758  0.1108 -0.0825 -0.0766
  188loPI   C6A 3004   6.545   6.264   7.341  0.1014  0.1660 -0.1962
  188loPI   C1B 3005   6.402   6.614   9.363 -0.0216 -0.4007 -0.0683
  188loPI   C2B 3006   6.533   6.568   9.031 -0.0169 -0.4232 -0.2366
  188loPI   C3B 3007   6.535   6.444   8.589  0.1750  0.4401 -0.2313
  188loPI   C4B 3008   6.549   6.524   8.175 -0.2149 -0.1276  0.0344
  189loPI    C1 3009   7.145   8.994   9.993  0.0676 -0.1068 -0.1804
  189loPI    C2 3010   7.008   8.651  10.145 -0.0119 -0.0041 -0.0165
  189loPI    C3 3011   6.804   8.990  10.202  0.0183  0.0563 -0.2557
  189loPI   PO4 3012   7.189   8.962   9.686 -0.1206  0.1671  0.0344
  189loPI   GL1 3013   7.240   8.991   9.286 -0.0199 -0.1261  0.2282
  189loPI   GL2 3014   6.913   8.967   9.265 -0.3626  0.5519 -0.1370
  189loPI   C1A 3015   7.356   8.708   8.994 -0.0795 -0.1990  0.0491
  189loPI   C2A 3016   7.344   8.556   8.656 -0.1819  0.1785 -0.0436
  189loPI   C3A 3017   7.265   8.489   8.280  0.2512  0.2304 -0.2653
  189loPI   C4A 3018   7.635   8.498   7.937 -0.1708 -0.1657 -0.3307
  189loPI   C5A 3019   7.848   8.308   7.575 -0.0477  0.2011  0.3429
  189loPI   C6A 3020   8.150   8.461   7.290  0.0257 -0.1466 -0.2470
  189loPI   C1B 3021   6.868   8.690   9.054  0.0432  0.1208 -0.2166
  189loPI   C2B 3022   6.834   8.537   8.659 -0.0525  0.1898 -0.1196
  189loPI   C3B 3023   6.766   8.526   8.202  0.0937 -0.0866  0.4667
  189loPI   C4B 3024   6.771   8.526   7.771 -0.0719  0.0334  0.1009
  190loPI    C1 3025  18.247   1.108  10.148 -0.4192  0.2226 -0.0097
  190loPI    C2 3026  18.523   1.398  10.154  0.0522 -0.2112 -0.1172
  190loPI    C3 3027  18.501   1.136  10.456 -0.1866 -0.2332 -0.1517
  190loPI   PO4 3028  18.183   1.161   9.844  0.0929  0.2146  0.1314
  190loPI   GL1 3029  18.231   0.951   9.467 -0.3461  0.0748 -0.0634
  190loPI   GL2 3030  18.202   1.328   9.370  0.0291 -0.0480  0.0450
  190loPI   C1A 3031  18.282   1.048   8.985 -0.0910 -0.2086  0.1057
  190loPI   C2A 3032  18.304   0.773   8.576  0.2730 -0.0981  0.4028
  190loPI   C3A 3033  18.066   0.791   8.162 -0.2242  0.0110  0.0218
  190loPI   C4A 3034  17.927   0.873   7.770 -0.0325 -0.0085 -0.1715
  190loPI   C5A 3035  17.938   1.164   7.488  0.0529 -0.0763 -0.0862
  190loPI   C6A 3036  17.779   1.631   7.530  0.4190 -0.4007 -0.2603
  190loPI   C1B 3037  18.174   1.760   9.164 -0.0013 -0.1017 -0.2632
  190loPI   C2B 3038  18.062   1.873   8.762 -0.1911 -0.0475 -0.2557
  190loPI   C3B 3039  18.036   1.981   8.389 -0.0396  0.0667 -0.1465
  190loPI   C4B 3040  18.153   2.063   8.024  0.2777  0.1914  0.1551
  191loPI    C1 3041  14.606   6.172  10.191 -0.0212 -0.2838  0.0616
  191loPI    C2 3042  14.494   6.482  10.419  0.0690 -0.0221 -0.2425
  191loPI    C3 3043  14.229   6.197  10.324  0.0438 -0.1640  0.2277
  191loPI   PO4 3044  14.659   6.292  10.007  0.0152  0.0133 -0.0244
  191loPI   GL1 3045  14.784   6.158   9.581 -0.1560 -0.1410  0.2894
  191loPI   GL2 3046  15.149   5.978   9.518  0.4900  0.0410  0.1625
  191loPI   C1A 3047  14.809   6.029   9.116  0.0585  0.2084  0.0424
  191loPI   C2A 3048  14.670   5.850   8.807  0.1030  0.0611 -0.1039
  191loPI   C3A 3049  14.862   5.826   8.439  0.1940  0.0000  0.2396
  191loPI   C4A 3050  14.888   5.627   8.067 -0.0747  0.0140  0.1657
  191loPI   C5A 3051  14.867   5.691   7.655  0.1313  0.0698 -0.1234
  191loPI   C6A 3052  14.519   5.522   7.529  0.2511 -0.0139  0.0774
  191loPI   C1B 3053  15.319   6.191   9.211  0.1305 -0.6550  0.0843
  191loPI   C2B 3054  15.486   6.098   8.962 -0.2620 -0.1144 -0.0495
  191loPI   C3B 3055  15.349   6.021   8.496  0.0422 -0.0533  0.0014
  191loPI   C4B 3056  15.334   5.909   8.161 -0.0924 -0.1548 -0.1530
  192loPI    C1 3057  18.347   7.552  10.014  0.1440 -0.1010  0.1708
  192loPI    C2 3058  18.358   7.951   9.982  0.2476 -0.1064  0.1326
  192loPI    C3 3059  18.179   7.780  10.296 -0.1542 -0.0382 -0.0516
  192loPI   PO4 3060  18.634   7.459   9.988 -0.2011 -0.1554  0.0659
  192loPI   GL1 3061  18.873   7.266   9.704 -0.0668  0.1402 -0.2594
  192loPI   GL2 3062  18.811   6.956   9.642  0.1009  0.2036  0.1767
  192loPI   C1A 3063  19.077   7.367   9.354 -0.1895 -0.4109  0.0492
  192loPI   C2A 3064  19.214   7.550   9.012 -0.0076  0.1456 -0.3127
  192loPI   C3A 3065  19.237   7.472   8.589 -0.2074  0.0492 -0.0014
  192loPI   C4A 3066  19.311   7.072   8.303 -0.1781 -0.0544  0.1972
  192loPI   C5A 3067  19.419   7.064   7.915 -0.2053  0.2219 -0.0365
  192loPI   C6A 3068  19.288   6.815   7.555  0.0092 -0.4303 -0.0833
  192loPI   C1B 3069  18.766   7.005   9.232 -0.0473  0.0079 -0.1023
  192loPI   C2B 3070  18.986   6.921   8.837 -0.0923  0.0188  0.3477
  192loPI   C3B 3071  19.052   6.672   8.481  0.1336 -0.1526  0.1617
  192loPI   C4B 3072  19.154   6.642   8.050  0.1737 -0.2686  0.0756
  193loPI    C1 3073  14.143  15.582  10.345 -0.0860 -0.3001 -0.0589
  193loPI    C2 3074  13.895  15.389  10.592 -0.1599  0.1270  0.2097
  193loPI    C3 3075  14.195  15.608  10.740 -0.0551  0.1901 -0.0895
  193loPI   PO4 3076  14.095  15.829  10.188  0.1381 -0.0961  0.1180
  193loPI   GL1 3077  13.895  15.762   9.782  0.2494  0.1198  0.0546
  193loPI   GL2 3078  14.254  15.886   9.686  0.0740 -0.1948 -0.3809
  193loPI   C1A 3079  13.870  15.719   9.324  0.0435  0.0894  0.0326
  193loPI   C2A 3080  13.855  15.772   8.854  0.3735  0.0699 -0.3176
  193loPI   C3A 3081  13.930  15.717   8.489 -0.1508 -0.0468  0.0948
  193loPI   C4A 3082  13.972  15.895   8.082  0.0383 -0.1665  0.4293
  193loPI   C5A 3083  14.333  15.902   7.870  0.0269  0.1809  0.3666
  193loPI   C6A 3084  14.685  15.715   7.675  0.2091 -0.1632  0.1634
  193loPI   C1B 3085  14.415  15.857   9.211  0.1968  0.2683 -0.2729
  193loPI   C2B 3086  14.349  15.920   8.798  0.0702 -0.1324 -0.1076
  193loPI   C3B 3087  14.446  15.799   8.453 -0.0448  0.0289 -0.1203
  193loPI   C4B 3088  14.430  15.465   8.072 -0.1072  0.0994  0.0548
  194loPI    C1 3089   4.060   1.245  10.484 -0.1618  0.0772 -0.0040
  194loPI    C2 3090   4.316   1.128  10.768 -0.2186 -0.1588 -0.0476
  194loPI    C3 3091   3.923   1.081  10.822 -0.2222 -0.3570 -0.2314
  194loPI   PO4 3092   4.310   1.236  10.309  0.2314  0.4177  0.0321
  194loPI   GL1 3093   4.288   1.282   9.860  0.0828 -0.0684 -0.0859
  194loPI   GL2 3094   4.510   1.106   9.879 -0.1347  0.4847 -0.3193
  194loPI   C1A 3095   4.329   1.504   9.428  0.2110  0.1329  0.1225
  194loPI   C2A 3096   4.251   1.585   8.986 -0.0993  0.0205 -0.1885
  194loPI   C3A 3097   4.403   1.641   8.509  0.0885  0.1094 -0.2081
  194loPI   C4A 3098   4.380   1.700   8.085 -0.0168  0.1068 -0.1441
  194loPI   C5A 3099   4.081   1.796   7.687 -0.2687 -0.4593  0.0349
  194loPI   C6A 3100   3.667   1.749   7.533  0.0283  0.2884 -0.2520
  194loPI   C1B 3101   4.498   1.018   9.451 -0.0707 -0.1834 -0.2047
  194loPI   C2B 3102   4.319   1.091   9.045  0.0088  0.0961 -0.1280
  194loPI   C3B 3103   4.419   1.112   8.663 -0.3407  0.0894 -0.1944
  194loPI   C4B 3104   4.505   1.253   8.205  0.5433 -0.1061 -0.1125
  195loPI    C1 3105   9.544   7.216  10.416  0.1370  0.2394 -0.0712
  195loPI    C2 3106   9.766   7.370  10.710  0.1758  0.0185  0.0173
  195loPI    C3 3107   9.943   7.205  10.392  0.1341  0.2331 -0.1190
  195loPI   PO4 3108   9.460   7.354  10.274  0.1104  0.2744 -0.0639
  195loPI   GL1 3109   9.282   7.449   9.855 -0.1359  0.0299  0.1941
  195loPI   GL2 3110   9.528   7.558   9.795 -0.1470 -0.1673 -0.0216
  195loPI   C1A 3111   8.981   7.431   9.568  0.1061 -0.0381  0.1076
  195loPI   C2A 3112   8.662   7.297   9.331 -0.3506 -0.0565  0.2034
  195loPI   C3A 3113   8.534   7.304   8.974  0.3547 -0.0043 -0.0373
  195loPI   C4A 3114   8.564   7.240   8.567  0.0643  0.1931  0.0001
  195loPI   C5A 3115   8.575   7.317   8.161  0.2507  0.0193 -0.1160
  195loPI   C6A 3116   8.322   7.384   7.823 -0.0924  0.1088 -0.0047
  195loPI   C1B 3117   9.478   7.639   9.377 -0.1023  0.2084  0.2768
  195loPI   C2B 3118   9.509   7.559   8.902 -0.1332 -0.3428 -0.0351
  195loPI   C3B 3119   9.435   7.338   8.505 -0.1541  0.2929  0.3667
  195loPI   C4B 3120   9.404   7.228   8.058  0.2214  0.2805  0.3160
  196loPI    C1 3121   3.718  17.013   9.767 -0.0826  0.0006 -0.1220
  196loPI    C2 3122   3.541  16.741  10.001 -0.2172  0.1429 -0.0566
  196loPI    C3 3123   3.807  16.995  10.156  0.1838 -0.1843 -0.1885
  196loPI   PO4 3124   3.797  16.803   9.561 -0.0020 -0.3236 -0.0113
  196loPI   GL1 3125   3.754  16.886   9.152 -0.2466  0.2501 -0.0851
  196loPI   GL2 3126   3.828  16.603   9.077 -0.1430  0.1626  0.0354
  196loPI   C1A 3127   3.446  16.995   8.856  0.1910  0.2171 -0.2749
  196loPI   C2A 3128   3.181  17.124   8.533 -0.2356 -0.0498  0.0849
  196loPI   C3A 3129   3.171  17.218   8.019 -0.2725  0.1992  0.0778
  196loPI   C4A 3130   3.063  17.143   7.625 -0.1070  0.0453  0.1107
  196loPI   C5A 3131   2.883  17.022   7.410  0.2311 -0.1800  0.2738
  196loPI   C6A 3132   2.851  17.278   6.987 -0.0237 -0.0963  0.0994
  196loPI   C1B 3133   3.859  16.482   8.726 -0.0681 -0.3129 -0.0054
  196loPI   C2B 3134   3.814  16.300   8.438  0.0679  0.1066  0.1358
  196loPI   C3B 3135   3.843  16.294   8.095 -0.0865  0.0131  0.0962
  196loPI   C4B 3136   3.698  16.409   7.757  0.0036 -0.1135  0.0202
  197loPI    C1 3137  13.084  11.941  10.342  0.1309 -0.0190  0.0273
  197loPI    C2 3138  13.096  12.180  10.662 -0.0825 -0.0579  0.0656
  197loPI    C3 3139  13.389  11.914  10.600 -0.0293 -0.0355  0.2167
  197loPI   PO4 3140  13.079  12.082  10.149  0.3008 -0.0066 -0.0736
  197loPI   GL1 3141  12.941  12.298   9.728 -0.1194  0.2261  0.1284
  197loPI   GL2 3142  12.621  12.137   9.757  0.0706  0.1743  0.2437
  197loPI   C1A 3143  13.130  12.250   9.279 -0.2917 -0.4302 -0.1089
  197loPI   C2A 3144  12.901  12.216   8.893 -0.1874  0.3118 -0.4058
  197loPI   C3A 3145  12.819  12.331   8.429 -0.0574  0.0532 -0.1335
  197loPI   C4A 3146  12.988  12.669   8.191  0.0997  0.0346 -0.1337
  197loPI   C5A 3147  12.772  13.093   8.048 -0.2565  0.0402 -0.0718
  197loPI   C6A 3148  12.775  13.347   7.709  0.1277  0.0823  0.3378
  197loPI   C1B 3149  12.634  12.177   9.315  0.0148 -0.2810  0.0543
  197loPI   C2B 3150  12.632  12.554   9.153 -0.1304 -0.0817  0.0261
  197loPI   C3B 3151  12.617  12.938   9.062 -0.1746 -0.1640  0.2376
  197loPI   C4B 3152  12.343  13.102   8.923 -0.1902 -0.1051 -0.2983
  198loPI    C1 3153   8.036  10.942   9.720 -0.0087  0.1705 -0.1768
  198loPI    C2 3154   7.794  11.124   9.982  0.0398  0.0224 -0.0269
  198loPI    C3 3155   7.816  10.724   9.974  0.1167  0.0290 -0.1878
  198loPI   PO4 3156   7.986  11.020   9.478 -0.1425 -0.0443  0.0644
  198loPI   GL1 3157   8.133  10.979   9.077  0.2191  0.0858 -0.0511
  198loPI   GL2 3158   8.291  10.697   9.246 -0.0085  0.5067  0.0468
  198loPI   C1A 3159   8.095  10.921   8.684 -0.3912 -0.0205 -0.0171
  198loPI   C2A 3160   7.753  10.973   8.365 -0.5864 -0.0655  0.0896
  198loPI   C3A 3161   7.661  10.891   8.004 -0.0704  0.0542  0.2973
  198loPI   C4A 3162   7.823  11.114   7.544  0.2755  0.0896  0.1453
  198loPI   C5A 3163   8.258  11.285   7.458 -0.2314  0.0576 -0.0317
  198loPI   C6A 3164   8.692  11.326   7.682 -0.0026  0.2345  0.0353
  198loPI   C1B 3165   8.406  10.420   8.878 -0.2993  0.0546 -0.0286
  198loPI   C2B 3166   8.272  10.421   8.505 -0.4127  0.1087  0.0058
  198loPI   C3B 3167   8.093  10.678   8.203  0.0638  0.1655 -0.1204
  198loPI   C4B 3168   8.175  10.989   7.869 -0.1273  0.1129  0.1865
  199loPI    C1 3169  13.168   1.028  10.475 -0.0878  0.1777 -0.1207
  199loPI    C2 3170  13.370   0.825  10.755 -0.2063  0.0246 -0.1449
  199loPI    C3 3171  13.320   1.220  10.791  0.0374  0.0532 -0.1041
  199loPI   PO4 3172  13.013   0.867  10.318 -0.0798 -0.1273 -0.1437
  199loPI   GL1 3173  12.855   1.010   9.991 -0.1925 -0.0215 -0.1267
  199loPI   GL2 3174  12.582   1.083  10.103  0.1531  0.0387  0.1981
  199loPI   C1A 3175  13.045   0.978   9.567 -0.0222  0.0278  0.1305
  199loPI   C2A 3176  12.949   0.945   9.063  0.0257 -0.0626  0.0382
  199loPI   C3A 3177  12.912   0.979   8.669 -0.0316 -0.0250 -0.5298
  199loPI   C4A 3178  12.887   0.957   8.229 -0.0762 -0.0107  0.1334
  199loPI   C5A 3179  12.788   0.757   7.821  0.2067  0.2177 -0.1978
  199loPI   C6A 3180  12.763   0.482   7.519  0.1077 -0.0518 -0.2010
  199loPI   C1B 3181  12.366   0.976   9.650  0.1222 -0.2742 -0.1362
  199loPI   C2B 3182  12.456   1.142   9.343  0.0923 -0.1997  0.0638
  199loPI   C3B 3183  12.367   1.092   8.905  0.0477 -0.2736  0.3577
  199loPI   C4B 3184  12.436   1.175   8.457  0.2771 -0.0220  0.2841
  200loPI    C1 3185  18.053  18.156  10.076 -0.0650  0.4078 -0.0909
  200loPI    C2 3186  18.084  18.452  10.343 -0.2479  0.0381  0.3544
  200loPI    C3 3187  17.990  18.083  10.464  0.0779 -0.2318 -0.1767
  200loPI   PO4 3188  18.237  18.166   9.916 -0.2184  0.0390  0.1106
  200loPI   GL1 3189  18.312  18.094   9.503  0.1304  0.1200  0.0044
  200loPI   GL2 3190  18.354  17.786   9.330  0.0074 -0.1930  0.2331
  200loPI   C1A 3191  18.017  18.322   9.136 -0.2237  0.1402  0.2280
  200loPI   C2A 3192  17.924  18.332   8.700  0.1321 -0.0624 -0.0763
  200loPI   C3A 3193  17.481  18.404   8.449  0.2600 -0.0380 -0.3844
  200loPI   C4A 3194  17.304  18.536   8.043  0.1167  0.2298 -0.1473
  200loPI   C5A 3195  17.317  18.683   7.750 -0.1207 -0.1489 -0.0110
  200loPI   C6A 3196  17.339  18.434   7.381  0.1149  0.0980 -0.1747
  200loPI   C1B 3197  18.001  17.839   8.992  0.3255  0.0964  0.1656
  200loPI   C2B 3198  17.557  17.983   8.685 -0.0123  0.1492 -0.1991
  200loPI   C3B 3199  17.483  17.915   8.199 -0.0460  0.0644  0.3422
  200loPI   C4B 3200  17.400  18.096   7.823 -0.0567  0.0284  0.0562
  201loPI    C1 3201   3.882   4.785  10.552  0.1768 -0.1649 -0.0714
  201loPI    C2 3202   4.052   4.558  10.834  0.0499 -0.3055 -0.1066
  201loPI    C3 3203   3.904   4.918  10.928  0.1265 -0.2961 -0.0213
  201loPI   PO4 3204   3.944   4.807  10.367 -0.0707 -0.3069  0.2067
  201loPI   GL1 3205   4.090   4.988  10.028  0.3817 -0.0486 -0.1101
  201loPI   GL2 3206   4.152   5.263  10.211 -0.0644 -0.0430  0.1663
  201loPI   C1A 3207   4.069   5.037   9.595 -0.1889 -0.0099  0.3448
  201loPI   C2A 3208   4.142   4.999   9.127 -0.1355  0.2108  0.2851
  201loPI   C3A 3209   4.165   5.007   8.731  0.0991 -0.0225  0.2519
  201loPI   C4A 3210   4.112   5.122   8.295 -0.0335 -0.1155  0.2140
  201loPI   C5A 3211   4.004   5.360   7.997 -0.2535 -0.0465 -0.0900
  201loPI   C6A 3212   4.094   5.280   7.503 -0.4783  0.0561  0.2271
  201loPI   C1B 3213   3.964   5.510   9.767 -0.1252  0.0974  0.2146
  201loPI   C2B 3214   4.003   5.426   9.310  0.0829 -0.1851  0.2088
  201loPI   C3B 3215   3.969   5.448   8.831  0.0408 -0.0576 -0.2133
  201loPI   C4B 3216   3.522   5.653   8.730  0.3112  0.1454  0.0229
  202loPI    C1 3217  14.280  12.871  10.375  0.0909  0.0372 -0.0509
  202loPI    C2 3218  14.159  13.029  10.722  0.2923  0.1205 -0.0172
  202loPI    C3 3219  13.969  13.122  10.383  0.2459  0.2292  0.0382
  202loPI   PO4 3220  14.557  12.871  10.324 -0.1743 -0.1715  0.1899
  202loPI   GL1 3221  14.597  12.864   9.917  0.0261 -0.0983 -0.1147
  202loPI   GL2 3222  14.244  12.813   9.870 -0.1250 -0.0214 -0.1526
  202loPI   C1A 3223  14.544  13.136   9.570  0.0919 -0.0369 -0.2626
  202loPI   C2A 3224  14.362  13.285   9.156 -0.3097  0.1415  0.2802
  202loPI   C3A 3225  14.087  13.421   8.934  0.1903 -0.2895  0.0658
  202loPI   C4A 3226  14.103  13.588   8.584  0.1414 -0.1857  0.2642
  202loPI   C5A 3227  14.161  13.497   8.176 -0.4184 -0.1783  0.1865
  202loPI   C6A 3228  14.604  13.375   7.949 -0.1982  0.2714  0.2666
  202loPI   C1B 3229  14.240  12.642   9.466 -0.0141  0.0266 -0.3261
  202loPI   C2B 3230  14.476  12.667   9.103 -0.0183  0.0780  0.2997
  202loPI   C3B 3231  14.627  12.652   8.697 -0.0215  0.0052  0.4756
  202loPI   C4B 3232  14.418  12.907   8.360  0.2464 -0.0529  0.2035
  203loPI    C1 3233   0.407  10.469  10.729  0.1566  0.0908 -0.0588
  203loPI    C2 3234   0.529  10.532  11.105  0.0608  0.0668 -0.0232
  203loPI    C3 3235   0.406  10.168  10.994 -0.1560  0.1340 -0.0071
  203loPI   PO4 3236   0.577  10.626  10.510 -0.0514 -0.3801 -0.0651
  203loPI   GL1 3237   0.474  10.693  10.099 -0.1648  0.2931  0.1499
  203loPI   GL2 3238   0.654  10.962   9.996 -0.0234 -0.0166  0.2262
  203loPI   C1A 3239   0.276  10.585   9.765  0.3280 -0.0205  0.0353
  203loPI   C2A 3240   0.241  10.559   9.225 -0.0527 -0.0357 -0.0684
  203loPI   C3A 3241   0.361  10.634   8.815  0.0643  0.0880  0.0218
  203loPI   C4A 3242   0.340  10.588   8.292 -0.1942  0.1542 -0.1153
  203loPI   C5A 3243   0.152  10.643   7.956  0.2731  0.0110 -0.1052
  203loPI   C6A 3244  -0.245  10.799   7.743  0.0951 -0.3397 -0.1146
  203loPI   C1B 3245   0.440  11.020   9.628  0.1036  0.1325  0.0404
  203loPI   C2B 3246   0.400  11.120   9.142 -0.2445  0.4534  0.1347
  203loPI   C3B 3247   0.383  11.116   8.701 -0.0660  0.1048 -0.0785
  203loPI   C4B 3248   0.376  11.098   8.342  0.0488 -0.0622 -0.2611
  204loPI    C1 3249   8.031  17.126  10.333 -0.0375 -0.0353 -0.0215
  204loPI    C2 3250   8.199  16.837  10.113  0.0969 -0.0916  0.1528
  204loPI    C3 3251   8.266  16.853  10.507 -0.0661  0.0639  0.1755
  204loPI   PO4 3252   8.086  17.396  10.264 -0.0502  0.0945 -0.1209
  204loPI   GL1 3253   8.225  17.714   9.865 -0.1100  0.3465  0.0267
  204loPI   GL2 3254   8.504  17.728   9.642  0.0911  0.0885 -0.1390
  204loPI   C1A 3255   7.966  17.631   9.482  0.1166 -0.1816  0.1671
  204loPI   C2A 3256   7.935  17.450   9.022  0.2291 -0.0096  0.3064
  204loPI   C3A 3257   8.082  17.713   8.601 -0.1689 -0.3370 -0.2037
  204loPI   C4A 3258   8.296  17.842   8.286  0.3518 -0.1815  0.0128
  204loPI   C5A 3259   8.178  17.860   7.796  0.1208 -0.4481 -0.3673
  204loPI   C6A 3260   8.031  17.533   7.620  0.0826 -0.0145 -0.0213
  204loPI   C1B 3261   8.441  17.537   9.168  0.1490  0.1695 -0.0258
  204loPI   C2B 3262   8.412  17.392   8.790  0.0212  0.2137  0.2607
  204loPI   C3B 3263   8.431  17.302   8.417  0.0887 -0.3948  0.1319
  204loPI   C4B 3264   8.348  17.348   8.100  0.0469  0.2112  0.2636
  205loPI    C1 3265   9.538  10.587  10.496 -0.0919  0.0506 -0.1818
  205loPI    C2 3266   9.432  10.972  10.519  0.0628  0.0961 -0.2136
  205loPI    C3 3267   9.726  10.832  10.751 -0.3182 -0.1178  0.1546
  205loPI   PO4 3268   9.510  10.521  10.291 -0.0503  0.0995  0.1126
  205loPI   GL1 3269   9.615  10.397   9.918  0.1278  0.1461 -0.0120
  205loPI   GL2 3270   9.834  10.656   9.779 -0.0819  0.0529  0.0214
  205loPI   C1A 3271   9.975  10.114   9.613  0.1037  0.0647  0.0317
  205loPI   C2A 3272  10.212  10.058   9.250 -0.0649  0.0996 -0.0545
  205loPI   C3A 3273  10.219   9.920   8.891 -0.0473 -0.1462 -0.0161
  205loPI   C4A 3274  10.325   9.523   8.743 -0.1530  0.0282 -0.0244
  205loPI   C5A 3275  10.335   9.415   8.292  0.1111  0.4079 -0.1638
  205loPI   C6A 3276  10.258   9.133   8.018  0.1215  0.0367 -0.1306
  205loPI   C1B 3277   9.744  10.525   9.386 -0.0724  0.5291 -0.3395
  205loPI   C2B 3278   9.928  10.396   8.934  0.0696 -0.2243  0.1087
  205loPI   C3B 3279   9.975  10.225   8.539  0.2936  0.2130 -0.2435
  205loPI   C4B 3280  10.072  10.246   8.062 -0.1020  0.0258  0.1290
  206loPI    C1 3281   4.966   7.409  10.518  0.0408  0.2921  0.2127
  206loPI    C2 3282   4.652   7.217  10.362  0.2897  0.0082  0.0492
  206loPI    C3 3283   4.771   7.135  10.735  0.1317  0.1645  0.1354
  206loPI   PO4 3284   5.213   7.404  10.335  0.0888 -0.2166  0.1444
  206loPI   GL1 3285   5.222   7.343   9.905 -0.0137  0.1626  0.0510
  206loPI   GL2 3286   4.932   7.076   9.854  0.2106  0.1243  0.0044
  206loPI   C1A 3287   5.289   7.387   9.441 -0.1122 -0.1215  0.0083
  206loPI   C2A 3288   5.373   7.457   9.105  0.3797 -0.0949 -0.2228
  206loPI   C3A 3289   5.315   7.407   8.626 -0.0239  0.0604 -0.2016
  206loPI   C4A 3290   5.203   7.546   8.178  0.3088  0.3891 -0.0273
  206loPI   C5A 3291   4.932   7.745   7.796 -0.0311  0.0480  0.0948
  206loPI   C6A 3292   4.856   8.161   7.598 -0.2171  0.3456 -0.0063
  206loPI   C1B 3293   4.893   6.936   9.416 -0.0304  0.1355  0.2091
  206loPI   C2B 3294   5.046   6.629   9.176 -0.1667 -0.1472 -0.0835
  206loPI   C3B 3295   5.214   6.532   8.690  0.1905  0.1701 -0.0723
  206loPI   C4B 3296   5.095   6.846   8.427  0.1459 -0.0170 -0.2432
  207loPI    C1 3297   0.118  15.950   9.817 -0.0483  0.0222 -0.0663
  207loPI    C2 3298  -0.269  15.851   9.821 -0.0493  0.0281 -0.0169
  207loPI    C3 3299  -0.127  16.111  10.089  0.0191 -0.0896  0.0619
  207loPI   PO4 3300   0.162  15.965   9.569  0.1039  0.0400 -0.1494
  207loPI   GL1 3301  -0.075  16.054   9.166  0.2293  0.0559 -0.1301
  207loPI   GL2 3302   0.166  15.882   9.037  0.0222 -0.0453 -0.0116
  207loPI   C1A 3303  -0.430  16.159   8.917 -0.3593 -0.2505 -0.1730
  207loPI   C2A 3304  -0.605  16.149   8.485  0.1868 -0.0686 -0.0484
  207loPI   C3A 3305  -0.768  15.885   8.162  0.0736  0.1725  0.1014
  207loPI   C4A 3306  -0.919  15.757   7.769 -0.1421  0.0235 -0.1818
  207loPI   C5A 3307  -0.829  15.575   7.410  0.0799  0.0054  0.1171
  207loPI   C6A 3308  -0.575  15.230   7.195  0.2381  0.2000  0.1199
  207loPI   C1B 3309   0.254  15.846   8.535  0.0657 -0.1471 -0.1576
  207loPI   C2B 3310   0.182  16.008   8.070  0.1941  0.1413  0.0800
  207loPI   C3B 3311   0.158  16.011   7.707 -0.0631  0.0202 -0.0849
  207loPI   C4B 3312   0.049  15.888   7.354  0.1156  0.0900  0.0171
  208loPI    C1 3313   5.433   2.342  10.585  0.0125  0.0504  0.0632
  208loPI    C2 3314   5.323   2.663  10.796  0.0926 -0.0021  0.1855
  208loPI    C3 3315   5.681   2.654  10.619  0.0258  0.0415  0.0473
  208loPI   PO4 3316   5.284   2.336  10.353 -0.2963 -0.1678  0.1502
  208loPI   GL1 3317   5.170   2.129   9.985  0.1911 -0.0264  0.2287
  208loPI   GL2 3318   5.098   1.897   9.869 -0.0928 -0.2258  0.2395
  208loPI   C1A 3319   5.044   2.368   9.584 -0.0174 -0.2580  0.1582
  208loPI   C2A 3320   5.078   2.313   9.171 -0.0071  0.1693  0.3736
  208loPI   C3A 3321   5.126   2.343   8.636  0.2531 -0.0357  0.1250
  208loPI   C4A 3322   5.075   2.372   8.211 -0.0409 -0.1204 -0.0388
  208loPI   C5A 3323   5.115   2.627   7.939 -0.1928  0.5283  0.1643
  208loPI   C6A 3324   5.497   2.648   7.639 -0.0087 -0.3185  0.0238
  208loPI   C1B 3325   5.159   1.785   9.474 -0.0124 -0.1008  0.2062
  208loPI   C2B 3326   5.177   1.757   8.962 -0.0180 -0.0195  0.2368
  208loPI   C3B 3327   5.229   1.816   8.571 -0.1096  0.1329  0.0077
  208loPI   C4B 3328   5.183   1.893   8.106 -0.1660 -0.1772 -0.0483
  209loPI    C1 3329  17.934  11.747  10.169  0.0462 -0.1130  0.1972
  209loPI    C2 3330  17.782  12.070   9.988 -0.0927 -0.2700  0.0309
  209loPI    C3 3331  17.729  12.018  10.381 -0.2318 -0.1844  0.0242
  209loPI   PO4 3332  18.034  11.518  10.176  0.4900  0.1311 -0.2994
  209loPI   GL1 3333  18.269  11.389   9.839 -0.0513  0.1176  0.1768
  209loPI   GL2 3334  18.442  11.717   9.920  0.0191 -0.1151  0.0798
  209loPI   C1A 3335  18.319  11.266   9.457  0.0739 -0.1886  0.1755
  209loPI   C2A 3336  18.218  11.201   9.016  0.0236 -0.2491  0.2187
  209loPI   C3A 3337  18.222  11.115   8.580  0.0475 -0.2243 -0.1754
  209loPI   C4A 3338  18.310  11.233   8.239 -0.2718  0.0800 -0.1211
  209loPI   C5A 3339  18.445  11.338   7.751 -0.0312 -0.0668  0.2809
  209loPI   C6A 3340  18.689  11.738   7.522  0.0952  0.0576 -0.0237
  209loPI   C1B 3341  18.343  11.760   9.426  0.1433  0.0487  0.2486
  209loPI   C2B 3342  18.363  11.714   9.061 -0.0137  0.1835  0.0885
  209loPI   C3B 3343  18.349  11.576   8.670 -0.2071  0.3793  0.1546
  209loPI   C4B 3344  18.381  11.756   8.284  0.1444  0.1115  0.0974
  210loPI    C1 3345  18.055   3.694  10.372  0.0122 -0.1313  0.0180
  210loPI    C2 3346  18.273   3.440  10.590 -0.0332 -0.0995  0.1011
  210loPI    C3 3347  18.044   3.713  10.771 -0.3256 -0.2861  0.0200
  210loPI   PO4 3348  17.962   3.479  10.129  0.4315 -0.0310 -0.2160
  210loPI   GL1 3349  18.200   3.350   9.816 -0.1415 -0.1452 -0.0865
  210loPI   GL2 3350  18.387   3.175   9.712  0.0343  0.0886 -0.2667
  210loPI   C1A 3351  18.080   3.495   9.395  0.1372 -0.2559  0.1570
  210loPI   C2A 3352  18.146   3.583   8.957 -0.3075  0.3298 -0.1504
  210loPI   C3A 3353  18.213   3.411   8.572 -0.2797 -0.2605  0.2946
  210loPI   C4A 3354  18.076   3.368   8.142  0.2367 -0.0250 -0.0336
  210loPI   C5A 3355  17.790   3.406   7.735  0.0336 -0.3204  0.3303
  210loPI   C6A 3356  17.442   3.461   7.453  0.1144 -0.3435 -0.2281
  210loPI   C1B 3357  18.427   3.129   9.237 -0.0447 -0.0376 -0.3179
  210loPI   C2B 3358  18.057   3.082   8.884 -0.0446  0.1402 -0.0452
  210loPI   C3B 3359  17.925   2.940   8.540  0.3715  0.2401  0.0646
  210loPI   C4B 3360  17.987   2.471   8.393  0.0269 -0.1459 -0.1218
  211loPI    C1 3361   3.365  12.297  10.640  0.2317 -0.0761  0.0764
  211loPI    C2 3362   3.062  12.216  10.888 -0.0317  0.1601 -0.1606
  211loPI    C3 3363   3.261  12.561  10.921  0.1691  0.0363 -0.0514
  211loPI   PO4 3364   3.244  12.224  10.409  0.1447 -0.4587  0.1170
  211loPI   GL1 3365   3.300  12.372   9.960 -0.3002 -0.0583 -0.1993
  211loPI   GL2 3366   2.985  12.490   9.894 -0.1200  0.0272 -0.1127
  211loPI   C1A 3367   3.225  12.279   9.507 -0.0421  0.2592  0.1491
  211loPI   C2A 3368   3.356  12.181   9.088  0.3949  0.1623  0.3014
  211loPI   C3A 3369   3.287  12.039   8.674 -0.5082  0.0241 -0.2443
  211loPI   C4A 3370   3.246  12.101   8.228  0.3627 -0.2206 -0.0032
  211loPI   C5A 3371   3.344  11.970   7.814  0.4029  0.0365  0.0980
  211loPI   C6A 3372   3.636  11.861   7.588  0.3262  0.0975  0.0923
  211loPI   C1B 3373   2.884  12.659   9.592 -0.0135 -0.1111 -0.1493
  211loPI   C2B 3374   2.893  12.530   9.158  0.0715  0.1798  0.4357
  211loPI   C3B 3375   3.010  12.447   8.749  0.0753 -0.4329 -0.0133
  211loPI   C4B 3376   2.779  12.465   8.436  0.1673 -0.3093 -0.0363
  212loPI    C1 3377  16.521   8.918  10.055 -0.0018  0.2126  0.2072
  212loPI    C2 3378  16.639   8.611  10.283  0.2106  0.1010 -0.0482
  212loPI    C3 3379  16.561   8.966  10.450  0.0490 -0.0656  0.2379
  212loPI   PO4 3380  16.712   8.926   9.818  0.0974 -0.1703 -0.0498
  212loPI   GL1 3381  16.953   9.108   9.419 -0.1582 -0.1345  0.4034
  212loPI   GL2 3382  17.171   9.282   9.569 -0.1672 -0.2257 -0.0992
  212loPI   C1A 3383  16.974   8.895   9.035 -0.0211 -0.0603 -0.1603
  212loPI   C2A 3384  17.018   8.685   8.646  0.1468 -0.3275 -0.0596
  212loPI   C3A 3385  17.123   8.356   8.454  0.2897 -0.0724 -0.0747
  212loPI   C4A 3386  17.170   8.206   8.029 -0.3795  0.3078 -0.0569
  212loPI   C5A 3387  17.139   8.127   7.525  0.1515 -0.1414 -0.0272
  212loPI   C6A 3388  16.942   8.199   7.143  0.0768 -0.0370  0.0900
  212loPI   C1B 3389  17.214   9.412   9.127 -0.1680  0.1212  0.0010
  212loPI   C2B 3390  17.177   9.348   8.781  0.1747  0.6843  0.2788
  212loPI   C3B 3391  17.116   9.354   8.274  0.0412  0.1085  0.1288
  212loPI   C4B 3392  17.388   9.270   7.892  0.2027  0.1816 -0.1637
  213loPI    C1 3393   0.160   0.943   9.787  0.0772 -0.1162  0.1611
  213loPI    C2 3394   0.204   1.296   9.971  0.1762 -0.1080  0.1222
  213loPI    C3 3395   0.016   0.996  10.157 -0.1516  0.0491  0.0507
  213loPI   PO4 3396   0.261   1.023   9.469 -0.2381 -0.2276 -0.0975
  213loPI   GL1 3397   0.297   0.861   9.159 -0.0714  0.1181  0.2855
  213loPI   GL2 3398   0.453   0.573   9.238 -0.0193  0.2639  0.1172
  213loPI   C1A 3399  -0.009   1.031   8.874  0.0949  0.1519 -0.0353
  213loPI   C2A 3400  -0.262   1.151   8.474  0.4709 -0.3475  0.2817
  213loPI   C3A 3401  -0.253   0.929   8.147 -0.0718 -0.0969 -0.0434
  213loPI   C4A 3402  -0.404   0.693   7.883 -0.1987 -0.2235  0.0198
  213loPI   C5A 3403  -0.245   0.604   7.426 -0.1556 -0.1119 -0.1668
  213loPI   C6A 3404  -0.417   0.501   7.033 -0.1891  0.0969  0.1340
  213loPI   C1B 3405   0.468   0.558   8.715  0.0089 -0.1351  0.0858
  213loPI   C2B 3406   0.532   0.640   8.224 -0.0217 -0.0902 -0.1219
  213loPI   C3B 3407   0.544   0.704   7.813 -0.3275 -0.2034  0.1108
  213loPI   C4B 3408   0.508   0.802   7.383 -0.3389 -0.1046 -0.1486
  214loPI    C1 3409  12.227  17.419  10.297  0.1587  0.1863  0.3657
  214loPI    C2 3410  12.048  17.098  10.454 -0.3390  0.2633 -0.0170
  214loPI    C3 3411  12.114  17.421  10.681 -0.2229  0.0509  0.2585
  214loPI   PO4 3412  12.327  17.251  10.056  0.1859 -0.0659 -0.0328
  214loPI   GL1 3413  12.501  17.319   9.673  0.0754  0.2167 -0.0496
  214loPI   GL2 3414  12.187  17.140   9.593 -0.2364 -0.0633 -0.0228
  214loPI   C1A 3415  12.457  17.494   9.277 -0.4473  0.5232 -0.0064
  214loPI   C2A 3416  12.514  17.574   8.934  0.0499 -0.2393 -0.3185
  214loPI   C3A 3417  12.533  17.677   8.532  0.0890  0.1814  0.0419
  214loPI   C4A 3418  12.640  17.663   8.043 -0.0057 -0.2508 -0.4477
  214loPI   C5A 3419  12.743  17.646   7.595 -0.4170  0.3491 -0.3747
  214loPI   C6A 3420  12.921  17.564   7.233  0.0019 -0.4312  0.0096
  214loPI   C1B 3421  12.049  17.108   9.135 -0.0372  0.0233  0.3043
  214loPI   C2B 3422  12.110  17.264   8.815 -0.3140 -0.0059  0.0750
  214loPI   C3B 3423  12.149  17.327   8.319  0.1356  0.0474 -0.0467
  214loPI   C4B 3424  12.247  17.403   7.881  0.1472  0.1003  0.2335
  215loPI    C1 3425  10.987   9.416  10.702  0.0659 -0.2520 -0.0517
  215loPI    C2 3426  10.919   9.683  10.992  0.1600 -0.0603 -0.2042
  215loPI    C3 3427  11.292   9.558  10.919  0.1455 -0.0537 -0.2894
  215loPI   PO4 3428  10.880   9.524  10.425  0.0188  0.2623  0.0783
  215loPI   GL1 3429  10.750   9.425  10.038 -0.0480  0.1040  0.1095
  215loPI   GL2 3430  11.046   9.402   9.780 -0.0735  0.1945  0.0084
  215loPI   C1A 3431  10.586   9.597   9.632 -0.2939  0.0537 -0.1015
  215loPI   C2A 3432  10.400   9.550   9.239  0.4084 -0.0579  0.0017
  215loPI   C3A 3433  10.284   9.120   9.076 -0.1213  0.1747 -0.1103
  215loPI   C4A 3434  10.265   8.979   8.664  0.2208 -0.2521 -0.3839
  215loPI   C5A 3435   9.877   8.983   8.365 -0.0252  0.1682 -0.2714
  215loPI   C6A 3436   9.685   8.804   8.031  0.0641  0.3997 -0.1664
  215loPI   C1B 3437  11.052   9.586   9.366 -0.1482 -0.0563  0.1484
  215loPI   C2B 3438  11.096   9.622   8.915 -0.0427  0.0142 -0.2228
  215loPI   C3B 3439  11.305   9.462   8.545  0.1645  0.1605 -0.2745
  215loPI   C4B 3440  11.134   9.130   8.346  0.0008  0.0515  0.0166
  216loPI    C1 3441   1.481   7.096  10.438 -0.0648  0.0930 -0.5018
  216loPI    C2 3442   1.664   6.765  10.567 -0.0040  0.2821 -0.0838
  216loPI    C3 3443   1.864   7.110  10.552 -0.1389  0.3543 -0.2742
  216loPI   PO4 3444   1.392   7.070  10.147 -0.0286  0.2371  0.3754
  216loPI   GL1 3445   1.514   6.985   9.713  0.3120  0.5290  0.0258
  216loPI   GL2 3446   1.731   7.273   9.683 -0.4123 -0.2284  0.0108
  216loPI   C1A 3447   1.407   6.596   9.459 -0.3407 -0.0076 -0.0608
  216loPI   C2A 3448   1.468   6.544   8.988 -0.0993  0.1200 -0.2819
  216loPI   C3A 3449   1.597   6.618   8.582 -0.0883 -0.0540  0.1369
  216loPI   C4A 3450   1.762   6.540   8.237 -0.1909  0.0219 -0.2215
  216loPI   C5A 3451   1.878   6.589   7.773  0.0673  0.0134  0.0384
  216loPI   C6A 3452   2.231   6.724   7.638 -0.1845  0.2153 -0.1568
  216loPI   C1B 3453   1.787   7.209   9.323  0.0849  0.2553 -0.1250
  216loPI   C2B 3454   1.704   7.149   8.907 -0.0053 -0.0908 -0.3127
  216loPI   C3B 3455   1.551   7.134   8.427 -0.1320 -0.0461 -0.2601
  216loPI   C4B 3456   1.642   6.984   7.984 -0.1146  0.3107  0.1985
  217loPI    C1 3457  16.160  14.557  10.227  0.0684 -0.2788 -0.0953
  217loPI    C2 3458  16.451  14.694  10.465 -0.1689  0.2426 -0.0919
  217loPI    C3 3459  16.157  14.468  10.617 -0.0003  0.0739 -0.0122
  217loPI   PO4 3460  16.092  14.795  10.087 -0.1076 -0.1947 -0.1272
  217loPI   GL1 3461  15.770  14.804   9.784  0.0700 -0.0584  0.1420
  217loPI   GL2 3462  15.982  15.032   9.609 -0.0427 -0.2592  0.0511
  217loPI   C1A 3463  15.595  14.920   9.272  0.3164 -0.0917 -0.3810
  217loPI   C2A 3464  15.714  15.129   8.889  0.1574  0.0722  0.2400
  217loPI   C3A 3465  15.990  15.236   8.473 -0.1095 -0.0298  0.3341
  217loPI   C4A 3466  16.040  15.467   8.085  0.2360 -0.1928 -0.2968
  217loPI   C5A 3467  16.208  15.310   7.682 -0.1985 -0.0155 -0.1840
  217loPI   C6A 3468  16.447  15.154   7.277  0.4437  0.0262 -0.1085
  217loPI   C1B 3469  16.052  14.750   9.146  0.1791  0.3732 -0.1566
  217loPI   C2B 3470  16.029  14.751   8.600  0.3264 -0.0963  0.0541
  217loPI   C3B 3471  15.997  14.787   8.098  0.2229  0.3348  0.1895
  217loPI   C4B 3472  15.800  15.074   7.806  0.3688 -0.0350 -0.0883
  218loPI    C1 3473  15.128   6.987   9.866 -0.2358  0.1059  0.0929
  218loPI    C2 3474  15.405   7.110  10.127 -0.0534  0.1920 -0.1377
  218loPI    C3 3475  15.048   6.986  10.258  0.1250 -0.0094  0.1702
  218loPI   PO4 3476  15.301   6.925   9.671  0.0100 -0.0217 -0.1690
  218loPI   GL1 3477  15.362   6.647   9.433 -0.2396 -0.0852  0.0022
  218loPI   GL2 3478  15.738   6.541   9.418  0.0436  0.4514  0.0096
  218loPI   C1A 3479  15.408   6.620   9.008 -0.0236  0.0226  0.2944
  218loPI   C2A 3480  15.320   6.831   8.588  0.0069  0.1137 -0.1751
  218loPI   C3A 3481  15.037   6.974   8.191 -0.3110 -0.1240 -0.0848
  218loPI   C4A 3482  15.001   7.187   7.829 -0.0398 -0.0837 -0.0163
  218loPI   C5A 3483  15.224   7.527   7.989  0.5740 -0.1273 -0.2699
  218loPI   C6A 3484  15.423   7.701   8.296  0.0233 -0.0446 -0.3245
  218loPI   C1B 3485  16.006   6.703   9.171 -0.0183  0.0668  0.2398
  218loPI   C2B 3486  16.229   6.692   8.812  0.0416  0.0095  0.1301
  218loPI   C3B 3487  16.539   6.835   8.665  0.2013  0.3429 -0.0190
  218loPI   C4B 3488  16.825   7.094   8.805 -0.1422 -0.2288 -0.0348
  219loPI    C1 3489   5.076   7.889  10.625 -0.0094 -0.1177 -0.0437
  219loPI    C2 3490   5.046   8.234  10.826  0.2325 -0.0953 -0.0428
  219loPI    C3 3491   5.072   7.889  11.025  0.0642 -0.1092 -0.0430
  219loPI   PO4 3492   5.179   7.902  10.417 -0.2620 -0.1389 -0.2695
  219loPI   GL1 3493   5.491   7.814  10.139 -0.1045 -0.1411 -0.1025
  219loPI   GL2 3494   5.669   7.568  10.105  0.0607 -0.1091 -0.0048
  219loPI   C1A 3495   5.256   7.861   9.678 -0.0344  0.0151 -0.1260
  219loPI   C2A 3496   5.253   8.025   9.191  0.3701 -0.0617 -0.2931
  219loPI   C3A 3497   5.356   8.133   8.799  0.1112  0.0501  0.1295
  219loPI   C4A 3498   5.283   8.013   8.406 -0.1218 -0.2060 -0.1035
  219loPI   C5A 3499   5.163   8.185   8.018 -0.0055 -0.2292 -0.0643
  219loPI   C6A 3500   4.743   8.493   7.993 -0.0618 -0.0907 -0.1669
  219loPI   C1B 3501   5.671   7.662   9.600  0.4199 -0.0444  0.2036
  219loPI   C2B 3502   5.751   7.750   9.191 -0.1183 -0.0293 -0.0016
  219loPI   C3B 3503   5.752   7.669   8.716 -0.1629  0.2455  0.1052
  219loPI   C4B 3504   5.686   7.713   8.304  0.1925  0.2128 -0.0350
  220loPI    C1 3505  16.521  12.624  10.656 -0.3235  0.2489 -0.1482
  220loPI    C2 3506  16.726  12.958  10.738 -0.1243  0.1271 -0.1450
  220loPI    C3 3507  16.599  12.723  11.036  0.3248 -0.1504 -0.1635
  220loPI   PO4 3508  16.632  12.435  10.439  0.0755  0.0061 -0.2806
  220loPI   GL1 3509  16.376  12.338  10.037  0.0869 -0.1241  0.1131
  220loPI   GL2 3510  16.581  12.061   9.817  0.2615  0.2227 -0.1980
  220loPI   C1A 3511  16.321  12.424   9.555  0.0207  0.0395 -0.1804
  220loPI   C2A 3512  16.262  12.417   9.197  0.1405 -0.0385  0.2087
  220loPI   C3A 3513  16.282  12.474   8.795 -0.0791 -0.0303 -0.1592
  220loPI   C4A 3514  16.190  12.402   8.416  0.1286  0.0258 -0.0122
  220loPI   C5A 3515  16.104  12.314   7.941 -0.2779  0.0515 -0.1616
  220loPI   C6A 3516  15.786  12.246   7.733  0.0324 -0.2573  0.1680
  220loPI   C1B 3517  16.585  12.017   9.283 -0.0690 -0.0116  0.2933
  220loPI   C2B 3518  16.605  12.163   8.924  0.0438 -0.2201 -0.0374
  220loPI   C3B 3519  16.632  12.072   8.532 -0.2872 -0.2182 -0.3741
  220loPI   C4B 3520  16.592  12.197   8.054 -0.0886  0.2943 -0.3241
  221loPI    C1 3521   0.434  14.458  10.196  0.1356  0.1321 -0.0829
  221loPI    C2 3522   0.699  14.528  10.487 -0.0510  0.0349  0.1142
  221loPI    C3 3523   0.686  14.169  10.311 -0.0325  0.0493  0.0831
  221loPI   PO4 3524   0.493  14.607   9.956 -0.1654 -0.5837 -0.2429
  221loPI   GL1 3525   0.228  14.644   9.615 -0.2839  0.3367 -0.0132
  221loPI   GL2 3526   0.076  14.343   9.474  0.0973  0.2190 -0.0433
  221loPI   C1A 3527   0.048  14.827   9.144 -0.1751 -0.2706 -0.0722
  221loPI   C2A 3528   0.052  14.746   8.724 -0.0031  0.1978 -0.0216
  221loPI   C3A 3529  -0.053  14.807   8.387  0.0575 -0.1010  0.2170
  221loPI   C4A 3530  -0.150  15.127   8.039 -0.3504 -0.0674 -0.2811
  221loPI   C5A 3531  -0.253  15.094   7.606  0.2041  0.0098  0.0389
  221loPI   C6A 3532  -0.518  14.781   7.465  0.0323 -0.0023 -0.2114
  221loPI   C1B 3533   0.031  14.304   9.008 -0.1508  0.1283  0.2822
  221loPI   C2B 3534  -0.103  14.291   8.548  0.0611 -0.0235 -0.4527
  221loPI   C3B 3535  -0.133  14.128   8.213 -0.0545 -0.1976 -0.1736
  221loPI   C4B 3536   0.013  14.059   7.762  0.1613  0.1753 -0.1999
  222loPI    C1 3537  17.126   2.827  10.124 -0.3510 -0.1541  0.0609
  222loPI    C2 3538  17.279   2.714  10.476  0.0666  0.3503  0.0528
  222loPI    C3 3539  17.075   3.057  10.447 -0.2353  0.1587 -0.1392
  222loPI   PO4 3540  17.336   2.836   9.962  0.3003  0.0301  0.0399
  222loPI   GL1 3541  17.348   2.896   9.536  0.0000 -0.0597 -0.0791
  222loPI   GL2 3542  17.122   2.744   9.312  0.0451 -0.0773 -0.3393
  222loPI   C1A 3543  17.593   2.574   9.342 -0.3601 -0.2464 -0.0508
  222loPI   C2A 3544  17.369   2.337   9.129  0.1793 -0.2166  0.0331
  222loPI   C3A 3545  17.117   2.053   8.850  0.0726 -0.1101 -0.2356
  222loPI   C4A 3546  16.712   1.997   8.679  0.1468 -0.2724  0.1265
  222loPI   C5A 3547  16.603   2.086   8.219  0.0425  0.1124  0.0556
  222loPI   C6A 3548  16.620   2.442   7.992 -0.1823 -0.1274 -0.1391
  222loPI   C1B 3549  16.842   2.418   9.173 -0.2337  0.1724 -0.0566
  222loPI   C2B 3550  16.764   2.605   8.764  0.3831 -0.2492 -0.0776
  222loPI   C3B 3551  16.664   2.774   8.337  0.2367  0.0867 -0.3351
  222loPI   C4B 3552  17.002   2.810   7.992 -0.0970 -0.1654 -0.1709
  223loPI    C1 3553  18.139  12.269  10.412 -0.1242  0.0630  0.1303
  223loPI    C2 3554  18.256  11.900  10.514  0.0369  0.0838  0.0251
  223loPI    C3 3555  18.340  12.210  10.753  0.1554  0.0917 -0.0259
  223loPI   PO4 3556  18.168  12.337  10.202  0.0231 -0.0798  0.1107
  223loPI   GL1 3557  18.238  12.133   9.843 -0.0365  0.0233 -0.3890
  223loPI   GL2 3558  18.353  12.292   9.732  0.0748  0.2115 -0.1329
  223loPI   C1A 3559  17.949  12.140   9.447  0.1638 -0.1141  0.0405
  223loPI   C2A 3560  17.936  12.060   9.049 -0.1142  0.2529 -0.0487
  223loPI   C3A 3561  18.009  11.982   8.655  0.2596 -0.2599  0.2659
  223loPI   C4A 3562  17.983  12.095   8.169 -0.2072 -0.0966  0.2270
  223loPI   C5A 3563  17.947  12.125   7.685  0.0170  0.4477 -0.2037
  223loPI   C6A 3564  18.188  11.753   7.481  0.0503 -0.0814 -0.0960
  223loPI   C1B 3565  18.458  12.379   9.329  0.1060 -0.1358  0.0082
  223loPI   C2B 3566  18.467  12.231   8.878 -0.0246 -0.2776  0.0655
  223loPI   C3B 3567  18.438  12.249   8.412  0.0345  0.1283  0.1741
  223loPI   C4B 3568  18.421  12.091   7.961 -0.1027 -0.1136 -0.0035
  224loPI    C1 3569   8.310  10.600  10.037 -0.1258 -0.0581 -0.1268
  224loPI    C2 3570   8.613  10.426  10.231 -0.0983 -0.0645 -0.1754
  224loPI    C3 3571   8.491  10.792  10.338 -0.1386 -0.1023 -0.0906
  224loPI   PO4 3572   8.263  10.479   9.801 -0.0128  0.0239 -0.2529
  224loPI   GL1 3573   8.557  10.291   9.575  0.0038  0.0126  0.1431
  224loPI   GL2 3574   8.779  10.499   9.546  0.1081 -0.2064  0.0587
  224loPI   C1A 3575   8.654  10.174   9.162  0.2015  0.1663  0.0361
  224loPI   C2A 3576   8.684  10.051   8.754  0.0161 -0.1911  0.1590
  224loPI   C3A 3577   8.669  10.170   8.301 -0.0882 -0.1394  0.1389
  224loPI   C4A 3578   8.563  10.483   8.038 -0.0950 -0.2652  0.1382
  224loPI   C5A 3579   8.584  10.716   7.677  0.0804 -0.2629 -0.1684
  224loPI   C6A 3580   8.745  11.000   7.296 -0.1468 -0.3740 -0.1480
  224loPI   C1B 3581   8.914  10.535   9.076  0.0331 -0.2441  0.0416
  224loPI   C2B 3582   8.990  10.532   8.565 -0.0791  0.1504 -0.0542
  224loPI   C3B 3583   9.118  10.577   8.156  0.2559  0.3091  0.0663
  224loPI   C4B 3584   9.286  10.542   7.779 -0.0762 -0.0491 -0.0565
  225loPI    C1 3585  14.827   0.552  10.147  0.0197 -0.2382 -0.0029
  225loPI    C2 3586  14.911   0.625  10.531 -0.1876  0.0518 -0.0093
  225loPI    C3 3587  15.098   0.329  10.338 -0.1174 -0.1276  0.3271
  225loPI   PO4 3588  14.738   0.778  10.101  0.2219  0.2584 -0.1100
  225loPI   GL1 3589  14.965   1.035   9.860 -0.1594  0.0162 -0.4086
  225loPI   GL2 3590  14.916   0.833   9.637  0.2059  0.2379  0.1545
  225loPI   C1A 3591  14.764   1.327   9.501  0.4152 -0.0023  0.0089
  225loPI   C2A 3592  14.733   1.416   9.108 -0.1092  0.1019 -0.2695
  225loPI   C3A 3593  14.695   1.389   8.651 -0.0080  0.0101 -0.1302
  225loPI   C4A 3594  14.638   1.345   8.208 -0.0345 -0.0244  0.0230
  225loPI   C5A 3595  14.525   1.295   7.834  0.1000  0.0530  0.1250
  225loPI   C6A 3596  14.782   1.047   7.542  0.0243 -0.2868  0.1469
  225loPI   C1B 3597  14.775   0.839   9.243  0.2069  0.0277  0.0095
  225loPI   C2B 3598  14.743   0.976   8.871 -0.0513  0.2475 -0.3394
  225loPI   C3B 3599  14.797   0.917   8.401 -0.0382 -0.3757  0.0248
  225loPI   C4B 3600  14.700   0.877   8.035  0.2836 -0.1181  0.1826
  226loPI    C1 3601  15.373   8.476  10.067  0.0249 -0.1946  0.1587
  226loPI    C2 3602  15.674   8.689  10.223  0.0095 -0.1645  0.1471
  226loPI    C3 3603  15.433   8.478  10.462 -0.0891 -0.0203  0.1758
  226loPI   PO4 3604  15.244   8.601   9.888 -0.0159 -0.1157 -0.1388
  226loPI   GL1 3605  15.237   8.819   9.591  0.4822 -0.1204 -0.0913
  226loPI   GL2 3606  15.623   8.865   9.470  0.0757  0.0904  0.0150
  226loPI   C1A 3607  15.133   8.752   9.153 -0.0730  0.0252  0.1750
  226loPI   C2A 3608  15.114   8.699   8.788  0.1048 -0.1327  0.0440
  226loPI   C3A 3609  15.214   8.581   8.309  0.0397  0.0918 -0.1079
  226loPI   C4A 3610  15.113   8.680   7.798 -0.2309  0.2278  0.0071
  226loPI   C5A 3611  15.144   8.946   7.402  0.1975 -0.0096  0.3039
  226loPI   C6A 3612  15.480   9.263   7.426  0.1265  0.2189 -0.1075
  226loPI   C1B 3613  15.600   8.842   9.002 -0.4844 -0.3489 -0.1660
  226loPI   C2B 3614  15.657   8.846   8.566 -0.1525 -0.0240 -0.1881
  226loPI   C3B 3615  15.656   8.807   8.235 -0.1959 -0.2085  0.0213
  226loPI   C4B 3616  15.809   8.827   7.746  0.0164 -0.2633  0.0879
  227loPI    C1 3617   2.091   9.009  10.251  0.1905 -0.3263 -0.0634
  227loPI    C2 3618   2.080   8.898  10.635 -0.0064 -0.3128 -0.0642
  227loPI    C3 3619   1.768   8.824  10.396 -0.0292 -0.0070 -0.1338
  227loPI   PO4 3620   2.427   8.953  10.212  0.1839  0.0041  0.2655
  227loPI   GL1 3621   2.518   9.271   9.895 -0.2876 -0.0526 -0.1656
  227loPI   GL2 3622   2.221   9.296   9.869  0.2368 -0.1152  0.2461
  227loPI   C1A 3623   2.749   9.550   9.509 -0.1256 -0.1124 -0.0758
  227loPI   C2A 3624   2.855   9.535   9.046  0.0922  0.1148 -0.0879
  227loPI   C3A 3625   2.794   9.640   8.539 -0.0068 -0.1831 -0.2481
  227loPI   C4A 3626   2.792   9.594   8.120  0.0804 -0.0068 -0.1556
  227loPI   C5A 3627   2.884   9.495   7.719 -0.1626 -0.3727 -0.4946
  227loPI   C6A 3628   3.232   9.510   7.524 -0.1997  0.0474  0.1824
  227loPI   C1B 3629   2.335   9.291   9.359 -0.1358 -0.0990 -0.1645
  227loPI   C2B 3630   2.386   9.368   8.928  0.0569  0.0003 -0.1612
  227loPI   C3B 3631   2.329   9.419   8.566 -0.1873 -0.1564  0.1624
  227loPI   C4B 3632   2.303   9.495   8.254 -0.0167  0.3931  0.1881
  228loPI    C1 3633  14.666  17.561  10.369 -0.1205  0.0733  0.0038
  228loPI    C2 3634  14.551  17.944  10.372 -0.2889  0.0233  0.1020
  228loPI    C3 3635  14.601  17.748  10.717 -0.0734 -0.0056  0.0553
  228loPI   PO4 3636  14.623  17.491  10.106  0.1597 -0.2402  0.1163
  228loPI   GL1 3637  14.814  17.390   9.753 -0.0896 -0.2681  0.1140
  228loPI   GL2 3638  14.518  17.349   9.664  0.4352  0.2417 -0.0439
  228loPI   C1A 3639  14.937  17.244   9.236  0.0412 -0.1605 -0.2507
  228loPI   C2A 3640  14.798  17.185   8.796 -0.1853  0.1134 -0.0164
  228loPI   C3A 3641  14.877  17.137   8.348  0.0640 -0.0073 -0.4338
  228loPI   C4A 3642  14.916  16.829   7.879 -0.0316  0.0311  0.0223
  228loPI   C5A 3643  14.916  16.807   7.509  0.0713  0.2284  0.0105
  228loPI   C6A 3644  15.078  16.416   7.400  0.4171  0.0741  0.3408
  228loPI   C1B 3645  14.485  17.328   9.163  0.3031 -0.1174  0.1122
  228loPI   C2B 3646  14.314  17.379   8.750 -0.1636  0.1901 -0.0685
  228loPI   C3B 3647  14.373  17.341   8.300 -0.2956  0.2505  0.1543
  228loPI   C4B 3648  14.749  17.302   7.897 -0.3326  0.4227  0.0712
  229loPI    C1 3649   7.574   8.463  10.035 -0.1164 -0.2627  0.2683
  229loPI    C2 3650   7.547   8.729  10.333 -0.0126  0.1059 -0.0431
  229loPI    C3 3651   7.905   8.586  10.224 -0.0610 -0.1094  0.0750
  229loPI   PO4 3652   7.442   8.541   9.888 -0.1176  0.1304 -0.1752
  229loPI   GL1 3653   7.550   8.581   9.479 -0.0555 -0.1781  0.3436
  229loPI   GL2 3654   7.670   8.811   9.413 -0.0613  0.1391 -0.0869
  229loPI   C1A 3655   7.625   8.218   9.208  0.0839 -0.1332  0.2141
  229loPI   C2A 3656   7.516   8.158   8.792  0.1270 -0.0724  0.2111
  229loPI   C3A 3657   7.574   8.101   8.327  0.0568  0.4104 -0.0552
  229loPI   C4A 3658   7.404   8.075   7.832  0.2077  0.2143  0.1051
  229loPI   C5A 3659   7.115   7.940   7.561 -0.1565 -0.1235 -0.3073
  229loPI   C6A 3660   6.902   7.734   7.317 -0.2028 -0.3329 -0.2004
  229loPI   C1B 3661   7.880   8.758   9.107  0.0263  0.2787  0.1190
  229loPI   C2B 3662   7.893   8.855   8.619 -0.3195  0.0565 -0.0566
  229loPI   C3B 3663   7.984   8.576   8.340  0.3207 -0.3160  0.2640
  229loPI   C4B 3664   8.012   8.196   8.069 -0.3321 -0.2437 -0.0012
  230loPI    C1 3665  13.888   7.667  10.356 -0.1641 -0.2045  0.1297
  230loPI    C2 3666  14.002   8.024  10.495  0.0792 -0.1690 -0.1520
  230loPI    C3 3667  13.626   7.900  10.548 -0.0495  0.1948 -0.1849
  230loPI   PO4 3668  13.894   7.695  10.030  0.1497 -0.0280  0.0270
  230loPI   GL1 3669  13.875   7.616   9.533 -0.1797  0.2140  0.2288
  230loPI   GL2 3670  13.953   7.985   9.567  0.0922  0.0769  0.0015
  230loPI   C1A 3671  14.102   7.424   9.205 -0.0436  0.1423 -0.1564
  230loPI   C2A 3672  14.019   7.186   8.927 -0.0465 -0.0212  0.0889
  230loPI   C3A 3673  14.052   7.221   8.458 -0.0261 -0.0807  0.2601
  230loPI   C4A 3674  14.114   7.178   8.061  0.0994  0.3980 -0.1504
  230loPI   C5A 3675  13.879   7.174   7.711 -0.2665  0.5218 -0.0954
  230loPI   C6A 3676  13.740   6.901   7.365  0.0898 -0.0205  0.0407
  230loPI   C1B 3677  14.019   7.936   9.161 -0.1939  0.2534  0.0443
  230loPI   C2B 3678  14.051   7.833   8.800  0.1366 -0.0545  0.0926
  230loPI   C3B 3679  13.977   7.748   8.482  0.0670  0.1949  0.0022
  230loPI   C4B 3680  14.142   7.671   8.026 -0.2098  0.0192  0.0096
  231loPI    C1 3681  10.487  15.470   9.897  0.0940  0.0084  0.2175
  231loPI    C2 3682  10.224  15.281  10.131  0.1262 -0.0483  0.2084
  231loPI    C3 3683  10.614  15.265  10.216  0.1328 -0.0217  0.1829
  231loPI   PO4 3684  10.424  15.457   9.525 -0.0446  0.2903 -0.3512
  231loPI   GL1 3685  10.319  15.139   9.208 -0.2949 -0.0450 -0.0911
  231loPI   GL2 3686  10.476  14.884   9.098  0.2417  0.3396 -0.1993
  231loPI   C1A 3687   9.972  15.310   9.057  0.0727  0.0080  0.0749
  231loPI   C2A 3688   9.881  15.476   8.674  0.2723  0.0350 -0.0211
  231loPI   C3A 3689   9.652  15.464   8.386 -0.3218  0.1934  0.1192
  231loPI   C4A 3690   9.659  15.492   7.939 -0.0871 -0.0018  0.0883
  231loPI   C5A 3691   9.795  15.581   7.566 -0.0080  0.0519  0.0581
  231loPI   C6A 3692  10.082  15.833   7.382  0.2989 -0.1250 -0.0649
  231loPI   C1B 3693  10.414  14.921   8.714 -0.0600  0.0918  0.1260
  231loPI   C2B 3694  10.440  15.025   8.366 -0.1119  0.2462 -0.2985
  231loPI   C3B 3695  10.353  15.116   7.927 -0.0628  0.3400 -0.0495
  231loPI   C4B 3696  10.222  15.420   7.724 -0.0243  0.2134  0.1950
  232loPI    C1 3697  13.142  13.764  10.405  0.2598 -0.0566 -0.0421
  232loPI    C2 3698  13.533  13.782  10.491  0.2021 -0.1230  0.2425
  232loPI    C3 3699  13.285  14.068  10.622  0.1673 -0.0308 -0.0172
  232loPI   PO4 3700  13.195  13.657  10.063  0.1799  0.1075  0.2928
  232loPI   GL1 3701  13.286  13.276   9.792 -0.1886  0.0224  0.0271
  232loPI   GL2 3702  13.151  13.505   9.611 -0.0233  0.1358 -0.2489
  232loPI   C1A 3703  13.499  12.940   9.499  0.0737  0.1327 -0.2670
  232loPI   C2A 3704  13.511  13.076   9.119  0.0053  0.1904  0.2593
  232loPI   C3A 3705  13.565  12.879   8.704  0.1507 -0.1090 -0.2227
  232loPI   C4A 3706  13.438  12.843   8.300 -0.0960 -0.1427  0.0246
  232loPI   C5A 3707  13.415  12.705   7.824  0.1456 -0.0108 -0.0077
  232loPI   C6A 3708  13.697  12.957   7.617  0.3440 -0.0247  0.2400
  232loPI   C1B 3709  13.016  13.786   9.319  0.0162 -0.1292 -0.2395
  232loPI   C2B 3710  13.246  13.879   8.899  0.1777  0.0566 -0.2125
  232loPI   C3B 3711  13.498  13.841   8.514  0.2716  0.2451 -0.2791
  232loPI   C4B 3712  13.393  13.647   8.198 -0.2445  0.0112 -0.1182
  233loPI    C1 3713   8.218   1.947  10.279 -0.1737  0.0266 -0.0444
  233loPI    C2 3714   7.974   1.651  10.393 -0.1138 -0.0552 -0.1271
  233loPI    C3 3715   8.086   1.931  10.656 -0.1234 -0.1390 -0.0329
  233loPI   PO4 3716   8.228   1.863   9.978  0.1065  0.3721 -0.0558
  233loPI   GL1 3717   8.063   2.067   9.634  0.1011  0.1312  0.1870
  233loPI   GL2 3718   7.965   2.321   9.678 -0.0506 -0.5151  0.0676
  233loPI   C1A 3719   8.323   2.316   9.325 -0.1575 -0.0193 -0.1932
  233loPI   C2A 3720   8.379   2.254   8.922  0.1449  0.0673  0.3903
  233loPI   C3A 3721   8.205   2.260   8.444  0.1789  0.0862 -0.1727
  233loPI   C4A 3722   8.393   2.229   7.959 -0.0002  0.2427 -0.0529
  233loPI   C5A 3723   8.292   2.061   7.604  0.1665 -0.2626  0.1265
  233loPI   C6A 3724   8.381   1.756   7.224  0.3861  0.2118 -0.0726
  233loPI   C1B 3725   7.839   2.393   9.144  0.0653  0.1422  0.3353
  233loPI   C2B 3726   7.862   2.394   8.724 -0.0700 -0.1296  0.0862
  233loPI   C3B 3727   7.734   2.369   8.333 -0.1289 -0.0563 -0.0002
  233loPI   C4B 3728   7.581   2.600   8.074 -0.1936 -0.0978  0.1516
  234loPI    C1 3729   1.516  12.660  10.381  0.0385  0.1744 -0.0571
  234loPI    C2 3730   1.427  12.938  10.654 -0.1615  0.0374  0.0193
  234loPI    C3 3731   1.473  12.556  10.765  0.1066  0.0373 -0.0857
  234loPI   PO4 3732   1.686  12.774  10.205  0.2609  0.2624 -0.0951
  234loPI   GL1 3733   1.725  12.626   9.834 -0.1602 -0.5756 -0.0977
  234loPI   GL2 3734   1.438  12.642   9.733 -0.2377  0.1002  0.1983
  234loPI   C1A 3735   1.915  12.796   9.482 -0.1587  0.4417 -0.0939
  234loPI   C2A 3736   1.960  12.748   9.015  0.2188 -0.1984  0.1185
  234loPI   C3A 3737   1.894  12.628   8.579  0.1581  0.0120 -0.2459
  234loPI   C4A 3738   1.907  12.703   8.202  0.1579 -0.2357 -0.3177
  234loPI   C5A 3739   2.083  12.789   7.796  0.1089  0.0325  0.0303
  234loPI   C6A 3740   1.983  12.782   7.369  0.0820  0.2466  0.0284
  234loPI   C1B 3741   1.496  12.514   9.290 -0.0867 -0.1515 -0.0236
  234loPI   C2B 3742   1.451  12.579   8.872 -0.2312  0.1147  0.1760
  234loPI   C3B 3743   1.397  12.517   8.471 -0.2730 -0.2178 -0.2239
  234loPI   C4B 3744   1.470  12.479   8.112  0.0861  0.2035 -0.2771
  235loPI    C1 3745   9.432   4.076  10.615  0.0925 -0.1708  0.1909
  235loPI    C2 3746   9.491   4.060  11.010 -0.1064 -0.2223  0.2199
  235loPI    C3 3747   9.185   3.861  10.846 -0.2400  0.0875  0.0845
  235loPI   PO4 3748   9.599   4.027  10.430  0.0923 -0.2200  0.1834
  235loPI   GL1 3749   9.926   4.042  10.113  0.0579  0.2036 -0.0256
  235loPI   GL2 3750   9.628   4.123   9.921 -0.1139 -0.4889 -0.1960
  235loPI   C1A 3751  10.118   3.776   9.706 -0.0333 -0.1236 -0.0261
  235loPI   C2A 3752  10.050   3.628   9.309  0.1789 -0.1447  0.2502
  235loPI   C3A 3753   9.968   3.601   8.935 -0.0267 -0.0492 -0.0320
  235loPI   C4A 3754   9.990   3.537   8.509 -0.0727  0.2042  0.4815
  235loPI   C5A 3755   9.884   3.509   8.127  0.0842 -0.1128 -0.0033
  235loPI   C6A 3756   9.667   3.400   7.859 -0.1821 -0.1965 -0.3368
  235loPI   C1B 3757   9.360   4.208   9.582 -0.2255  0.0432 -0.3003
  235loPI   C2B 3758   9.322   4.275   9.146  0.2894 -0.1080  0.0368
  235loPI   C3B 3759   9.318   4.283   8.677  0.0577  0.0405 -0.1422
  235loPI   C4B 3760   9.366   4.252   8.154  0.0015 -0.0404 -0.1248
  236loPI    C1 3761   7.245  13.501  10.600 -0.0789 -0.1702 -0.1119
  236loPI    C2 3762   7.047  13.833  10.499  0.1257 -0.0637 -0.1670
  236loPI    C3 3763   6.905  13.597  10.789 -0.0243  0.0679 -0.1316
  236loPI   PO4 3764   7.427  13.469  10.436  0.1730 -0.3022 -0.1527
  236loPI   GL1 3765   7.551  13.542  10.001  0.0567 -0.0628 -0.2711
  236loPI   GL2 3766   7.217  13.598  10.013 -0.1920 -0.0006  0.5099
  236loPI   C1A 3767   7.512  13.373   9.589 -0.0412 -0.1541  0.2255
  236loPI   C2A 3768   7.555  13.433   9.101 -0.0211  0.0556 -0.4172
  236loPI   C3A 3769   7.550  13.472   8.657  0.0021  0.1651 -0.0958
  236loPI   C4A 3770   7.552  13.392   8.178  0.2327  0.1171  0.0411
  236loPI   C5A 3771   7.604  13.644   7.988 -0.1078  0.2460 -0.1069
  236loPI   C6A 3772   7.537  13.815   7.659  0.0049  0.0145 -0.0085
  236loPI   C1B 3773   7.052  13.564   9.582  0.0311 -0.0325 -0.2710
  236loPI   C2B 3774   6.801  13.632   9.195  0.0744  0.0137 -0.2868
  236loPI   C3B 3775   6.827  13.617   8.800 -0.1218 -0.0116 -0.0673
  236loPI   C4B 3776   6.683  13.562   8.417  0.0472 -0.1184 -0.1124
  237loPI    C1 3777  11.684  15.248   9.840 -0.2101 -0.0446  0.0591
  237loPI    C2 3778  11.702  14.942  10.097  0.0273 -0.0660  0.0191
  237loPI    C3 3779  11.440  15.238  10.158 -0.2635 -0.3160  0.0121
  237loPI   PO4 3780  11.583  15.220   9.610 -0.0003 -0.1822 -0.2571
  237loPI   GL1 3781  11.658  15.035   9.193  0.0293 -0.1492  0.1157
  237loPI   GL2 3782  11.919  14.715   9.043 -0.1083  0.1172  0.0111
  237loPI   C1A 3783  11.442  15.129   8.899  0.2287 -0.0939 -0.1068
  237loPI   C2A 3784  11.342  15.401   8.576  0.0171 -0.4696 -0.1765
  237loPI   C3A 3785  11.228  15.528   8.176 -0.0468 -0.0713 -0.0845
  237loPI   C4A 3786  11.171  15.789   7.893 -0.2226 -0.2342  0.2972
  237loPI   C5A 3787  11.381  15.924   7.596 -0.1866  0.0910  0.2346
  237loPI   C6A 3788  11.719  15.998   7.321 -0.0753  0.3429  0.1278
  237loPI   C1B 3789  11.825  14.855   8.665  0.0213  0.0455 -0.0771
  237loPI   C2B 3790  11.513  15.005   8.366  0.0538  0.0682  0.1160
  237loPI   C3B 3791  11.318  15.121   7.941  0.1232  0.3990 -0.1815
  237loPI   C4B 3792  11.289  14.933   7.520  0.0698  0.0936 -0.0116
  238loPI    C1 3793   3.422   2.221  10.432 -0.2035 -0.0824  0.1536
  238loPI    C2 3794   3.722   2.412  10.614 -0.1138 -0.1183  0.0444
  238loPI    C3 3795   3.343   2.502  10.705 -0.0719  0.0655  0.0410
  238loPI   PO4 3796   3.364   2.224  10.115  0.1968 -0.0497 -0.1935
  238loPI   GL1 3797   3.348   2.375   9.705  0.1253  0.2730  0.3313
  238loPI   GL2 3798   3.062   2.179   9.688 -0.1516  0.0001  0.0575
  238loPI   C1A 3799   3.387   2.473   9.324  0.0830 -0.1180 -0.0050
  238loPI   C2A 3800   3.263   2.459   8.822  0.2014 -0.0455  0.0251
  238loPI   C3A 3801   3.227   2.511   8.392  0.1502  0.1272  0.1562
  238loPI   C4A 3802   3.195   2.550   8.013 -0.1552 -0.3313  0.0092
  238loPI   C5A 3803   2.932   2.502   7.713 -0.0856 -0.3054  0.1356
  238loPI   C6A 3804   2.641   2.638   7.331  0.3155  0.0240  0.0582
  238loPI   C1B 3805   2.893   2.110   9.200 -0.0414  0.1612 -0.2501
  238loPI   C2B 3806   2.842   2.214   8.818  0.0613 -0.0406 -0.0598
  238loPI   C3B 3807   2.782   2.082   8.366  0.0142 -0.0369 -0.0169
  238loPI   C4B 3808   2.725   2.148   7.959  0.4256 -0.0727  0.2470
  239loPI    C1 3809   9.470  18.003  10.116  0.1769  0.1344 -0.0644
  239loPI    C2 3810   9.457  17.920  10.507 -0.0518 -0.2023 -0.1393
  239loPI    C3 3811   9.214  18.198  10.354  0.1565  0.0510 -0.0176
  239loPI   PO4 3812   9.522  17.737   9.976 -0.1057  0.2276 -0.1148
  239loPI   GL1 3813   9.760  17.569   9.624 -0.1747  0.0724 -0.2114
  239loPI   GL2 3814   9.353  17.364   9.567  0.0510  0.1513 -0.0959
  239loPI   C1A 3815   9.752  17.886   9.221  0.0539  0.1696 -0.2567
  239loPI   C2A 3816   9.752  17.888   8.789  0.2701  0.1623  0.1361
  239loPI   C3A 3817   9.848  17.648   8.439  0.3009  0.0115  0.2852
  239loPI   C4A 3818   9.835  17.670   8.050 -0.0590  0.1356 -0.1056
  239loPI   C5A 3819   9.546  17.689   7.748 -0.2631 -0.1570 -0.2057
  239loPI   C6A 3820   9.154  17.789   7.639 -0.3339  0.3670  0.0868
  239loPI   C1B 3821   9.323  17.549   9.170 -0.1693 -0.1027 -0.1045
  239loPI   C2B 3822   9.298  17.928   8.907 -0.0723  0.2315 -0.0588
  239loPI   C3B 3823   9.226  18.086   8.538 -0.0347 -0.4970  0.2535
  239loPI   C4B 3824   9.452  18.140   8.229 -0.0152  0.1201 -0.0205
  240loPI    C1 3825   7.845   5.762  10.861 -0.0885 -0.1198 -0.0091
  240loPI    C2 3826   7.529   5.879  11.076 -0.1001 -0.1086 -0.0324
  240loPI    C3 3827   7.762   5.583  11.209 -0.0681 -0.0564  0.0287
  240loPI   PO4 3828   7.863   5.852  10.621 -0.2729  0.0662  0.0464
  240loPI   GL1 3829   7.664   5.592  10.216 -0.3110  0.2567  0.0549
  240loPI   GL2 3830   7.296   5.501  10.158 -0.0729  0.0897  0.0703
  240loPI   C1A 3831   7.698   5.411   9.773  0.1702 -0.0054  0.2518
  240loPI   C2A 3832   7.730   5.267   9.290 -0.2804 -0.1842  0.1770
  240loPI   C3A 3833   7.722   5.218   8.799  0.0629  0.0260 -0.0451
  240loPI   C4A 3834   7.782   5.111   8.365  0.0109  0.0400 -0.0346
  240loPI   C5A 3835   7.958   5.184   7.925 -0.1219  0.0263  0.2116
  240loPI   C6A 3836   8.217   4.906   7.748  0.4890  0.1363  0.0546
  240loPI   C1B 3837   7.132   5.516   9.739  0.1544 -0.3065  0.1579
  240loPI   C2B 3838   7.102   5.439   9.288 -0.1034  0.0694 -0.0593
  240loPI   C3B 3839   7.230   5.413   8.852 -0.0382 -0.0775 -0.1702
  240loPI   C4B 3840   7.297   5.276   8.441 -0.1830 -0.3147  0.2310
  241loPI    C1 3841  14.768   8.733  10.377 -0.0601  0.1324 -0.0824
  241loPI    C2 3842  14.959   8.427  10.550 -0.2144  0.1993  0.2124
  241loPI    C3 3843  15.023   8.800  10.678 -0.2467  0.2615  0.0494
  241loPI   PO4 3844  14.813   8.710  10.131 -0.1863  0.1114 -0.2584
  241loPI   GL1 3845  14.695   8.644   9.809  0.0721  0.1274  0.2628
  241loPI   GL2 3846  14.876   8.384   9.571 -0.1502  0.1981  0.0277
  241loPI   C1A 3847  14.782   9.017   9.511  0.0085  0.5352  0.0980
  241loPI   C2A 3848  14.713   9.072   9.004  0.1346  0.0100 -0.1883
  241loPI   C3A 3849  14.726   8.975   8.502  0.0497 -0.1565 -0.0660
  241loPI   C4A 3850  14.689   8.961   8.129  0.0786  0.0390  0.0020
  241loPI   C5A 3851  14.691   8.915   7.676  0.0506 -0.0466 -0.1456
  241loPI   C6A 3852  14.685   9.126   7.318  0.0050 -0.0285  0.0194
  241loPI   C1B 3853  14.599   8.638   9.333  0.0296 -0.4174 -0.1957
  241loPI   C2B 3854  14.295   8.757   9.074  0.0499  0.2018 -0.0302
  241loPI   C3B 3855  14.264   8.768   8.639 -0.2625  0.2023  0.0491
  241loPI   C4B 3856  14.193   8.732   8.297 -0.0019  0.1742  0.2513
  242loPI    C1 3857   7.118   5.086  10.723 -0.0661  0.0781 -0.0761
  242loPI    C2 3858   7.055   4.764  10.953 -0.1280  0.1635  0.0276
  242loPI    C3 3859   6.860   5.105  11.028  0.0466  0.2692  0.0090
  242loPI   PO4 3860   7.131   5.054  10.445 -0.1699 -0.1155  0.0189
  242loPI   GL1 3861   7.066   4.819  10.111  0.0635 -0.2028  0.1455
  242loPI   GL2 3862   7.049   4.663   9.870 -0.1011 -0.2667 -0.0878
  242loPI   C1A 3863   6.765   5.079   9.706  0.0212  0.0922 -0.4027
  242loPI   C2A 3864   6.681   5.146   9.242  0.0849  0.0775  0.5349
  242loPI   C3A 3865   6.814   5.042   8.850  0.0430 -0.0319  0.0358
  242loPI   C4A 3866   6.902   4.985   8.415  0.0171 -0.0980  0.0914
  242loPI   C5A 3867   7.003   5.038   8.031  0.1643 -0.2399  0.1759
  242loPI   C6A 3868   7.036   5.254   7.659 -0.2899  0.0677  0.0644
  242loPI   C1B 3869   6.894   4.623   9.447  0.0861  0.0598 -0.0135
  242loPI   C2B 3870   6.921   4.499   8.986  0.0301  0.1477  0.0896
  242loPI   C3B 3871   6.988   4.561   8.579 -0.0779 -0.1314  0.2682
  242loPI   C4B 3872   7.025   4.522   8.129  0.6418 -0.2720 -0.3365
  243loPI    C1 3873   7.985  13.818  10.439  0.0506  0.1898 -0.3324
  243loPI    C2 3874   8.015  13.566  10.130 -0.0115 -0.1798 -0.0437
  243loPI    C3 3875   8.217  13.494  10.467 -0.3839 -0.0915  0.2049
  243loPI   PO4 3876   8.052  14.059  10.321  0.0880 -0.0922 -0.1089
  243loPI   GL1 3877   7.888  14.325   9.941 -0.0385  0.1897  0.1218
  243loPI   GL2 3878   7.780  13.977   9.944  0.2394 -0.1587  0.0640
  243loPI   C1A 3879   7.626  14.408   9.525 -0.0195  0.2866  0.0056
  243loPI   C2A 3880   7.408  14.309   9.102 -0.1562 -0.2324 -0.2604
  243loPI   C3A 3881   7.327  14.347   8.677  0.2092 -0.0028 -0.0597
  243loPI   C4A 3882   7.329  14.271   8.338 -0.1435 -0.1072  0.0978
  243loPI   C5A 3883   7.275  14.171   7.927 -0.0925 -0.3978  0.1080
  243loPI   C6A 3884   7.159  14.138   7.455 -0.1305  0.2476 -0.2303
  243loPI   C1B 3885   7.905  13.664   9.663  0.0769 -0.0560  0.0611
  243loPI   C2B 3886   8.070  13.336   9.403 -0.1282 -0.0858  0.0448
  243loPI   C3B 3887   7.954  13.147   9.042 -0.0383  0.0413 -0.1121
  243loPI   C4B 3888   8.022  12.788   8.814  0.0155  0.0015  0.1608
  244loPI    C1 3889  16.788   7.618  10.192 -0.0622  0.1544 -0.1727
  244loPI    C2 3890  16.434   7.432  10.195  0.0185  0.0001 -0.1091
  244loPI    C3 3891  16.477   7.777   9.998 -0.1799  0.0454 -0.0748
  244loPI   PO4 3892  16.939   7.365  10.135 -0.2136 -0.0043 -0.1583
  244loPI   GL1 3893  17.086   7.256   9.878 -0.3013  0.0436 -0.0413
  244loPI   GL2 3894  17.370   7.316   9.718  0.1346  0.0541  0.0865
  244loPI   C1A 3895  16.957   7.229   9.436  0.2944 -0.0496  0.1330
  244loPI   C2A 3896  17.156   7.578   9.161 -0.0611 -0.2596 -0.0140
  244loPI   C3A 3897  17.231   7.890   8.917 -0.4577  0.0381 -0.2826
  244loPI   C4A 3898  17.542   8.271   8.721 -0.0065  0.1474  0.0466
  244loPI   C5A 3899  17.668   8.163   8.316  0.0159 -0.2055 -0.0980
  244loPI   C6A 3900  17.778   8.401   8.022 -0.0851 -0.2068  0.2782
  244loPI   C1B 3901  17.562   7.323   9.295 -0.1855  0.2531 -0.1758
  244loPI   C2B 3902  17.575   7.379   8.872 -0.1245  0.1543  0.1586
  244loPI   C3B 3903  17.504   7.298   8.413  0.0445 -0.1322 -0.0577
  244loPI   C4B 3904  17.271   7.236   7.944  0.0803  0.0625 -0.1118
  245loPI    C1 3905  10.187   5.268  10.664  0.2702  0.3380 -0.0590
  245loPI    C2 3906  10.122   5.512  10.975  0.1907  0.1813  0.0484
  245loPI    C3 3907  10.332   5.175  11.025 -0.1210 -0.0227  0.0132
  245loPI   PO4 3908  10.110   5.375  10.436  0.2312  0.1665  0.1168
  245loPI   GL1 3909  10.056   5.359  10.024 -0.0154 -0.1359  0.0795
  245loPI   GL2 3910   9.957   5.026   9.977 -0.3384 -0.6014 -0.1705
  245loPI   C1A 3911  10.252   5.338   9.632  0.1289 -0.1694 -0.0166
  245loPI   C2A 3912  10.320   5.342   9.160 -0.0490 -0.1673 -0.0560
  245loPI   C3A 3913  10.453   5.302   8.820  0.1246 -0.3426  0.1881
  245loPI   C4A 3914  10.243   5.389   8.395 -0.2996 -0.0662 -0.0597
  245loPI   C5A 3915  10.423   5.229   8.070  0.0512  0.1616 -0.0248
  245loPI   C6A 3916  10.584   5.031   7.649  0.1508 -0.2066 -0.2700
  245loPI   C1B 3917   9.865   5.084   9.573 -0.1126  0.0753 -0.0986
  245loPI   C2B 3918   9.948   5.002   9.190  0.0309  0.1430 -0.0770
  245loPI   C3B 3919  10.021   5.072   8.744  0.0688 -0.1017 -0.2158
  245loPI   C4B 3920  10.113   4.868   8.427 -0.1186 -0.3089 -0.1542
  246loPI    C1 3921  17.611  13.218  10.084  0.0220 -0.0792 -0.0960
  246loPI    C2 3922  17.959  13.345  10.236  0.0032 -0.0819 -0.0510
  246loPI    C3 3923  17.623  13.373  10.452 -0.0516  0.0651 -0.1532
  246loPI   PO4 3924  17.686  13.001   9.962  0.1297 -0.1152 -0.2722
  246loPI   GL1 3925  17.648  12.862   9.526 -0.1495 -0.0604 -0.4717
  246loPI   GL2 3926  17.349  12.908   9.588 -0.0336  0.1376  0.2569
  246loPI   C1A 3927  17.773  12.943   9.135  0.2451  0.0882 -0.0054
  246loPI   C2A 3928  17.729  12.881   8.710  0.0988 -0.0799 -0.0398
  246loPI   C3A 3929  17.560  12.926   8.300  0.0495  0.1506  0.1112
  246loPI   C4A 3930  17.526  12.903   7.883 -0.1410 -0.0781  0.2015
  246loPI   C5A 3931  17.730  13.050   7.452 -0.1388  0.1148 -0.0995
  246loPI   C6A 3932  17.897  13.204   7.055 -0.0709  0.0055 -0.1437
  246loPI   C1B 3933  17.271  12.793   9.167 -0.2145 -0.0038  0.2798
  246loPI   C2B 3934  17.215  12.781   8.759 -0.1163  0.0727 -0.1522
  246loPI   C3B 3935  17.115  12.781   8.407  0.0557  0.1036  0.1102
  246loPI   C4B 3936  17.071  12.878   8.020  0.1387 -0.2642  0.0340
  247loPI    C1 3937   4.118   3.484  10.683  0.1046  0.0553 -0.2079
  247loPI    C2 3938   4.247   3.148  10.508 -0.2072 -0.2853  0.1916
  247loPI    C3 3939   4.217   3.166  10.906  0.0893  0.3280  0.1979
  247loPI   PO4 3940   3.933   3.588  10.441  0.1471  0.1683 -0.0342
  247loPI   GL1 3941   3.750   3.707   9.978  0.1569  0.1416 -0.1032
  247loPI   GL2 3942   4.038   3.557   9.968 -0.3297 -0.3470 -0.4615
  247loPI   C1A 3943   3.562   3.562   9.712  0.1915  0.0887  0.0681
  247loPI   C2A 3944   3.590   3.366   9.198 -0.0566 -0.0416  0.1828
  247loPI   C3A 3945   3.601   3.363   8.747 -0.4673 -0.2068  0.1239
  247loPI   C4A 3946   3.521   3.414   8.343 -0.0023  0.0644  0.0413
  247loPI   C5A 3947   3.319   3.582   7.970  0.0189  0.0293 -0.0904
  247loPI   C6A 3948   3.218   3.465   7.508 -0.0143 -0.0813  0.0369
  247loPI   C1B 3949   3.978   3.622   9.428 -0.0086 -0.0150 -0.0056
  247loPI   C2B 3950   3.888   3.758   9.068  0.2990  0.1668  0.3977
  247loPI   C3B 3951   3.975   3.709   8.613  0.0651  0.0289  0.0431
  247loPI   C4B 3952   3.895   3.630   8.222  0.0635 -0.1376  0.0952
  248loPI    C1 3953   6.714  17.544   9.993  0.0561 -0.1274 -0.1242
  248loPI    C2 3954   7.094  17.418  10.006  0.1526  0.1702  0.0221
  248loPI    C3 3955   6.957  17.671  10.284 -0.1930 -0.0394  0.0485
  248loPI   PO4 3956   6.722  17.543   9.699 -0.1603  0.1844 -0.1925
  248loPI   GL1 3957   6.684  17.262   9.344 -0.3548 -0.2800 -0.1014
  248loPI   GL2 3958   6.472  16.986   9.475  0.0218 -0.1100  0.2182
  248loPI   C1A 3959   6.673  17.212   8.855 -0.0301  0.0038  0.1703
  248loPI   C2A 3960   6.744  17.088   8.522  0.3580  0.0699 -0.1680
  248loPI   C3A 3961   7.054  17.029   8.457 -0.0884  0.2081 -0.2491
  248loPI   C4A 3962   7.448  17.141   8.257  0.1342  0.3256  0.1937
  248loPI   C5A 3963   7.888  17.109   8.027 -0.1268  0.0908  0.0526
  248loPI   C6A 3964   8.318  16.901   7.942  0.2637  0.0883 -0.1796
  248loPI   C1B 3965   6.322  16.859   9.111  0.1119  0.1230  0.3367
  248loPI   C2B 3966   6.232  16.918   8.653  0.3400  0.0403 -0.2356
  248loPI   C3B 3967   6.105  16.834   8.155  0.0104 -0.1762  0.2621
  248loPI   C4B 3968   6.169  16.974   7.859 -0.2499  0.2704  0.0900
  249loPI    C1 3969   5.059   1.473  10.400 -0.1327 -0.0626 -0.0771
  249loPI    C2 3970   5.096   1.864  10.476 -0.0880 -0.0657 -0.0821
  249loPI    C3 3971   5.076   1.603  10.778  0.0900 -0.0781 -0.0803
  249loPI   PO4 3972   5.215   1.420  10.279  0.2305  0.1274  0.3496
  249loPI   GL1 3973   5.211   1.272   9.892 -0.4070 -0.1588 -0.2275
  249loPI   GL2 3974   4.987   1.325   9.791  0.0007  0.0890 -0.1164
  249loPI   C1A 3975   5.371   1.268   9.419 -0.3364 -0.0783  0.1880
  249loPI   C2A 3976   5.230   1.274   8.963  0.0559 -0.0568  0.3836
  249loPI   C3A 3977   5.377   1.330   8.535  0.0638  0.1364  0.1497
  249loPI   C4A 3978   5.306   1.384   8.142 -0.1368  0.2289 -0.0757
  249loPI   C5A 3979   5.438   1.641   7.811 -0.2593  0.0002  0.0582
  249loPI   C6A 3980   5.085   1.772   7.445  0.2578 -0.1146 -0.1752
  249loPI   C1B 3981   4.831   1.382   9.264 -0.0319 -0.2487 -0.2317
  249loPI   C2B 3982   4.758   1.429   8.841  0.3321 -0.0421 -0.0112
  249loPI   C3B 3983   4.872   1.546   8.397 -0.1038 -0.1075  0.5396
  249loPI   C4B 3984   4.865   1.539   8.012 -0.1009  0.2473 -0.0591
  250loPI    C1 3985  16.054   9.914  10.555 -0.0854  0.1026 -0.1137
  250loPI    C2 3986  15.858  10.067  10.868 -0.2805  0.1688 -0.2661
  250loPI    C3 3987  16.078   9.736  10.912 -0.2642  0.2075 -0.0484
  250loPI   PO4 3988  15.803   9.923  10.343 -0.0250  0.3216 -0.0476
  250loPI   GL1 3989  15.655   9.654  10.033  0.3524  0.1317  0.1706
  250loPI   GL2 3990  15.584   9.982   9.867  0.3550 -0.0195 -0.1156
  250loPI   C1A 3991  15.614   9.490   9.646  0.0503 -0.0435  0.0743
  250loPI   C2A 3992  15.579   9.405   9.255 -0.2116  0.1128  0.2299
  250loPI   C3A 3993  15.597   9.362   8.794  0.0424 -0.3668  0.2580
  250loPI   C4A 3994  15.661   9.317   8.292 -0.1375  0.1343 -0.1360
  250loPI   C5A 3995  15.847   9.311   7.842  0.1993 -0.1220  0.0778
  250loPI   C6A 3996  16.109   9.232   7.550 -0.1314 -0.0542 -0.0077
  250loPI   C1B 3997  15.678   9.909   9.467  0.1845 -0.0101 -0.0973
  250loPI   C2B 3998  15.794   9.794   9.033  0.2413  0.1823  0.2255
  250loPI   C3B 3999  15.744   9.879   8.552  0.0997  0.0535  0.1162
  250loPI   C4B 4000  15.639   9.988   8.048 -0.2026  0.2904  0.2051
  251loPI    C1 4001  11.886  17.768  10.309 -0.1155  0.3700  0.3978
  251loPI    C2 4002  11.572  17.639  10.097  0.0618  0.0852  0.3032
  251loPI    C3 4003  11.671  17.457  10.439  0.0962  0.2052  0.3578
  251loPI   PO4 4004  11.953  17.982  10.202  0.1352  0.1596 -0.0302
  251loPI   GL1 4005  12.031  18.164   9.819  0.0747  0.0085  0.0670
  251loPI   GL2 4006  11.959  18.451  10.051 -0.3003  0.0650  0.0306
  251loPI   C1A 4007  12.204  18.390   9.434  0.1987 -0.0901 -0.0180
  251loPI   C2A 4008  12.331  18.558   9.040  0.2998 -0.1061  0.0847
  251loPI   C3A 4009  12.318  18.606   8.656 -0.0999  0.0527 -0.1161
  251loPI   C4A 4010  12.370  18.619   8.256 -0.3431  0.2404 -0.2189
  251loPI   C5A 4011  12.336  18.734   7.884 -0.2362  0.3079 -0.0066
  251loPI   C6A 4012  12.427  18.887   7.573  0.0725  0.0139 -0.1323
  251loPI   C1B 4013  11.797  18.624   9.662 -0.0446 -0.1954  0.2827
  251loPI   C2B 4014  11.803  18.667   9.224  0.1530 -0.1049 -0.2229
  251loPI   C3B 4015  11.845  18.704   8.780  0.6317  0.0239 -0.1816
  251loPI   C4B 4016  11.910  18.786   8.279  0.2029  0.3538  0.1500
  252loPI    C1 4017  10.474  10.613  10.410  0.0209 -0.0193  0.0816
  252loPI    C2 4018  10.106  10.525  10.280  0.0384  0.0410 -0.0094
  252loPI    C3 4019  10.179  10.548  10.672 -0.0798  0.1324  0.0077
  252loPI   PO4 4020  10.592  10.493  10.346  0.0227  0.3327 -0.1395
  252loPI   GL1 4021  10.687  10.403   9.922 -0.2723 -0.1988 -0.0257
  252loPI   GL2 4022  10.379  10.559   9.851 -0.3678  0.1250  0.0257
  252loPI   C1A 4023  10.908  10.419   9.532  0.1405  0.2471  0.0280
  252loPI   C2A 4024  11.171  10.592   9.219 -0.1331  0.0666  0.3827
  252loPI   C3A 4025  10.977  10.671   8.938 -0.0287 -0.1846  0.2827
  252loPI   C4A 4026  10.871  10.567   8.530  0.1681  0.1114 -0.1358
  252loPI   C5A 4027  10.726  10.261   8.180  0.0153 -0.0814 -0.1639
  252loPI   C6A 4028  10.514  10.359   7.718 -0.0825  0.0408 -0.0446
  252loPI   C1B 4029  10.291  10.518   9.438  0.0336 -0.0605  0.0826
  252loPI   C2B 4030  10.570  10.456   9.094  0.0062  0.0761  0.0450
  252loPI   C3B 4031  10.414  10.466   8.712  0.0230 -0.0619  0.0814
  252loPI   C4B 4032  10.236  10.652   8.275 -0.2965 -0.3418 -0.3087
  253loPI    C1 4033  14.745  14.483  10.105  0.0900 -0.0695  0.1915
  253loPI    C2 4034  14.651  14.109  10.212  0.0571 -0.1240 -0.0242
  253loPI    C3 4035  14.417  14.413  10.323 -0.1517 -0.2148 -0.2071
  253loPI   PO4 4036  14.725  14.498   9.820  0.0869  0.0312 -0.3106
  253loPI   GL1 4037  14.630  14.522   9.373 -0.1340 -0.1209 -0.3186
  253loPI   GL2 4038  14.232  14.773   9.313 -0.0107 -0.0420  0.2583
  253loPI   C1A 4039  14.748  14.388   8.928  0.0894 -0.1576 -0.2131
  253loPI   C2A 4040  14.873  14.244   8.559 -0.1133  0.3706  0.1976
  253loPI   C3A 4041  15.215  14.046   8.195 -0.3195  0.3422  0.1678
  253loPI   C4A 4042  15.635  14.065   8.076  0.1120 -0.1757 -0.1781
  253loPI   C5A 4043  15.989  14.278   8.071 -0.0019  0.4902  0.2448
  253loPI   C6A 4044  16.445  14.265   7.939  0.2920  0.1103 -0.1738
  253loPI   C1B 4045  14.169  14.879   8.912  0.0018  0.0052  0.0811
  253loPI   C2B 4046  14.352  14.820   8.532  0.0854  0.2605 -0.3564
  253loPI   C3B 4047  14.388  14.750   8.135 -0.0903  0.1935  0.3463
  253loPI   C4B 4048  14.363  14.807   7.690 -0.1205  0.3926  0.0965
  254loPI    C1 4049  13.222   4.722  10.707 -0.0232 -0.0071  0.0265
  254loPI    C2 4050  13.061   4.647  11.066  0.1404  0.0856  0.1208
  254loPI    C3 4051  13.304   4.960  11.018 -0.0099  0.1695 -0.1113
  254loPI   PO4 4052  13.260   4.420  10.636  0.0238 -0.4374 -0.1614
  254loPI   GL1 4053  13.239   4.338  10.208 -0.1355 -0.0779 -0.2342
  254loPI   GL2 4054  13.268   4.610  10.013 -0.1485 -0.0459 -0.2175
  254loPI   C1A 4055  13.408   4.168   9.775  0.0110  0.0483  0.0879
  254loPI   C2A 4056  13.450   4.061   9.291 -0.1223 -0.0486 -0.1458
  254loPI   C3A 4057  13.521   4.025   8.863  0.2372 -0.2820  0.1043
  254loPI   C4A 4058  13.556   4.040   8.438  0.4515  0.3741  0.0722
  254loPI   C5A 4059  13.490   4.185   8.007  0.0964  0.2389 -0.0415
  254loPI   C6A 4060  13.523   4.406   7.737 -0.2141  0.0137  0.2028
  254loPI   C1B 4061  13.007   4.598   9.720  0.2123 -0.1932 -0.0839
  254loPI   C2B 4062  12.933   4.702   9.275  0.0758  0.0802  0.0112
  254loPI   C3B 4063  12.984   4.684   8.944  0.1130 -0.1750  0.1488
  254loPI   C4B 4064  12.999   4.772   8.518 -0.2189  0.3220 -0.0411
  255loPI    C1 4065  14.301   5.706  10.294 -0.2160  0.1069 -0.3633
  255loPI    C2 4066  13.974   5.493  10.381  0.0031 -0.0368  0.1446
  255loPI    C3 4067  14.039   5.843  10.564  0.0883  0.0364 -0.0242
  255loPI   PO4 4068  14.329   5.783  10.068 -0.0263  0.0274 -0.0479
  255loPI   GL1 4069  14.309   5.700   9.653 -0.1077 -0.1258  0.1824
  255loPI   GL2 4070  14.361   5.888   9.483 -0.2439 -0.1785 -0.3283
  255loPI   C1A 4071  13.912   5.643   9.388 -0.1159  0.0888  0.1958
  255loPI   C2A 4072  13.735   5.509   9.031 -0.1295 -0.0275  0.1965
  255loPI   C3A 4073  13.415   5.579   8.749 -0.3260 -0.3205 -0.0225
  255loPI   C4A 4074  13.367   5.682   8.440  0.1517  0.1468 -0.0615
  255loPI   C5A 4075  13.437   5.720   7.966 -0.0437  0.2233 -0.2581
  255loPI   C6A 4076  13.625   5.883   7.674  0.0164  0.0081 -0.0457
  255loPI   C1B 4077  14.256   5.812   9.108  0.3596  0.1209  0.2858
  255loPI   C2B 4078  14.198   5.744   8.760 -0.1962  0.0770 -0.1607
  255loPI   C3B 4079  14.255   5.760   8.325 -0.0926  0.3371  0.1304
  255loPI   C4B 4080  14.436   5.779   8.043 -0.0651 -0.2152 -0.0957
  256loPI    C1 4081   8.874  18.338  10.014 -0.1413  0.1164 -0.2054
  256loPI    C2 4082   8.486  18.434   9.998 -0.2231 -0.1517  0.0863
  256loPI    C3 4083   8.598  18.051   9.971  0.0277 -0.0702 -0.0589
  256loPI   PO4 4084   9.063  18.499   9.807  0.1712  0.0474  0.2573
  256loPI   GL1 4085   9.341  18.853   9.604  0.1504  0.2117 -0.0962
  256loPI   GL2 4086   9.123  19.101   9.496  0.1355 -0.0051  0.2090
  256loPI   C1A 4087   9.328  18.815   9.132 -0.2779  0.2738 -0.1822
  256loPI   C2A 4088   9.399  18.969   8.778  0.2243  0.0275  0.3879
  256loPI   C3A 4089   9.342  19.040   8.412  0.1118  0.0299  0.3327
  256loPI   C4A 4090   9.031  19.226   8.056  0.1390 -0.0517  0.1109
  256loPI   C5A 4091   8.584  19.237   8.049 -0.0317 -0.0279  0.2902
  256loPI   C6A 4092   8.276  19.210   8.352  0.2191  0.0394 -0.0309
  256loPI   C1B 4093   9.084  19.334   9.167 -0.2216  0.0077  0.5096
  256loPI   C2B 4094   9.316  19.427   8.686 -0.0841 -0.0024 -0.1178
  256loPI   C3B 4095   9.357  19.650   8.187  0.1671  0.1554 -0.2899
  256loPI   C4B 4096   9.090  19.692   7.849  0.2115 -0.0361  0.2117
  257loPI    C1 4097  10.445   1.662  10.895  0.1098  0.1118  0.2613
  257loPI    C2 4098  10.639   1.427  11.154  0.0012 -0.0399  0.2063
  257loPI    C3 4099  10.313   1.291  10.965 -0.0617  0.1548  0.1723
  257loPI   PO4 4100  10.540   1.777  10.735  0.0790 -0.1521  0.0830
  257loPI   GL1 4101  10.609   1.711  10.272 -0.4323  0.2291 -0.1252
  257loPI   GL2 4102  10.797   1.472  10.158  0.1829  0.2446 -0.2242
  257loPI   C1A 4103  10.700   1.905   9.845 -0.1199 -0.2412  0.1425
  257loPI   C2A 4104  10.761   1.945   9.355 -0.1778 -0.1672 -0.3365
  257loPI   C3A 4105  10.774   1.959   8.825 -0.0461  0.3302 -0.2647
  257loPI   C4A 4106  10.792   2.032   8.433  0.0052 -0.2350  0.1607
  257loPI   C5A 4107  10.989   1.853   8.052 -0.2977 -0.0790  0.0819
  257loPI   C6A 4108  10.981   1.417   7.776  0.2661  0.1810 -0.0416
  257loPI   C1B 4109  10.875   1.447   9.686 -0.2140 -0.0468 -0.2375
  257loPI   C2B 4110  10.878   1.484   9.351 -0.1540  0.2678  0.3636
  257loPI   C3B 4111  10.879   1.451   8.926 -0.0765  0.0001  0.3513
  257loPI   C4B 4112  11.021   1.573   8.454 -0.1835  0.0501  0.0316
  258loPI    C1 4113   1.836   2.771  10.436 -0.1828  0.0098  0.0299
  258loPI    C2 4114   1.558   3.041  10.333 -0.0777  0.2438  0.3447
  258loPI    C3 4115   1.740   3.066  10.689  0.1013 -0.1098  0.2829
  258loPI   PO4 4116   1.857   2.711  10.084  0.1636  0.1374 -0.0761
  258loPI   GL1 4117   1.737   2.760   9.736  0.0595 -0.0701  0.2355
  258loPI   GL2 4118   1.938   2.479   9.615  0.1187  0.1086 -0.0611
  258loPI   C1A 4119   1.872   2.909   9.349 -0.2398 -0.1057 -0.1584
  258loPI   C2A 4120   1.872   2.974   8.909  0.1882 -0.0971  0.1371
  258loPI   C3A 4121   1.765   3.048   8.562  0.1280 -0.0719  0.0636
  258loPI   C4A 4122   1.667   3.106   8.176  0.1202 -0.1305 -0.0050
  258loPI   C5A 4123   1.298   3.289   8.030 -0.0416 -0.0614  0.0717
  258loPI   C6A 4124   1.179   3.720   7.861 -0.0335 -0.0674 -0.1301
  258loPI   C1B 4125   1.922   2.469   9.166  0.2017 -0.0265  0.2015
  258loPI   C2B 4126   1.910   2.508   8.733  0.0359 -0.3177 -0.0690
  258loPI   C3B 4127   1.953   2.579   8.318  0.2379  0.1801 -0.1612
  258loPI   C4B 4128   1.874   2.661   7.919  0.3300 -0.1498 -0.0356
  259loPI    C1 4129   4.041  10.440  10.507  0.1398 -0.0023  0.0232
  259loPI    C2 4130   4.225  10.671  10.777 -0.0241  0.3996 -0.2002
  259loPI    C3 4131   3.944  10.411  10.894  0.1414  0.3305  0.0515
  259loPI   PO4 4132   4.142  10.489  10.295 -0.0259 -0.1326 -0.3397
  259loPI   GL1 4133   4.047  10.365   9.853  0.2348 -0.2123  0.2358
  259loPI   GL2 4134   4.318  10.125   9.687  0.3227 -0.3664 -0.1792
  259loPI   C1A 4135   3.969  10.422   9.435  0.0083  0.0630 -0.0539
  259loPI   C2A 4136   3.962  10.448   8.944 -0.0103  0.0617  0.2644
  259loPI   C3A 4137   4.029  10.551   8.552 -0.1876  0.1350  0.0257
  259loPI   C4A 4138   3.980  10.594   8.007  0.2137 -0.1259  0.0408
  259loPI   C5A 4139   4.050  10.294   7.598 -0.0801 -0.1579 -0.1892
  259loPI   C6A 4140   4.497  10.173   7.516  0.2837  0.1889 -0.1268
  259loPI   C1B 4141   4.323  10.126   9.324  0.4664  0.1930  0.3734
  259loPI   C2B 4142   4.356  10.107   8.892 -0.1369  0.0823  0.3679
  259loPI   C3B 4143   4.359  10.190   8.454  0.1287 -0.4358 -0.0297
  259loPI   C4B 4144   4.334  10.275   8.048  0.0490 -0.0553  0.1627
  260loPI    C1 4145   1.065  17.934   9.914  0.0429 -0.0530  0.0446
  260loPI    C2 4146   1.107  18.162  10.239  0.0594  0.0743 -0.0462
  260loPI    C3 4147   1.248  17.788  10.238 -0.1375 -0.0036  0.1707
  260loPI   PO4 4148   1.217  18.138   9.692 -0.1044 -0.1821 -0.4190
  260loPI   GL1 4149   1.189  18.425   9.368 -0.1166 -0.0151 -0.2482
  260loPI   GL2 4150   1.341  18.565   9.237 -0.1320  0.0139  0.1510
  260loPI   C1A 4151   1.226  18.249   8.914  0.1779  0.0610  0.1276
  260loPI   C2A 4152   1.417  18.249   8.441  0.1890  0.1712  0.2222
  260loPI   C3A 4153   1.319  18.367   8.042  0.2107  0.0528  0.0847
  260loPI   C4A 4154   1.249  18.103   7.722 -0.1302 -0.2285  0.1913
  260loPI   C5A 4155   1.555  17.849   7.330  0.2541 -0.1954  0.1382
  260loPI   C6A 4156   1.475  17.860   6.869  0.1124 -0.1701 -0.0120
  260loPI   C1B 4157   1.633  18.655   8.886  0.1450  0.2475  0.0954
  260loPI   C2B 4158   1.902  18.466   8.612  0.1401 -0.3142  0.0776
  260loPI   C3B 4159   1.922  18.374   8.264 -0.1979  0.1235  0.0557
  260loPI   C4B 4160   1.990  18.263   7.859 -0.2988  0.2171 -0.0186
  261loPI    C1 4161   7.936  18.126   9.900 -0.0540  0.1361 -0.0446
  261loPI    C2 4162   8.148  18.098  10.238 -0.0619 -0.1389 -0.0604
  261loPI    C3 4163   7.833  17.858  10.178 -0.1400 -0.0020 -0.2073
  261loPI   PO4 4164   8.152  18.242   9.743 -0.1374  0.0118  0.3378
  261loPI   GL1 4165   8.094  18.191   9.332  0.2773  0.1030  0.0349
  261loPI   GL2 4166   7.926  18.314   9.124 -0.3189  0.0266 -0.0096
  261loPI   C1A 4167   8.295  17.985   8.919 -0.3710  0.0514  0.3142
  261loPI   C2A 4168   8.524  18.162   8.599  0.0334 -0.3689  0.0306
  261loPI   C3A 4169   8.777  18.310   8.323  0.1416 -0.0295  0.0985
  261loPI   C4A 4170   8.979  18.112   8.026 -0.0637  0.2122 -0.2792
  261loPI   C5A 4171   9.363  18.249   7.743  0.2128  0.2281 -0.0548
  261loPI   C6A 4172   9.889  18.316   7.615 -0.2564  0.3551 -0.2168
  261loPI   C1B 4173   7.791  17.929   9.005  0.0668  0.1045 -0.1768
  261loPI   C2B 4174   7.599  17.728   8.719  0.0907  0.0717  0.1085
  261loPI   C3B 4175   7.374  17.740   8.331  0.1938 -0.0634  0.2130
  261loPI   C4B 4176   7.101  17.889   7.968  0.1805  0.2136  0.1645
  262loPI    C1 4177  12.714   8.791   9.927  0.0067  0.0300  0.1152
  262loPI    C2 4178  12.764   8.633  10.290  0.0096 -0.2134  0.0108
  262loPI    C3 4179  12.406   8.775  10.182  0.1077  0.2387  0.2532
  262loPI   PO4 4180  12.876   8.636   9.778  0.0623  0.3663 -0.0224
  262loPI   GL1 4181  13.414   8.728   9.594  0.1691 -0.2201 -0.0343
  262loPI   GL2 4182  13.182   8.915   9.546 -0.1270 -0.0528 -0.1189
  262loPI   C1A 4183  13.645   8.545   9.354  0.1223 -0.1955 -0.1307
  262loPI   C2A 4184  13.700   8.612   8.938 -0.0456 -0.1395  0.0026
  262loPI   C3A 4185  13.868   8.438   8.554  0.0322 -0.0944 -0.1274
  262loPI   C4A 4186  13.704   8.354   8.115 -0.1807 -0.0017 -0.2633
  262loPI   C5A 4187  13.801   7.971   7.933 -0.0526  0.3750 -0.0592
  262loPI   C6A 4188  13.717   7.652   7.643  0.0799 -0.1629  0.1696
  262loPI   C1B 4189  13.227   8.878   9.141 -0.3266 -0.0268 -0.1876
  262loPI   C2B 4190  13.241   8.974   8.639  0.0461  0.0566  0.0277
  262loPI   C3B 4191  13.188   9.067   8.191  0.0727 -0.1515 -0.1562
  262loPI   C4B 4192  13.222   9.122   7.718 -0.2699  0.3199 -0.0254
  263loPI    C1 4193  12.501   2.450  10.574  0.1696  0.0761  0.1701
  263loPI    C2 4194  12.266   2.372  10.888 -0.0704  0.1643  0.0153
  263loPI    C3 4195  12.625   2.539  10.943  0.0782 -0.2273  0.2769
  263loPI   PO4 4196  12.324   2.527  10.373 -0.0754 -0.0391  0.0533
  263loPI   GL1 4197  12.447   2.453   9.999  0.2767  0.0776 -0.1266
  263loPI   GL2 4198  12.797   2.482  10.087 -0.0208  0.1790 -0.1728
  263loPI   C1A 4199  12.574   2.424   9.585 -0.3344  0.1436  0.1528
  263loPI   C2A 4200  12.460   2.480   9.163 -0.2650 -0.0313 -0.0627
  263loPI   C3A 4201  12.653   2.534   8.709  0.0695  0.0822 -0.2264
  263loPI   C4A 4202  12.497   2.577   8.336 -0.1482  0.0126  0.1182
  263loPI   C5A 4203  12.102   2.654   8.125 -0.1717  0.1165 -0.0838
  263loPI   C6A 4204  11.814   2.961   8.006  0.1440 -0.1479 -0.0736
  263loPI   C1B 4205  13.018   2.696   9.874 -0.1715 -0.0473 -0.2149
  263loPI   C2B 4206  12.896   2.742   9.418 -0.1049  0.2560  0.0635
  263loPI   C3B 4207  12.959   2.843   8.984  0.0257 -0.0974 -0.2537
  263loPI   C4B 4208  12.938   2.955   8.500 -0.3751  0.0504  0.1464
  264loPI    C1 4209  17.259   4.848  10.502  0.1795  0.3002 -0.0159
  264loPI    C2 4210  17.417   4.553  10.721 -0.3599  0.1317  0.1601
  264loPI    C3 4211  17.544   4.929  10.772  0.2031 -0.0363  0.0645
  264loPI   PO4 4212  17.273   4.846  10.288  0.1441 -0.1895  0.2082
  264loPI   GL1 4213  17.363   4.769   9.887 -0.2533  0.1283 -0.0170
  264loPI   GL2 4214  17.707   4.789   9.799 -0.0433  0.1651  0.0817
  264loPI   C1A 4215  17.421   4.952   9.422  0.1242  0.0789 -0.2514
  264loPI   C2A 4216  17.801   5.060   9.037  0.2770 -0.1478 -0.2634
  264loPI   C3A 4217  18.045   5.175   8.662  0.1004 -0.2168 -0.2396
  264loPI   C4A 4218  18.083   5.363   8.189 -0.4426 -0.0113 -0.0824
  264loPI   C5A 4219  18.018   5.533   7.810 -0.1052  0.3473  0.0176
  264loPI   C6A 4220  17.686   5.842   7.738  0.2761 -0.0165 -0.2744
  264loPI   C1B 4221  17.979   4.871   9.526 -0.0723  0.0242 -0.0855
  264loPI   C2B 4222  18.255   5.015   9.157 -0.2327  0.3202 -0.3753
  264loPI   C3B 4223  18.498   5.253   8.809 -0.1317  0.0794  0.2640
  264loPI   C4B 4224  18.712   5.282   8.457 -0.1896  0.0152 -0.0848
  265loPI    C1 4225  11.792   2.511  10.742 -0.1042  0.1530  0.0026
  265loPI    C2 4226  11.790   2.123  10.839 -0.0288  0.1610  0.0361
  265loPI    C3 4227  11.485   2.358  10.949 -0.0751  0.1111  0.0147
  265loPI   PO4 4228  11.835   2.461  10.447 -0.1452  0.0348 -0.1788
  265loPI   GL1 4229  11.983   2.552  10.016  0.1503 -0.0740  0.1158
  265loPI   GL2 4230  11.934   2.902   9.923  0.0516 -0.1439 -0.0535
  265loPI   C1A 4231  12.036   2.521   9.608 -0.0305  0.3352 -0.1142
  265loPI   C2A 4232  11.921   2.573   9.135 -0.0189  0.1753  0.2626
  265loPI   C3A 4233  12.108   2.646   8.726  0.1710  0.1322 -0.3149
  265loPI   C4A 4234  12.407   2.918   8.838 -0.0381 -0.0663  0.5217
  265loPI   C5A 4235  12.496   2.985   9.251 -0.2228  0.2406 -0.1846
  265loPI   C6A 4236  12.375   2.843   9.663  0.1878 -0.0768  0.0202
  265loPI   C1B 4237  11.952   3.030   9.511 -0.1077  0.0083  0.1122
  265loPI   C2B 4238  11.897   3.058   9.052  0.0438 -0.1680 -0.2727
  265loPI   C3B 4239  12.009   3.152   8.672  0.0058 -0.1465  0.0776
  265loPI   C4B 4240  12.129   3.165   8.273 -0.1293 -0.1934  0.0081
  266loPI    C1 4241   7.625  17.085   9.998 -0.0682  0.1717 -0.0628
  266loPI    C2 4242   7.576  17.438  10.181 -0.1070  0.0734  0.1184
  266loPI    C3 4243   7.712  17.425   9.805  0.0346  0.2747  0.1609
  266loPI   PO4 4244   7.433  16.981   9.926 -0.0177 -0.1208 -0.0925
  266loPI   GL1 4245   7.308  16.714   9.521  0.2488 -0.1842  0.0941
  266loPI   GL2 4246   7.041  16.858   9.567  0.0035  0.0172  0.0531
  266loPI   C1A 4247   7.459  16.417   9.273 -0.3215  0.0365  0.0808
  266loPI   C2A 4248   7.423  16.073   9.060  0.0818  0.2062  0.0650
  266loPI   C3A 4249   7.305  15.646   8.769 -0.1639  0.0869  0.1236
  266loPI   C4A 4250   7.211  15.666   8.467 -0.0094  0.4788 -0.0658
  266loPI   C5A 4251   7.001  15.592   8.093  0.1297 -0.1456 -0.2505
  266loPI   C6A 4252   7.018  15.351   7.753  0.2111  0.0279 -0.2285
  266loPI   C1B 4253   6.855  16.819   9.162  0.1371  0.1389  0.0280
  266loPI   C2B 4254   6.784  16.684   8.810  0.0625  0.3971  0.1722
  266loPI   C3B 4255   6.904  16.537   8.351 -0.0326  0.0618  0.1792
  266loPI   C4B 4256   6.845  16.433   7.929 -0.2759  0.2078  0.0276
  267loPI    C1 4257   7.110   7.315  10.374  0.0478 -0.1033 -0.2186
  267loPI    C2 4258   7.417   7.369  10.625 -0.3137  0.0603  0.2009
  267loPI    C3 4259   7.326   7.652  10.358 -0.1667  0.0571  0.1464
  267loPI   PO4 4260   7.137   7.089  10.311  0.2155  0.1016 -0.0520
  267loPI   GL1 4261   7.188   6.927   9.906 -0.2709  0.1799 -0.0266
  267loPI   GL2 4262   7.097   6.643   9.921 -0.3024 -0.1602  0.1121
  267loPI   C1A 4263   6.914   6.954   9.537 -0.3404 -0.0429  0.0645
  267loPI   C2A 4264   6.850   6.935   9.127 -0.1140  0.0016  0.1913
  267loPI   C3A 4265   6.864   6.838   8.725 -0.4636 -0.2077 -0.0773
  267loPI   C4A 4266   6.905   6.798   8.359 -0.2951  0.0212  0.2083
  267loPI   C5A 4267   6.958   6.661   7.877 -0.0562 -0.0342 -0.1400
  267loPI   C6A 4268   6.951   6.653   7.484 -0.0266  0.0037  0.1813
  267loPI   C1B 4269   6.983   6.497   9.536 -0.0368  0.1108  0.1133
  267loPI   C2B 4270   6.991   6.371   9.121 -0.1048  0.5360  0.0907
  267loPI   C3B 4271   7.014   6.336   8.662  0.2103 -0.2782 -0.3590
  267loPI   C4B 4272   6.982   6.341   8.280  0.1378 -0.0803  0.2704
  268loPI    C1 4273  16.050   8.855  10.571  0.0596 -0.0831 -0.2512
  268loPI    C2 4274  16.330   8.582  10.657 -0.0823 -0.1844 -0.1067
  268loPI    C3 4275  15.951   8.469  10.601 -0.1879  0.0085  0.1897
  268loPI   PO4 4276  16.060   9.021  10.200  0.1158 -0.2737  0.0460
  268loPI   GL1 4277  16.057   9.039   9.753 -0.1169 -0.2470 -0.1366
  268loPI   GL2 4278  16.093   9.416   9.818 -0.0215  0.0352 -0.0208
  268loPI   C1A 4279  16.046   9.097   9.273  0.2198  0.1057 -0.1575
  268loPI   C2A 4280  16.064   8.961   8.784 -0.1093 -0.0274 -0.0868
  268loPI   C3A 4281  16.113   9.118   8.401  0.1399  0.3213  0.0660
  268loPI   C4A 4282  16.236   8.946   8.048  0.2094  0.2337  0.5101
  268loPI   C5A 4283  16.603   8.729   7.961  0.0445 -0.0542 -0.0632
  268loPI   C6A 4284  16.958   8.857   8.170 -0.2468  0.0472 -0.2730
  268loPI   C1B 4285  16.054   9.561   9.389  0.3653 -0.1449 -0.1402
  268loPI   C2B 4286  16.187   9.494   8.930  0.1891 -0.1521  0.1575
  268loPI   C3B 4287  16.138   9.588   8.450  0.2254 -0.1389  0.0138
  268loPI   C4B 4288  16.326   9.453   8.028  0.3529  0.0924  0.1348
  269loPI    C1 4289  14.018  11.974  10.363  0.0419 -0.0271  0.0519
  269loPI    C2 4290  14.301  12.161  10.574  0.2581 -0.1742 -0.1035
  269loPI    C3 4291  14.005  11.969  10.762  0.2986 -0.0779  0.0606
  269loPI   PO4 4292  14.164  11.851  10.139 -0.1938  0.0516 -0.0677
  269loPI   GL1 4293  13.959  11.677   9.771  0.0151  0.2199 -0.0848
  269loPI   GL2 4294  13.651  11.644   9.674  0.2249 -0.0780  0.0781
  269loPI   C1A 4295  14.049  11.707   9.375 -0.0040  0.0371  0.0139
  269loPI   C2A 4296  14.167  11.734   8.977 -0.0127  0.0878 -0.2973
  269loPI   C3A 4297  14.158  11.577   8.556 -0.1941  0.1042 -0.0900
  269loPI   C4A 4298  14.294  11.589   8.106  0.1880  0.1368  0.0297
  269loPI   C5A 4299  14.331  11.402   7.686 -0.1243  0.0310 -0.0490
  269loPI   C6A 4300  14.495  11.081   7.611 -0.0125  0.0990 -0.0857
  269loPI   C1B 4301  13.597  11.455   9.317 -0.0733  0.0496 -0.1718
  269loPI   C2B 4302  13.694  11.509   8.880  0.1987 -0.0805  0.0806
  269loPI   C3B 4303  13.693  11.441   8.411  0.1610  0.2078 -0.1710
  269loPI   C4B 4304  13.673  11.026   8.274 -0.3987  0.3888  0.1035
  270loPI    C1 4305   2.777  16.958   9.429  0.0131 -0.2247  0.1084
  270loPI    C2 4306   2.794  17.133   9.789  0.3122 -0.2355  0.1022
  270loPI    C3 4307   2.749  17.356   9.459  0.0078 -0.2279  0.1463
  270loPI   PO4 4308   2.710  16.710   9.471 -0.1383  0.1022 -0.0310
  270loPI   GL1 4309   2.624  16.416   9.235 -0.1796 -0.1795  0.2374
  270loPI   GL2 4310   2.895  16.473   9.089  0.2376  0.1064 -0.0761
  270loPI   C1A 4311   2.430  16.599   8.810  0.0641  0.0199  0.2906
  270loPI   C2A 4312   2.350  16.785   8.398 -0.1408  0.1178 -0.0469
  270loPI   C3A 4313   2.032  16.887   8.131 -0.2424 -0.2133  0.4373
  270loPI   C4A 4314   1.953  16.934   7.743  0.6091  0.2550  0.0720
  270loPI   C5A 4315   1.837  16.776   7.368 -0.2705 -0.0625  0.0403
  270loPI   C6A 4316   1.877  17.005   6.969  0.0652  0.0639 -0.0008
  270loPI   C1B 4317   2.747  16.193   8.783 -0.1704  0.1262 -0.1628
  270loPI   C2B 4318   2.440  16.285   8.422 -0.0068  0.1262 -0.0193
  270loPI   C3B 4319   2.356  16.261   7.889  0.1301 -0.2670  0.1610
  270loPI   C4B 4320   2.177  16.412   7.492 -0.4057  0.2258 -0.1369
  271loPI    C1 4321  11.910   8.472  10.242 -0.0787 -0.0130 -0.1668
  271loPI    C2 4322  12.001   8.797  10.457 -0.0775 -0.0101 -0.1716
  271loPI    C3 4323  12.191   8.452  10.527 -0.0019  0.0175 -0.2401
  271loPI   PO4 4324  11.918   8.570  10.040  0.0460 -0.0293 -0.1605
  271loPI   GL1 4325  12.199   8.774   9.739 -0.2594  0.2404 -0.1382
  271loPI   GL2 4326  12.433   8.729   9.505 -0.0530  0.2372 -0.1210
  271loPI   C1A 4327  11.973   9.072   9.482 -0.2009 -0.0824  0.0115
  271loPI   C2A 4328  11.860   9.116   9.049  0.0558 -0.2750 -0.2750
  271loPI   C3A 4329  12.048   9.026   8.741  0.0461  0.2497  0.0801
  271loPI   C4A 4330  12.360   8.933   8.498 -0.2290  0.0738  0.2954
  271loPI   C5A 4331  12.523   8.663   8.151  0.0490 -0.0338 -0.2376
  271loPI   C6A 4332  12.829   8.874   7.880 -0.3020  0.1584  0.1359
  271loPI   C1B 4333  12.502   8.785   9.084  0.0860  0.2509  0.1490
  271loPI   C2B 4334  12.852   8.730   8.842  0.0668  0.0789 -0.2363
  271loPI   C3B 4335  12.869   8.607   8.496  0.2745 -0.1873 -0.1589
  271loPI   C4B 4336  13.046   8.417   8.173 -0.0601 -0.0580 -0.2803
  272loPI    C1 4337   2.818   9.885  10.641  0.1329 -0.0865 -0.0577
  272loPI    C2 4338   2.765   9.550  10.853  0.0488 -0.0510 -0.0222
  272loPI    C3 4339   2.779   9.904  11.039 -0.0815 -0.0144 -0.0808
  272loPI   PO4 4340   2.851   9.771  10.396  0.0909  0.2291  0.1376
  272loPI   GL1 4341   2.759   9.787   9.940 -0.4083 -0.0141  0.3295
  272loPI   GL2 4342   2.484   9.897  10.046 -0.1584  0.0283  0.0006
  272loPI   C1A 4343   2.943  10.178   9.786  0.2396 -0.0623  0.0904
  272loPI   C2A 4344   2.866  10.154   9.374 -0.0927  0.1249  0.0395
  272loPI   C3A 4345   2.928  10.093   8.968 -0.2919  0.2046 -0.2414
  272loPI   C4A 4346   2.892  10.178   8.545  0.0001 -0.2700  0.1105
  272loPI   C5A 4347   2.874  10.132   8.100  0.0519 -0.0594 -0.0713
  272loPI   C6A 4348   2.535  10.008   7.786 -0.1605  0.1306  0.0179
  272loPI   C1B 4349   2.475   9.964   9.549  0.4606  0.1402  0.3020
  272loPI   C2B 4350   2.418   9.913   9.081  0.0829 -0.0495  0.1273
  272loPI   C3B 4351   2.523   9.957   8.733 -0.0662  0.0701 -0.1366
  272loPI   C4B 4352   2.471   9.986   8.254  0.0530 -0.1632  0.0439
  273loPI    C1 4353  10.507   5.824  10.206  0.1694 -0.0820 -0.0209
  273loPI    C2 4354  10.314   6.175  10.210 -0.1301 -0.2444  0.2393
  273loPI    C3 4355  10.714   6.166  10.194 -0.1340  0.0983 -0.2746
  273loPI   PO4 4356  10.419   5.720  10.051  0.2162  0.0409 -0.1371
  273loPI   GL1 4357  10.246   5.863   9.746 -0.0287  0.2232  0.2146
  273loPI   GL2 4358  10.599   5.999   9.692  0.0554  0.0573  0.2318
  273loPI   C1A 4359  10.332   5.791   9.328 -0.0240 -0.1369 -0.0803
  273loPI   C2A 4360  10.753   5.672   9.202 -0.1320 -0.2270  0.1890
  273loPI   C3A 4361  10.819   6.046   8.788 -0.0795 -0.2134  0.2419
  273loPI   C4A 4362  10.674   6.163   8.366 -0.1226  0.1713  0.1247
  273loPI   C5A 4363  10.294   5.942   8.109 -0.1189  0.0358 -0.0669
  273loPI   C6A 4364  10.034   5.540   7.980  0.3721 -0.1234 -0.0866
  273loPI   C1B 4365  10.637   6.199   9.272  0.4205 -0.1084  0.0577
  273loPI   C2B 4366  10.424   6.391   8.812 -0.1549 -0.2000 -0.0715
  273loPI   C3B 4367  10.128   6.371   8.450  0.0874 -0.3077  0.2911
  273loPI   C4B 4368   9.793   6.430   8.110  0.2572  0.1340 -0.0635
  274loPI    C1 4369  16.276  10.909  10.438 -0.1623 -0.0372  0.0540
  274loPI    C2 4370  16.580  10.917  10.698 -0.1054 -0.3669  0.0030
  274loPI    C3 4371  16.217  10.797  10.817 -0.1168 -0.3680 -0.0328
  274loPI   PO4 4372  16.362  10.749  10.260  0.1261 -0.2801  0.0808
  274loPI   GL1 4373  16.226  10.549   9.842 -0.1344 -0.2608 -0.0355
  274loPI   GL2 4374  16.094  10.796   9.662  0.0451 -0.2157 -0.3232
  274loPI   C1A 4375  16.297  10.477   9.397  0.0895  0.0306  0.1976
  274loPI   C2A 4376  16.314  10.517   8.927 -0.1299  0.1262 -0.4646
  274loPI   C3A 4377  16.256  10.517   8.532  0.2570  0.0038 -0.1926
  274loPI   C4A 4378  16.334  10.522   8.152  0.0198  0.1488  0.2541
  274loPI   C5A 4379  16.362  10.666   7.736  0.0087  0.0131 -0.0861
  274loPI   C6A 4380  16.421  10.384   7.341 -0.2537 -0.1482  0.0580
  274loPI   C1B 4381  16.016  10.871   9.222 -0.1211 -0.1644  0.1063
  274loPI   C2B 4382  15.940  10.904   8.877 -0.0061 -0.0440 -0.0287
  274loPI   C3B 4383  15.881  10.849   8.499 -0.1147  0.2646  0.0711
  274loPI   C4B 4384  15.970  10.914   8.079  0.0287 -0.2822 -0.1142
  275loPI    C1 4385   7.415  11.484   9.914 -0.3066 -0.1439 -0.1171
  275loPI    C2 4386   7.300  11.707  10.226  0.0639 -0.0827 -0.0190
  275loPI    C3 4387   7.299  11.307  10.254  0.0964 -0.0774  0.0615
  275loPI   PO4 4388   7.245  11.576   9.701 -0.2288 -0.1003 -0.0918
  275loPI   GL1 4389   7.055  11.681   9.303 -0.3774 -0.0128 -0.1519
  275loPI   GL2 4390   7.188  11.371   9.148 -0.1357 -0.5014  0.0162
  275loPI   C1A 4391   6.607  11.572   9.093 -0.1272  0.0250 -0.0203
  275loPI   C2A 4392   6.404  11.532   8.831  0.0645  0.0744  0.0002
  275loPI   C3A 4393   6.786  11.320   8.419 -0.0964  0.3325 -0.3626
  275loPI   C4A 4394   7.058  10.935   8.444 -0.0936  0.0740  0.0804
  275loPI   C5A 4395   6.905  10.457   8.422  0.2863 -0.0003  0.0355
  275loPI   C6A 4396   6.865   9.986   8.306  0.2083 -0.0627 -0.4086
  275loPI   C1B 4397   6.924  11.110   9.042  0.1944  0.1629  0.0482
  275loPI   C2B 4398   6.883  10.689   8.915  0.0117 -0.2379 -0.1169
  275loPI   C3B 4399   7.077  10.345   8.946 -0.2935 -0.2138 -0.0209
  275loPI   C4B 4400   7.087   9.866   8.969  0.0361  0.3239  0.0331
  276loPI    C1 4401   7.584   1.348  10.189  0.0629  0.1407  0.1942
  276loPI    C2 4402   7.367   1.142  10.453  0.1119 -0.0622  0.0787
  276loPI    C3 4403   7.766   1.139  10.478  0.1161 -0.0717  0.0100
  276loPI   PO4 4404   7.335   1.444   9.953 -0.4426  0.1484 -0.3419
  276loPI   GL1 4405   7.109   1.552   9.563  0.0239 -0.0365 -0.0019
  276loPI   GL2 4406   7.412   1.468   9.391  0.0636  0.1254 -0.0029
  276loPI   C1A 4407   7.115   1.697   9.019  0.0356  0.1003 -0.1567
  276loPI   C2A 4408   7.011   1.676   8.701 -0.0417  0.0142 -0.0808
  276loPI   C3A 4409   7.034   1.683   8.273  0.0868 -0.1488  0.1530
  276loPI   C4A 4410   7.028   1.852   7.829  0.0450  0.1850  0.1891
  276loPI   C5A 4411   7.250   2.019   7.483  0.1649  0.0428  0.1907
  276loPI   C6A 4412   7.390   2.130   7.092  0.2159  0.0303 -0.1591
  276loPI   C1B 4413   7.617   1.407   8.999 -0.0566 -0.0052  0.0795
  276loPI   C2B 4414   7.510   1.453   8.580 -0.0726 -0.0260  0.0492
  276loPI   C3B 4415   7.622   1.588   8.193 -0.1983  0.0980 -0.1165
  276loPI   C4B 4416   7.574   1.620   7.740  0.1354  0.0016 -0.0975
  277loPI    C1 4417  12.323  17.869  10.518 -0.1438 -0.0982 -0.0515
  277loPI    C2 4418  12.601  17.677  10.733 -0.0610  0.1781  0.0932
  277loPI    C3 4419  12.340  17.920  10.915 -0.1880  0.1754 -0.0827
  277loPI   PO4 4420  12.457  17.870  10.319 -0.3158 -0.0315  0.1360
  277loPI   GL1 4421  12.354  17.732   9.938  0.1692  0.2167 -0.0931
  277loPI   GL2 4422  12.026  17.637   9.822 -0.2046  0.0633  0.0589
  277loPI   C1A 4423  12.346  17.920   9.520 -0.1588  0.2715  0.2216
  277loPI   C2A 4424  12.353  18.064   9.057 -0.0624 -0.3460  0.1001
  277loPI   C3A 4425  12.427  18.135   8.558  0.0219  0.0937  0.1512
  277loPI   C4A 4426  12.498  18.201   8.045  0.1858  0.1311 -0.2692
  277loPI   C5A 4427  12.696  18.370   7.629  0.2718 -0.4215 -0.2953
  277loPI   C6A 4428  12.796  18.608   7.389 -0.2098  0.2319  0.0446
  277loPI   C1B 4429  11.900  17.606   9.440  0.0419 -0.1579  0.0523
  277loPI   C2B 4430  12.006  17.714   9.006 -0.4296  0.0547 -0.1208
  277loPI   C3B 4431  12.034  17.771   8.548  0.2197  0.1333  0.0124
  277loPI   C4B 4432  12.172  17.867   8.133  0.0914 -0.0111  0.0198
  278loPI    C1 4433  11.571   9.848  10.284  0.0470 -0.1787 -0.1855
  278loPI    C2 4434  11.882   9.963  10.061 -0.0015 -0.0280 -0.1767
  278loPI    C3 4435  11.905   9.629  10.280  0.2919  0.1756  0.1135
  278loPI   PO4 4436  11.388   9.933  10.124  0.0479  0.1146 -0.1203
  278loPI   GL1 4437  11.481  10.245   9.879  0.0519  0.0193  0.1539
  278loPI   GL2 4438  11.437  10.553   9.760  0.0454 -0.0930  0.1688
  278loPI   C1A 4439  11.291  10.101   9.439  0.1590  0.4606 -0.0173
  278loPI   C2A 4440  11.185  10.224   8.943 -0.0991  0.2916  0.0081
  278loPI   C3A 4441  11.100  10.151   8.477 -0.0861  0.1667  0.3986
  278loPI   C4A 4442  11.146   9.995   8.073  0.1597 -0.4106 -0.2524
  278loPI   C5A 4443  11.296  10.282   7.738 -0.1990  0.0963  0.0314
  278loPI   C6A 4444  11.570  10.328   7.504 -0.2712  0.2571  0.0082
  278loPI   C1B 4445  11.643  10.554   9.426 -0.0008  0.2010  0.0589
  278loPI   C2B 4446  11.564  10.596   8.963 -0.0220  0.2604  0.1124
  278loPI   C3B 4447  11.360  10.632   8.579  0.1001 -0.1073  0.2366
  278loPI   C4B 4448  11.128  10.619   8.119 -0.2963 -0.1969 -0.0752
  279loPI    C1 4449   6.081  12.906  10.392 -0.0853 -0.0531 -0.1974
  279loPI    C2 4450   6.085  12.701  10.735  0.0290 -0.0423 -0.1919
  279loPI    C3 4451   5.910  13.060  10.719  0.0124 -0.0484 -0.1480
  279loPI   PO4 4452   6.169  12.736  10.214  0.0486  0.3472 -0.0252
  279loPI   GL1 4453   6.346  12.841   9.751 -0.4935  0.0697 -0.1949
  279loPI   GL2 4454   6.461  12.518   9.593  0.3276  0.0392 -0.1975
  279loPI   C1A 4455   6.213  12.870   9.297  0.0848 -0.1468  0.0464
  279loPI   C2A 4456   6.183  12.829   8.860  0.0169  0.1030 -0.1687
  279loPI   C3A 4457   6.356  12.658   8.392  0.0280 -0.1227  0.2849
  279loPI   C4A 4458   6.304  12.748   7.862  0.1219 -0.0766 -0.0334
  279loPI   C5A 4459   6.436  12.772   7.484  0.0503 -0.0149  0.0504
  279loPI   C6A 4460   6.812  12.776   7.067 -0.0353  0.0478 -0.0625
  279loPI   C1B 4461   6.552  12.531   9.221 -0.3137 -0.1489 -0.2092
  279loPI   C2B 4462   6.572  12.452   8.831 -0.2442  0.2933 -0.1440
  279loPI   C3B 4463   6.794  12.399   8.413 -0.0985  0.3029  0.1216
  279loPI   C4B 4464   7.092  12.017   8.386  0.0655  0.0693 -0.1852
  280loPI    C1 4465  17.611  15.744   9.941  0.2301 -0.0559  0.1776
  280loPI    C2 4466  17.264  15.630  10.105  0.0894  0.0666 -0.0300
  280loPI    C3 4467  17.548  15.795  10.333 -0.0222  0.0446  0.1264
  280loPI   PO4 4468  17.674  15.640   9.788 -0.0346 -0.0964 -0.1590
  280loPI   GL1 4469  17.751  15.523   9.397  0.1538 -0.2694  0.3443
  280loPI   GL2 4470  17.571  15.612   9.166  0.4231 -0.4272  0.0527
  280loPI   C1A 4471  18.063  15.416   9.048 -0.3533  0.1786 -0.0972
  280loPI   C2A 4472  18.236  15.569   8.635  0.1468 -0.0081 -0.2293
  280loPI   C3A 4473  18.420  15.445   8.211  0.0148 -0.1822  0.0521
  280loPI   C4A 4474  18.384  15.501   7.794 -0.0682 -0.4840 -0.2881
  280loPI   C5A 4475  18.513  15.575   7.465  0.2574  0.1954 -0.1506
  280loPI   C6A 4476  18.499  15.801   7.053  0.1931 -0.0237 -0.0831
  280loPI   C1B 4477  17.249  15.544   8.838 -0.0945  0.1217  0.0344
  280loPI   C2B 4478  17.212  15.331   8.412 -0.1079  0.1367 -0.0688
  280loPI   C3B 4479  17.307  15.343   7.918  0.4787  0.0688 -0.1072
  280loPI   C4B 4480  17.419  15.612   7.502  0.1597 -0.4147  0.0476
  281loPI    C1 4481   1.832   1.042  10.239  0.1336  0.2260  0.1014
  281loPI    C2 4482   1.854   0.760  10.522 -0.0905  0.0833 -0.0205
  281loPI    C3 4483   1.902   1.145  10.619  0.1164  0.0129  0.1637
  281loPI   PO4 4484   2.075   0.840  10.065  0.1256  0.0885 -0.1059
  281loPI   GL1 4485   2.336   0.866   9.685 -0.2804 -0.1255 -0.0523
  281loPI   GL2 4486   2.517   1.113   9.810 -0.1252  0.0476  0.1638
  281loPI   C1A 4487   2.570   0.823   9.284  0.3581  0.0906  0.2552
  281loPI   C2A 4488   2.661   0.793   8.849 -0.0618 -0.1334  0.2761
  281loPI   C3A 4489   2.680   0.830   8.411 -0.0733 -0.3590 -0.0320
  281loPI   C4A 4490   2.566   0.846   7.999 -0.2731 -0.0917 -0.2480
  281loPI   C5A 4491   2.406   1.114   7.758 -0.3012 -0.1018 -0.2671
  281loPI   C6A 4492   2.170   1.412   7.873 -0.0865  0.1035  0.0577
  281loPI   C1B 4493   2.531   1.297   9.443  0.2267  0.1928  0.0302
  281loPI   C2B 4494   2.557   1.346   8.943  0.0282  0.3001  0.0010
  281loPI   C3B 4495   2.497   1.358   8.607 -0.1127 -0.3534  0.1568
  281loPI   C4B 4496   2.566   1.338   8.232  0.0905 -0.1927 -0.0348
  282loPI    C1 4497   1.292   4.068  10.098  0.0410 -0.1114 -0.0016
  282loPI    C2 4498   1.256   4.320  10.407 -0.1451 -0.1055 -0.0271
  282loPI    C3 4499   1.275   3.926  10.472  0.2544 -0.0824  0.0203
  282loPI   PO4 4500   1.454   4.207   9.963 -0.0533  0.1416 -0.3155
  282loPI   GL1 4501   1.854   4.105   9.728 -0.0706 -0.1964 -0.1026
  282loPI   GL2 4502   1.981   3.763   9.903 -0.0145  0.2984 -0.0895
  282loPI   C1A 4503   2.021   4.220   9.318 -0.3464  0.3168 -0.2333
  282loPI   C2A 4504   2.410   4.236   9.019  0.2614 -0.2725  0.2028
  282loPI   C3A 4505   2.479   4.306   8.606 -0.1186 -0.3027 -0.0223
  282loPI   C4A 4506   2.355   4.374   8.052 -0.0194  0.3031  0.3458
  282loPI   C5A 4507   2.605   4.276   7.652  0.0973  0.1570 -0.0749
  282loPI   C6A 4508   2.732   4.171   7.246  0.3384 -0.2413 -0.2245
  282loPI   C1B 4509   2.005   3.747   9.445  0.1684  0.3969  0.0087
  282loPI   C2B 4510   2.202   3.820   9.110 -0.4695 -0.1800 -0.2376
  282loPI   C3B 4511   2.096   3.978   8.732 -0.0579  0.1049  0.1002
  282loPI   C4B 4512   2.036   3.893   8.265 -0.3374 -0.0075  0.0146
  283loPI    C1 4513   0.963  14.580  10.035  0.1932  0.1539 -0.1989
  283loPI    C2 4514   0.991  14.907   9.806 -0.1719  0.2848 -0.0644
  283loPI    C3 4515   0.859  14.937  10.182  0.1420  0.0298  0.0716
  283loPI   PO4 4516   1.030  14.394   9.876  0.1035 -0.0002  0.1961
  283loPI   GL1 4517   1.027  14.279   9.543 -0.0248  0.0809 -0.0653
  283loPI   GL2 4518   0.803  14.574   9.443 -0.0464 -0.0148 -0.0335
  283loPI   C1A 4519   0.898  14.116   9.121 -0.1269  0.2064  0.1204
  283loPI   C2A 4520   0.850  14.082   8.693  0.2355 -0.0406 -0.0549
  283loPI   C3A 4521   0.815  14.146   8.335 -0.2879 -0.2885  0.1141
  283loPI   C4A 4522   0.682  14.144   7.885  0.3814 -0.0934 -0.0209
  283loPI   C5A 4523   0.568  14.122   7.453  0.0337  0.2410  0.2445
  283loPI   C6A 4524   0.316  14.109   7.113 -0.2306 -0.2383  0.0714
  283loPI   C1B 4525   0.444  14.550   9.185 -0.0661  0.0952  0.0773
  283loPI   C2B 4526   0.446  14.425   8.818  0.0117 -0.1696 -0.0444
  283loPI   C3B 4527   0.380  14.568   8.430 -0.2705  0.3505 -0.0572
  283loPI   C4B 4528   0.244  14.517   7.955  0.2973  0.1530  0.0889
  284loPI    C1 4529   9.732   6.113  10.540  0.1708 -0.3204 -0.0339
  284loPI    C2 4530   9.560   6.381  10.782  0.4184 -0.3389  0.1679
  284loPI    C3 4531   9.426   6.004  10.772  0.2686 -0.2850  0.1136
  284loPI   PO4 4532   9.806   6.292  10.359 -0.2597  0.0075 -0.3516
  284loPI   GL1 4533   9.866   6.353   9.986  0.0401  0.0913 -0.0374
  284loPI   GL2 4534   9.822   6.142   9.703  0.0432  0.0360 -0.0336
  284loPI   C1A 4535   9.794   6.596   9.582 -0.1717  0.1463 -0.2203
  284loPI   C2A 4536   9.687   6.810   9.160  0.2296 -0.0092  0.1383
  284loPI   C3A 4537   9.532   6.951   8.789  0.1410  0.1954 -0.0867
  284loPI   C4A 4538   9.661   6.912   8.317 -0.0316  0.3209  0.1661
  284loPI   C5A 4539  10.137   6.853   8.246 -0.1300  0.0158  0.3264
  284loPI   C6A 4540  10.469   6.811   8.437 -0.0187 -0.0499  0.1969
  284loPI   C1B 4541   9.662   6.091   9.266  0.1984 -0.1219 -0.1483
  284loPI   C2B 4542   9.627   6.345   9.130  0.0684 -0.0258 -0.2221
  284loPI   C3B 4543   9.245   6.646   9.016  0.1978  0.1541  0.1751
  284loPI   C4B 4544   9.119   6.652   8.554 -0.0005 -0.0435  0.0949
  285loPI    C1 4545   1.453   5.629  10.096 -0.2302 -0.0343  0.0343
  285loPI    C2 4546   1.745   5.384  10.218 -0.0510  0.2947  0.2839
  285loPI    C3 4547   1.443   5.473  10.465 -0.1753  0.2381  0.1536
  285loPI   PO4 4548   1.618   5.850   9.992  0.0045 -0.1304 -0.1652
  285loPI   GL1 4549   1.578   6.154   9.797 -0.2475 -0.1376  0.1738
  285loPI   GL2 4550   1.886   6.215   9.572  0.3701 -0.3220 -0.1975
  285loPI   C1A 4551   1.436   6.119   9.393  0.0859 -0.0190 -0.1236
  285loPI   C2A 4552   1.361   5.940   8.950 -0.1076  0.0919 -0.0725
  285loPI   C3A 4553   1.552   5.830   8.549 -0.1280  0.0699  0.1089
  285loPI   C4A 4554   1.417   5.652   8.193 -0.0334  0.1928 -0.0375
  285loPI   C5A 4555   1.275   5.236   8.078  0.0371 -0.1245 -0.2898
  285loPI   C6A 4556   1.070   4.955   7.761 -0.0234  0.0451  0.3743
  285loPI   C1B 4557   1.839   6.008   9.089 -0.1889 -0.2994 -0.0139
  285loPI   C2B 4558   1.860   6.229   8.735  0.2370  0.2062 -0.0165
  285loPI   C3B 4559   2.116   6.250   8.342  0.1273 -0.2757  0.1034
  285loPI   C4B 4560   2.184   6.203   7.819 -0.0135  0.2733 -0.2060
  286loPI    C1 4561   4.765  16.719  10.421  0.0573  0.1121  0.0320
  286loPI    C2 4562   4.992  16.513  10.678 -0.0759 -0.1990 -0.0941
  286loPI    C3 4563   4.610  16.591  10.767 -0.0496 -0.0776 -0.0848
  286loPI   PO4 4564   4.912  16.555  10.188  0.1669  0.1590 -0.2121
  286loPI   GL1 4565   5.044  16.716   9.726 -0.0141 -0.1472 -0.0353
  286loPI   GL2 4566   5.102  17.012   9.601  0.1975 -0.1380 -0.2199
  286loPI   C1A 4567   5.018  16.655   9.293  0.1150 -0.0355  0.2947
  286loPI   C2A 4568   4.929  16.680   8.947 -0.3027 -0.3594 -0.0618
  286loPI   C3A 4569   4.646  16.781   8.760 -0.0663 -0.1166  0.3831
  286loPI   C4A 4570   4.403  17.076   8.578  0.0218 -0.1305 -0.1545
  286loPI   C5A 4571   4.136  17.197   8.280  0.1652  0.0682  0.2188
  286loPI   C6A 4572   4.033  17.215   7.873  0.0810 -0.0061  0.1476
  286loPI   C1B 4573   5.353  17.104   9.260 -0.1788  0.1940 -0.1851
  286loPI   C2B 4574   5.334  17.239   8.853  0.1250 -0.2146  0.3549
  286loPI   C3B 4575   5.094  16.951   8.517  0.3253 -0.1674 -0.2170
  286loPI   C4B 4576   5.200  16.744   8.221  0.0977 -0.3158 -0.0756
  287loPI    C1 4577   7.192   8.066  10.069 -0.0029 -0.0420 -0.1039
  287loPI    C2 4578   7.373   8.045   9.713 -0.0055 -0.1721 -0.0979
  287loPI    C3 4579   7.192   7.722   9.865 -0.2101 -0.0537 -0.0863
  287loPI   PO4 4580   7.015   8.166  10.072  0.2653 -0.0859  0.1380
  287loPI   GL1 4581   6.790   8.281   9.731 -0.0826  0.3097 -0.1753
  287loPI   GL2 4582   7.057   8.490   9.599 -0.0557  0.1063 -0.1311
  287loPI   C1A 4583   6.679   8.159   9.255  0.2155  0.0567 -0.1250
  287loPI   C2A 4584   6.414   8.034   8.830  0.0024 -0.0705  0.0060
  287loPI   C3A 4585   6.208   7.936   8.382  0.4129 -0.2522  0.2460
  287loPI   C4A 4586   6.030   7.861   7.906  0.0514 -0.1009 -0.3800
  287loPI   C5A 4587   5.900   7.554   7.593  0.0589 -0.0288 -0.0586
  287loPI   C6A 4588   6.076   7.162   7.347 -0.0238  0.0168 -0.2495
  287loPI   C1B 4589   7.142   8.312   9.242 -0.0165 -0.0395  0.4486
  287loPI   C2B 4590   7.034   8.090   8.951  0.2645  0.1045 -0.0165
  287loPI   C3B 4591   7.119   8.035   8.549  0.1531  0.0531 -0.2162
  287loPI   C4B 4592   7.200   7.703   8.233  0.1501 -0.1280  0.1265
  288loPI    C1 4593  15.079  15.033  10.238  0.0539 -0.0582 -0.0883
  288loPI    C2 4594  14.777  14.855  10.432  0.0613 -0.0261 -0.0475
  288loPI    C3 4595  15.136  14.680  10.415 -0.0371 -0.2062 -0.3489
  288loPI   PO4 4596  14.950  15.098   9.966  0.3898  0.1164 -0.0296
  288loPI   GL1 4597  14.941  15.131   9.606 -0.2341  0.1070  0.0111
  288loPI   GL2 4598  15.089  14.864   9.523  0.0356 -0.2690  0.1884
  288loPI   C1A 4599  15.158  15.263   9.198 -0.4684 -0.0409  0.1610
  288loPI   C2A 4600  15.219  15.132   8.679  0.2509  0.1147 -0.2148
  288loPI   C3A 4601  15.108  14.744   8.470 -0.2744 -0.2833  0.2936
  288loPI   C4A 4602  14.989  14.476   8.115 -0.0857  0.0797 -0.0210
  288loPI   C5A 4603  14.690  14.375   7.801 -0.2523  0.1249 -0.1686
  288loPI   C6A 4604  14.415  14.416   7.361 -0.0136 -0.1696 -0.1367
  288loPI   C1B 4605  15.123  14.713   9.121 -0.1339  0.1254  0.2866
  288loPI   C2B 4606  15.459  14.707   8.843 -0.2416  0.0095 -0.1297
  288loPI   C3B 4607  15.586  14.915   8.419  0.1087  0.0426 -0.0105
  288loPI   C4B 4608  15.320  14.986   8.023  0.3463 -0.0254  0.0475
  289loPI    C1 4609   0.953  15.500   9.956 -0.0453  0.2206  0.0892
  289loPI    C2 4610   1.253  15.249  10.039 -0.1355  0.0741 -0.0218
  289loPI    C3 4611   1.239  15.609  10.213  0.1478  0.1145 -0.0779
  289loPI   PO4 4612   0.952  15.460   9.677  0.4114 -0.0023  0.0515
  289loPI   GL1 4613   0.836  15.491   9.269  0.0292 -0.1242  0.0897
  289loPI   GL2 4614   0.541  15.581   9.174  0.0443 -0.2223  0.1288
  289loPI   C1A 4615   0.973  15.302   8.919  0.2039  0.1184 -0.1620
  289loPI   C2A 4616   1.139  15.222   8.493 -0.0323  0.1611 -0.1829
  289loPI   C3A 4617   1.004  15.110   8.171  0.3150  0.0606  0.1269
  289loPI   C4A 4618   0.872  15.041   7.742 -0.0150 -0.0095 -0.0247
  289loPI   C5A 4619   0.693  15.177   7.372 -0.1236  0.0157  0.0299
  289loPI   C6A 4620   0.510  15.453   7.130 -0.0770  0.0017  0.0644
  289loPI   C1B 4621   0.600  15.629   8.857 -0.2266  0.1418 -0.2078
  289loPI   C2B 4622   0.732  15.572   8.456  0.1762 -0.0522  0.1537
  289loPI   C3B 4623   0.694  15.476   8.015  0.0298 -0.2362  0.1310
  289loPI   C4B 4624   0.483  15.628   7.664 -0.0773 -0.0622  0.1815
  290loPI    C1 4625   5.638   8.330  10.193 -0.1071 -0.3857 -0.1987
  290loPI    C2 4626   5.866   8.431  10.506 -0.0454  0.1544 -0.4079
  290loPI    C3 4627   5.595   8.140  10.542 -0.1204  0.2847  0.1828
  290loPI   PO4 4628   5.550   8.663  10.096  0.1133  0.0372  0.2012
  290loPI   GL1 4629   5.190   8.808   9.784 -0.0960 -0.0378  0.0092
  290loPI   GL2 4630   4.960   9.028   9.736  0.2064 -0.0313 -0.1158
  290loPI   C1A 4631   5.140   8.464   9.512 -0.2705 -0.4159 -0.0696
  290loPI   C2A 4632   5.173   8.543   8.980  0.0842  0.1991  0.3351
  290loPI   C3A 4633   5.389   8.637   8.659 -0.0430  0.1543 -0.1764
  290loPI   C4A 4634   5.340   8.603   8.233 -0.0319  0.0166  0.1511
  290loPI   C5A 4635   5.338   8.619   7.799  0.2346 -0.2508  0.2913
  290loPI   C6A 4636   5.357   8.258   7.505 -0.1269  0.4106 -0.2117
  290loPI   C1B 4637   4.971   8.881   9.270  0.0853  0.1196 -0.0194
  290loPI   C2B 4638   4.970   9.012   8.836 -0.2372 -0.3828  0.1099
  290loPI   C3B 4639   4.966   8.968   8.513 -0.1564  0.2331  0.2258
  290loPI   C4B 4640   5.018   8.969   8.096 -0.1368  0.0751 -0.1886
  291loPI    C1 4641   6.319  18.637   9.884  0.0668  0.2421  0.1215
  291loPI    C2 4642   6.109  18.811  10.176 -0.1735  0.6814 -0.2976
  291loPI    C3 4643   5.921  18.656   9.859  0.0611 -0.0707 -0.0922
  291loPI   PO4 4644   6.518  18.458   9.965  0.1102  0.1887 -0.1876
  291loPI   GL1 4645   6.787  18.418   9.559 -0.4909 -0.0694 -0.0744
  291loPI   GL2 4646   6.606  18.760   9.409  0.3580 -0.2831 -0.0227
  291loPI   C1A 4647   7.037  18.160   9.398  0.0992 -0.0172  0.0990
  291loPI   C2A 4648   7.288  18.202   9.086  0.3380  0.0234  0.0614
  291loPI   C3A 4649   7.519  18.381   8.838  0.3763 -0.0243  0.4171
  291loPI   C4A 4650   7.759  18.143   8.578 -0.2677  0.0744  0.3110
  291loPI   C5A 4651   7.832  18.090   8.268  0.1600 -0.2673  0.0379
  291loPI   C6A 4652   7.953  18.285   7.891 -0.1490 -0.0126  0.0892
  291loPI   C1B 4653   6.473  18.688   8.967 -0.1888  0.1420  0.0067
  291loPI   C2B 4654   6.386  18.846   8.640  0.0744  0.1960  0.4364
  291loPI   C3B 4655   6.554  18.911   8.219  0.0539 -0.1942 -0.0502
  291loPI   C4B 4656   6.547  18.790   7.832  0.1768  0.0626  0.0431
  292loPI    C1 4657   7.624   6.325  10.781 -0.2494 -0.1039  0.1014
  292loPI    C2 4658   7.227   6.374  10.786 -0.2229  0.1224  0.1040
  292loPI    C3 4659   7.446   6.481  11.103 -0.1348  0.2275  0.0087
  292loPI   PO4 4660   7.759   6.458  10.558  0.1716 -0.2259 -0.0627
  292loPI   GL1 4661   7.879   6.451  10.152  0.1545 -0.1683  0.1779
  292loPI   GL2 4662   7.908   6.092  10.175  0.1133  0.1653  0.0889
  292loPI   C1A 4663   7.990   6.443   9.659  0.0384 -0.1301 -0.0750
  292loPI   C2A 4664   8.001   6.202   9.227 -0.0400 -0.1946 -0.4044
  292loPI   C3A 4665   7.977   6.053   8.746 -0.1485  0.1102  0.0783
  292loPI   C4A 4666   8.062   6.038   8.241 -0.3347  0.2279 -0.1950
  292loPI   C5A 4667   7.968   6.076   7.787  0.0494 -0.0574 -0.4361
  292loPI   C6A 4668   8.070   6.269   7.365 -0.1670 -0.3648  0.1964
  292loPI   C1B 4669   7.934   5.934   9.724  0.1717 -0.1801 -0.0039
  292loPI   C2B 4670   8.030   5.657   9.487 -0.2265  0.3208 -0.2054
  292loPI   C3B 4671   8.065   5.577   9.062  0.1227 -0.1747  0.0355
  292loPI   C4B 4672   8.162   5.088   8.810  0.0440  0.1758  0.2688
  293loPI    C1 4673   2.248  15.582   9.744 -0.1403  0.0998 -0.0258
  293loPI    C2 4674   2.070  15.576  10.102 -0.0461  0.0820  0.0206
  293loPI    C3 4675   2.469  15.592  10.076 -0.0510  0.0435 -0.0834
  293loPI   PO4 4676   2.137  15.406   9.630  0.1468  0.1252 -0.0734
  293loPI   GL1 4677   2.171  15.122   9.349  0.3546 -0.1767 -0.1518
  293loPI   GL2 4678   2.443  15.053   9.405 -0.0919  0.2568 -0.0474
  293loPI   C1A 4679   1.969  15.061   8.889 -0.1942 -0.0461  0.0887
  293loPI   C2A 4680   1.869  15.008   8.531 -0.3225  0.1550  0.2637
  293loPI   C3A 4681   1.819  14.969   8.090  0.0457  0.2088  0.1476
  293loPI   C4A 4682   1.983  15.156   7.719 -0.1839  0.3796  0.0934
  293loPI   C5A 4683   2.258  14.993   7.456 -0.0289  0.1723  0.0981
  293loPI   C6A 4684   2.438  15.177   7.156 -0.0176  0.2944 -0.0436
  293loPI   C1B 4685   2.607  15.022   8.955 -0.0969 -0.1696  0.2998
  293loPI   C2B 4686   2.765  15.352   8.799 -0.1628  0.0377  0.1533
  293loPI   C3B 4687   2.490  15.749   8.710  0.0974  0.3235  0.0967
  293loPI   C4B 4688   2.314  16.039   8.898 -0.3197  0.0207  0.1481
  294loPI    C1 4689   6.485  13.903  10.441  0.3242 -0.1548 -0.1393
  294loPI    C2 4690   6.442  13.663  10.758  0.1520 -0.0066 -0.0488
  294loPI    C3 4691   6.525  14.051  10.810 -0.2771  0.1060 -0.1679
  294loPI   PO4 4692   6.502  13.757  10.235 -0.1245  0.1503 -0.1156
  294loPI   GL1 4693   6.615  13.363   9.895  0.0027  0.1638  0.0760
  294loPI   GL2 4694   6.629  13.784   9.777 -0.0326  0.2597  0.2115
  294loPI   C1A 4695   6.445  13.337   9.483 -0.1513  0.1216  0.2035
  294loPI   C2A 4696   6.173  13.377   9.085  0.0922  0.2614 -0.0638
  294loPI   C3A 4697   6.150  13.584   8.779 -0.3328  0.2108  0.1213
  294loPI   C4A 4698   6.046  13.569   8.364 -0.3163 -0.0535  0.0377
  294loPI   C5A 4699   6.021  13.696   7.919 -0.1424 -0.1450 -0.1087
  294loPI   C6A 4700   5.743  13.627   7.527 -0.2478  0.1854  0.2567
  294loPI   C1B 4701   6.510  13.942   9.395  0.0927  0.2773  0.0088
  294loPI   C2B 4702   6.438  13.983   8.935 -0.0689 -0.2603  0.0451
  294loPI   C3B 4703   6.290  14.009   8.563  0.1198 -0.1281  0.0230
  294loPI   C4B 4704   6.394  13.916   8.189  0.0633 -0.1533  0.0032
  295loPI    C1 4705  13.306   6.591  10.513 -0.0990  0.0741  0.1278
  295loPI    C2 4706  13.282   6.228  10.680 -0.2194 -0.0423 -0.1344
  295loPI    C3 4707  13.171   6.552  10.887  0.0022 -0.1397  0.1436
  295loPI   PO4 4708  13.187   6.497  10.213 -0.5199 -0.6176  0.0457
  295loPI   GL1 4709  12.967   6.435   9.816  0.1298  0.1606 -0.3006
  295loPI   GL2 4710  13.198   6.139   9.774  0.1962  0.0625  0.0860
  295loPI   C1A 4711  12.947   6.728   9.456 -0.2396 -0.0451  0.0086
  295loPI   C2A 4712  12.954   7.075   9.140 -0.4534  0.2860  0.3591
  295loPI   C3A 4713  13.099   7.388   8.919 -0.0327 -0.1750 -0.1686
  295loPI   C4A 4714  13.117   7.846   8.753  0.0500  0.0242  0.0717
  295loPI   C5A 4715  12.930   8.038   8.467  0.0453  0.1382 -0.1711
  295loPI   C6A 4716  12.590   8.229   8.299 -0.0097 -0.2272 -0.0305
  295loPI   C1B 4717  13.123   6.228   9.334 -0.1983 -0.3866 -0.0025
  295loPI   C2B 4718  13.058   6.440   8.996  0.0293 -0.0211  0.1963
  295loPI   C3B 4719  13.119   6.694   8.680  0.0188  0.1770 -0.0892
  295loPI   C4B 4720  13.236   6.752   8.223  0.0664 -0.0011  0.0118
  296loPI    C1 4721  10.756  17.279  10.619  0.0592 -0.1994 -0.0468
  296loPI    C2 4722  10.496  16.977  10.653 -0.1081 -0.0476  0.0387
  296loPI    C3 4723  10.625  17.167  10.980 -0.1075  0.0608 -0.0241
  296loPI   PO4 4724  10.946  17.100  10.420  0.2833 -0.2523  0.0182
  296loPI   GL1 4725  11.077  17.156  10.073  0.1119 -0.1999 -0.0615
  296loPI   GL2 4726  10.922  16.987   9.809  0.2112  0.2061 -0.2022
  296loPI   C1A 4727  11.242  17.464   9.801 -0.0993  0.1333 -0.1477
  296loPI   C2A 4728  11.289  17.569   9.406 -0.0470 -0.3109  0.0634
  296loPI   C3A 4729  11.446  17.728   9.065  0.1625  0.0179  0.0137
  296loPI   C4A 4730  11.632  17.973   8.647  0.0559 -0.1747  0.0166
  296loPI   C5A 4731  11.552  18.014   8.184 -0.3715  0.2263  0.1890
  296loPI   C6A 4732  11.326  18.030   7.871 -0.0864  0.0260  0.0254
  296loPI   C1B 4733  11.018  17.140   9.419  0.0698  0.2415  0.0826
  296loPI   C2B 4734  11.064  17.332   8.997 -0.2640  0.0944 -0.2686
  296loPI   C3B 4735  11.138  17.496   8.541 -0.0411 -0.0114  0.0973
  296loPI   C4B 4736  11.207  17.633   8.144 -0.0519 -0.0072 -0.0347
  297loPI    C1 4737   1.523   0.181  10.301 -0.1969 -0.3000 -0.1823
  297loPI    C2 4738   1.238   0.383  10.495  0.1142  0.0523 -0.0806
  297loPI    C3 4739   1.429   0.082  10.677  0.1701  0.1599  0.0405
  297loPI   PO4 4740   1.474   0.337   9.997 -0.2357  0.0333  0.0745
  297loPI   GL1 4741   1.616   0.054   9.589  0.0420  0.0934  0.2153
  297loPI   GL2 4742   1.680   0.462   9.523  0.1031  0.0721 -0.2839
  297loPI   C1A 4743   1.635   0.205   9.153 -0.1723  0.2837 -0.0716
  297loPI   C2A 4744   1.398   0.274   8.866 -0.1130  0.0608 -0.5033
  297loPI   C3A 4745   1.315   0.453   8.439  0.1370 -0.1646 -0.1467
  297loPI   C4A 4746   1.559   0.547   8.038 -0.1491  0.0033 -0.2144
  297loPI   C5A 4747   1.572   0.415   7.632  0.0984 -0.0623  0.1448
  297loPI   C6A 4748   1.388   0.579   7.227  0.1951 -0.0967 -0.0534
  297loPI   C1B 4749   1.609   0.668   9.146 -0.1525  0.0390 -0.2353
  297loPI   C2B 4750   1.384   0.847   8.728 -0.1835 -0.1463  0.0508
  297loPI   C3B 4751   1.410   0.933   8.306  0.0146 -0.0343  0.2099
  297loPI   C4B 4752   1.705   1.226   8.094  0.1542 -0.2030  0.2954
  298loPI    C1 4753  15.529  18.679  10.254  0.0571 -0.0460 -0.0421
  298loPI    C2 4754  15.573  19.052  10.394 -0.2966 -0.1168  0.2728
  298loPI    C3 4755  15.873  18.789  10.427  0.0450  0.2016 -0.1706
  298loPI   PO4 4756  15.446  18.737   9.975 -0.4507  0.0907 -0.1712
  298loPI   GL1 4757  15.574  19.075   9.719 -0.0119 -0.0809  0.2654
  298loPI   GL2 4758  15.308  19.226   9.772 -0.1679  0.0561 -0.0753
  298loPI   C1A 4759  15.417  19.032   9.319  0.1942 -0.0737 -0.0462
  298loPI   C2A 4760  15.345  18.995   8.851 -0.1529 -0.3300  0.0036
  298loPI   C3A 4761  15.389  19.074   8.459 -0.2145  0.1070  0.2631
  298loPI   C4A 4762  15.505  19.197   8.019 -0.0708  0.1177 -0.3533
  298loPI   C5A 4763  15.390  19.035   7.587  0.0426  0.1020  0.1930
  298loPI   C6A 4764  15.194  19.243   7.338 -0.3030 -0.0613  0.1706
  298loPI   C1B 4765  15.222  19.477   9.368 -0.1071  0.2339  0.1305
  298loPI   C2B 4766  15.322  19.585   9.052 -0.0653 -0.3090 -0.1852
  298loPI   C3B 4767  15.417  19.548   8.766 -0.1634  0.4561  0.4846
  298loPI   C4B 4768  15.347  19.601   8.347 -0.0885  0.0763  0.2495
  299loPI    C1 4769  14.494   3.131  10.672  0.0635  0.1884 -0.0726
  299loPI    C2 4770  14.721   3.294  10.959 -0.1818  0.3593  0.0277
  299loPI    C3 4771  14.547   2.939  11.019  0.1056  0.1988 -0.0731
  299loPI   PO4 4772  14.623   3.195  10.396  0.0058  0.1900 -0.0999
  299loPI   GL1 4773  14.608   2.985   9.917  0.0586  0.2631  0.1655
  299loPI   GL2 4774  14.714   3.232   9.771  0.2072  0.1126 -0.0773
  299loPI   C1A 4775  14.785   2.750   9.572 -0.1712 -0.1651 -0.0187
  299loPI   C2A 4776  14.811   2.743   9.122 -0.0239  0.0469  0.3715
  299loPI   C3A 4777  14.751   2.696   8.741  0.3897 -0.0543 -0.0249
  299loPI   C4A 4778  14.782   2.737   8.276 -0.0137 -0.0319 -0.1257
  299loPI   C5A 4779  14.815   2.798   7.885  0.0274  0.0063  0.0114
  299loPI   C6A 4780  14.937   2.659   7.605 -0.0732  0.2480  0.1026
  299loPI   C1B 4781  14.668   3.187   9.352 -0.0316  0.1233  0.0131
  299loPI   C2B 4782  14.731   3.269   8.915 -0.3710  0.1302 -0.0536
  299loPI   C3B 4783  14.545   3.207   8.535 -0.0373  0.0519 -0.1541
  299loPI   C4B 4784  14.613   3.264   8.093 -0.1798  0.0349 -0.0779
  300loPI    C1 4785  16.238  11.926  10.303  0.0241  0.1824  0.0984
  300loPI    C2 4786  16.633  11.933  10.367  0.0587 -0.0114 -0.0853
  300loPI    C3 4787  16.382  11.881  10.674  0.1843 -0.0737  0.0078
  300loPI   PO4 4788  16.240  11.738  10.070 -0.1801 -0.1430  0.0437
  300loPI   GL1 4789  16.465  11.573   9.824  0.2222 -0.0295 -0.0519
  300loPI   GL2 4790  16.228  11.393   9.604  0.1794 -0.3318  0.2324
  300loPI   C1A 4791  16.567  11.549   9.323  0.1638  0.1280 -0.0850
  300loPI   C2A 4792  16.532  11.549   8.956 -0.4501 -0.0448 -0.0773
  300loPI   C3A 4793  16.503  11.562   8.538  0.0425  0.1327 -0.0820
  300loPI   C4A 4794  16.499  11.583   8.074 -0.3527  0.2046  0.1911
  300loPI   C5A 4795  16.710  11.718   7.685 -0.0831  0.0477 -0.4723
  300loPI   C6A 4796  16.627  11.955   7.315 -0.1450  0.1468  0.0383
  300loPI   C1B 4797  16.093  11.390   9.155  0.0918  0.0674 -0.0529
  300loPI   C2B 4798  16.077  11.383   8.729  0.2989  0.2189  0.1871
  300loPI   C3B 4799  16.084  11.396   8.226  0.2750  0.1120  0.1520
  300loPI   C4B 4800  15.830  11.331   7.860  0.2055 -0.2550  0.0198
  301loPI    C1 4801  12.222  14.176  10.099  0.1546  0.1947 -0.0814
  301loPI    C2 4802  11.917  14.431  10.138  0.0585  0.1154 -0.2996
  301loPI    C3 4803  12.021  14.196  10.444 -0.0595  0.1863 -0.2039
  301loPI   PO4 4804  12.226  14.114   9.901 -0.0463 -0.1704  0.2874
  301loPI   GL1 4805  12.151  14.337   9.543 -0.1009 -0.0728 -0.0197
  301loPI   GL2 4806  11.790  14.284   9.351  0.0449 -0.2611 -0.2210
  301loPI   C1A 4807  12.264  14.181   9.127 -0.0275 -0.0065 -0.2549
  301loPI   C2A 4808  12.241  14.039   8.687  0.2260 -0.3689 -0.1194
  301loPI   C3A 4809  12.554  14.209   8.466  0.2975  0.1259 -0.2984
  301loPI   C4A 4810  12.798  14.623   8.317  0.0727  0.2473 -0.0534
  301loPI   C5A 4811  13.053  14.618   7.978  0.1733  0.0370 -0.6402
  301loPI   C6A 4812  13.436  14.450   7.662  0.1754  0.2453 -0.1024
  301loPI   C1B 4813  11.843  14.290   8.811  0.2672 -0.1153  0.3032
  301loPI   C2B 4814  11.647  14.480   8.353 -0.0767  0.4737 -0.2498
  301loPI   C3B 4815  11.822  14.778   8.063 -0.0035 -0.0016 -0.1447
  301loPI   C4B 4816  11.821  14.932   7.809 -0.0181  0.1625  0.0576
  302loPI    C1 4817   3.783  15.909   9.825  0.1431 -0.0344 -0.2537
  302loPI    C2 4818   3.927  16.062  10.165 -0.1959 -0.2455 -0.0080
  302loPI    C3 4819   3.656  16.266   9.953 -0.0813 -0.1718 -0.0852
  302loPI   PO4 4820   3.682  15.663   9.903 -0.3866  0.2413 -0.1057
  302loPI   GL1 4821   3.924  15.402   9.593 -0.1015  0.0950 -0.3671
  302loPI   GL2 4822   4.001  15.688   9.416 -0.1678  0.0592 -0.2026
  302loPI   C1A 4823   3.867  15.269   9.203 -0.0647  0.1070  0.1460
  302loPI   C2A 4824   3.872  15.358   8.779 -0.2056 -0.0674  0.1659
  302loPI   C3A 4825   3.909  15.611   8.363  0.1372  0.1055  0.5016
  302loPI   C4A 4826   4.005  15.593   8.022  0.1587  0.3185  0.0995
  302loPI   C5A 4827   4.143  15.907   7.739 -0.1905  0.0956 -0.0277
  302loPI   C6A 4828   4.275  16.273   7.805  0.0615 -0.0449 -0.1755
  302loPI   C1B 4829   4.281  15.722   9.105 -0.3789 -0.0680  0.0650
  302loPI   C2B 4830   4.323  15.576   8.684  0.0900 -0.3939  0.0331
  302loPI   C3B 4831   4.438  15.771   8.197 -0.0643  0.0250  0.0770
  302loPI   C4B 4832   4.712  15.939   7.898  0.1373  0.1996 -0.2558
  303loPI    C1 4833   8.090   1.265  10.043 -0.0154 -0.0540  0.0425
  303loPI    C2 4834   8.191   0.892  10.147 -0.0030 -0.0942 -0.1121
  303loPI    C3 4835   8.289   1.199  10.383 -0.0430 -0.1919  0.0327
  303loPI   PO4 4836   8.235   1.376   9.863 -0.1088  0.2080  0.2299
  303loPI   GL1 4837   8.057   1.370   9.427 -0.1260 -0.1609 -0.0850
  303loPI   GL2 4838   7.852   1.658   9.345  0.3645 -0.1300 -0.0691
  303loPI   C1A 4839   8.423   1.680   9.186  0.1937  0.0083  0.3431
  303loPI   C2A 4840   8.417   1.788   8.731 -0.0481  0.2345  0.1403
  303loPI   C3A 4841   8.426   1.852   8.256  0.0038  0.0388 -0.1880
  303loPI   C4A 4842   8.377   1.669   7.863 -0.0943  0.0204 -0.0518
  303loPI   C5A 4843   8.656   1.438   7.513 -0.1485 -0.3120  0.2802
  303loPI   C6A 4844   8.907   1.532   7.221  0.2199 -0.1612 -0.0009
  303loPI   C1B 4845   7.904   1.884   8.978 -0.0229  0.1563  0.0065
  303loPI   C2B 4846   7.920   1.820   8.517 -0.0215  0.1628  0.1899
  303loPI   C3B 4847   7.956   1.960   7.992 -0.4209  0.0466  0.0279
  303loPI   C4B 4848   7.703   2.159   7.703  0.2753  0.0863  0.2038
  304loPI    C1 4849   6.848  10.258   9.504 -0.1396  0.0007 -0.0763
  304loPI    C2 4850   6.935  10.648   9.513 -0.3155  0.0407 -0.0592
  304loPI    C3 4851   7.229  10.377   9.512 -0.1853  0.1772 -0.3736
  304loPI   PO4 4852   6.611  10.210   9.439 -0.0191 -0.1994 -0.1493
  304loPI   GL1 4853   6.476  10.337   9.065 -0.0860  0.0619 -0.3346
  304loPI   GL2 4854   6.151  10.384   9.172 -0.1997  0.0525 -0.0198
  304loPI   C1A 4855   6.632  10.109   8.671 -0.1009  0.4190 -0.0353
  304loPI   C2A 4856   6.404  10.190   8.239  0.0594  0.1067 -0.1218
  304loPI   C3A 4857   6.472  10.335   7.867  0.0586  0.0272  0.2014
  304loPI   C4A 4858   6.612  10.653   7.619  0.0517  0.1158 -0.1017
  304loPI   C5A 4859   6.708  11.093   7.572 -0.0471  0.0146 -0.2020
  304loPI   C6A 4860   6.799  11.469   7.349 -0.0546 -0.2354  0.1574
  304loPI   C1B 4861   6.165  10.378   8.657  0.2094 -0.1529  0.1497
  304loPI   C2B 4862   6.334  10.678   8.279 -0.3792  0.1784  0.1517
  304loPI   C3B 4863   6.713  10.874   8.124 -0.2344  0.0094  0.0186
  304loPI   C4B 4864   7.046  10.807   7.947 -0.1662 -0.0615  0.1414
  305loPI    C1 4865   4.916  15.238  10.388  0.1977 -0.0990  0.0808
  305loPI    C2 4866   5.113  15.430  10.097  0.1876  0.0841  0.1935
  305loPI    C3 4867   4.862  15.631  10.335  0.0370 -0.1047  0.1961
  305loPI   PO4 4868   5.154  15.081  10.492 -0.2700  0.0119  0.1118
  305loPI   GL1 4869   5.366  14.962  10.140  0.1158 -0.2470  0.0091
  305loPI   GL2 4870   5.681  14.862  10.067 -0.1036 -0.2021  0.4076
  305loPI   C1A 4871   5.318  14.854   9.669  0.1429 -0.1661 -0.0600
  305loPI   C2A 4872   5.330  14.630   9.285  0.2319  0.0455  0.2206
  305loPI   C3A 4873   5.467  14.640   8.831 -0.0549  0.3907  0.0956
  305loPI   C4A 4874   5.543  14.796   8.395 -0.0636 -0.2538 -0.1307
  305loPI   C5A 4875   5.600  14.483   8.074  0.2885 -0.3265 -0.0002
  305loPI   C6A 4876   5.430  14.525   7.602 -0.0148  0.0664  0.0801
  305loPI   C1B 4877   5.795  14.993   9.670 -0.1045 -0.0843  0.1617
  305loPI   C2B 4878   5.535  15.267   9.415  0.1994 -0.1023  0.2310
  305loPI   C3B 4879   5.362  15.487   9.022  0.0756  0.1622 -0.1704
  305loPI   C4B 4880   5.188  15.807   8.910  0.0369  0.1492  0.3738
  306loPI    C1 4881  15.923   7.139  10.088 -0.1570 -0.1712 -0.3093
  306loPI    C2 4882  15.811   6.892  10.382  0.1495  0.1218  0.0638
  306loPI    C3 4883  16.154   6.828  10.186 -0.0253 -0.0392 -0.1961
  306loPI   PO4 4884  15.787   7.156   9.875 -0.0440 -0.1464  0.1126
  306loPI   GL1 4885  15.779   7.069   9.426  0.3372 -0.0393  0.0851
  306loPI   GL2 4886  15.500   7.134   9.266  0.0294  0.1057 -0.2086
  306loPI   C1A 4887  15.920   7.407   9.094 -0.1087  0.0910 -0.0641
  306loPI   C2A 4888  15.958   7.564   8.642  0.0630  0.0797 -0.2293
  306loPI   C3A 4889  15.905   7.555   8.200  0.0967  0.3572  0.2418
  306loPI   C4A 4890  15.723   7.852   7.922  0.5235 -0.1173  0.2061
  306loPI   C5A 4891  15.297   8.079   7.961 -0.1544 -0.1417 -0.0255
  306loPI   C6A 4892  15.110   8.186   7.639 -0.1514 -0.2218  0.3177
  306loPI   C1B 4893  15.732   6.954   8.861  0.0729 -0.1154 -0.1024
  306loPI   C2B 4894  16.072   7.074   8.510 -0.0102  0.0334 -0.0325
  306loPI   C3B 4895  16.406   7.105   8.095 -0.1342 -0.2335 -0.1794
  306loPI   C4B 4896  16.787   7.282   7.895  0.1299  0.2127 -0.0898
  307loPI    C1 4897   9.126  15.336  10.493 -0.1308  0.0433 -0.0413
  307loPI    C2 4898   8.961  15.288  10.854  0.0607 -0.3595 -0.0015
  307loPI    C3 4899   9.358  15.318  10.818  0.0248 -0.0260 -0.1546
  307loPI   PO4 4900   9.025  15.185  10.265  0.2933 -0.0197 -0.2880
  307loPI   GL1 4901   9.005  15.137   9.923 -0.1174 -0.1850  0.0150
  307loPI   GL2 4902   9.102  15.392   9.778 -0.1764 -0.0922  0.2774
  307loPI   C1A 4903   8.783  15.157   9.510 -0.2276 -0.2881 -0.0277
  307loPI   C2A 4904   8.647  15.225   9.093  0.1293 -0.1206  0.1084
  307loPI   C3A 4905   8.652  15.264   8.662  0.2698  0.1221 -0.0176
  307loPI   C4A 4906   8.564  15.184   8.231  0.0497 -0.1102  0.1133
  307loPI   C5A 4907   8.481  14.973   7.926  0.0650  0.0045  0.0498
  307loPI   C6A 4908   8.312  14.820   7.409  0.1031 -0.0391 -0.0937
  307loPI   C1B 4909   9.124  15.478   9.325 -0.2126 -0.1857 -0.1297
  307loPI   C2B 4910   9.020  15.483   8.907  0.1661 -0.0493 -0.0400
  307loPI   C3B 4911   9.158  15.396   8.483  0.0401  0.0684 -0.1046
  307loPI   C4B 4912   9.096  15.273   8.021  0.0260  0.0064  0.0523
  308loPI    C1 4913  18.150  16.331   9.951 -0.2052 -0.1136  0.0666
  308loPI    C2 4914  17.836  16.578   9.954 -0.1751 -0.0749  0.4178
  308loPI    C3 4915  17.783  16.186  10.016 -0.2040 -0.1371  0.0208
  308loPI   PO4 4916  18.313  16.299   9.831  0.0632 -0.0772  0.0783
  308loPI   GL1 4917  18.280  16.268   9.369 -0.0119  0.1653 -0.1254
  308loPI   GL2 4918  18.448  16.620   9.215  0.4442  0.0513 -0.1485
  308loPI   C1A 4919  18.004  16.417   9.005 -0.1310  0.4112  0.2472
  308loPI   C2A 4920  17.734  16.693   8.881 -0.1388  0.0413  0.2961
  308loPI   C3A 4921  17.606  17.011   8.455  0.1854  0.0707  0.0209
  308loPI   C4A 4922  17.427  16.863   8.042  0.2004  0.2928  0.2260
  308loPI   C5A 4923  17.491  16.617   7.670  0.0833  0.2093 -0.1859
  308loPI   C6A 4924  17.604  16.443   7.257  0.3378 -0.4046  0.0238
  308loPI   C1B 4925  18.209  16.900   8.990 -0.0838  0.2921  0.1410
  308loPI   C2B 4926  18.152  17.238   8.602 -0.0415 -0.1288 -0.3406
  308loPI   C3B 4927  18.040  17.236   8.201  0.3633 -0.0452  0.0129
  308loPI   C4B 4928  18.314  17.407   7.873 -0.3241  0.1238 -0.2412
  309loPI    C1 4929  12.681   6.507  10.343 -0.0001  0.1159 -0.0097
  309loPI    C2 4930  12.829   6.139  10.292 -0.3479 -0.0338  0.0357
  309loPI    C3 4931  12.786   6.288  10.661  0.0629  0.1699  0.0072
  309loPI   PO4 4932  12.486   6.523  10.201 -0.0237 -0.2583 -0.2272
  309loPI   GL1 4933  12.311   6.476   9.742 -0.0770  0.1604  0.1138
  309loPI   GL2 4934  12.504   6.819   9.725 -0.0961 -0.1019 -0.0275
  309loPI   C1A 4935  12.413   6.605   9.281  0.1095  0.2575  0.0243
  309loPI   C2A 4936  12.633   6.653   8.907 -0.0105 -0.4078 -0.0951
  309loPI   C3A 4937  12.659   7.106   8.685 -0.1183  0.3095  0.0120
  309loPI   C4A 4938  12.961   7.143   8.409  0.0463 -0.2304 -0.1208
  309loPI   C5A 4939  13.378   7.228   8.220  0.1190  0.0536 -0.1147
  309loPI   C6A 4940  13.663   7.468   8.141  0.0776 -0.0488 -0.2240
  309loPI   C1B 4941  12.417   7.079   9.323 -0.1531 -0.0225 -0.1953
  309loPI   C2B 4942  12.240   6.941   8.981 -0.1323 -0.1179 -0.0558
  309loPI   C3B 4943  12.286   6.823   8.509  0.0241 -0.1868  0.0283
  309loPI   C4B 4944  12.495   7.067   8.163 -0.0170 -0.0483 -0.1365
  310loPI    C1 4945  15.034  11.453  10.562  0.0745  0.0314 -0.2249
  310loPI    C2 4946  15.406  11.598  10.577 -0.0186  0.2685 -0.1625
  310loPI    C3 4947  15.129  11.733  10.832 -0.1073 -0.0252 -0.1004
  310loPI   PO4 4948  14.897  11.457  10.403  0.2198 -0.3282  0.2448
  310loPI   GL1 4949  15.071  11.605   9.968 -0.1849 -0.2396  0.0920
  310loPI   GL2 4950  15.320  11.473  10.072  0.0999  0.0799  0.0353
  310loPI   C1A 4951  14.936  11.787   9.566 -0.1893 -0.2696  0.0615
  310loPI   C2A 4952  15.147  12.000   9.320  0.0375  0.0169  0.2778
  310loPI   C3A 4953  15.168  12.180   8.868  0.0045 -0.2108  0.1922
  310loPI   C4A 4954  15.027  12.135   8.500  0.1308  0.0271  0.0925
  310loPI   C5A 4955  14.724  11.955   8.138  0.4548 -0.0725 -0.3037
  310loPI   C6A 4956  14.362  12.072   7.948  0.3018  0.1380  0.1196
  310loPI   C1B 4957  15.357  11.486   9.580 -0.3093 -0.1640 -0.0357
  310loPI   C2B 4958  15.150  11.522   9.103 -0.0200 -0.3755  0.1320
  310loPI   C3B 4959  15.184  11.630   8.693 -0.2485  0.4764  0.0390
  310loPI   C4B 4960  15.192  11.688   8.262 -0.1397 -0.0177 -0.0259
  311loPI    C1 4961   8.644  15.535  10.397  0.2905 -0.4579  0.1930
  311loPI    C2 4962   8.870  15.753  10.645  0.0797  0.0315 -0.0321
  311loPI    C3 4963   8.520  15.605  10.770 -0.1135  0.4337 -0.0830
  311loPI   PO4 4964   8.715  15.582  10.178  0.3223 -0.5147  0.1578
  311loPI   GL1 4965   8.757  15.811   9.785 -0.2298 -0.0686 -0.2180
  311loPI   GL2 4966   8.480  15.982   9.749  0.1614 -0.0881 -0.0434
  311loPI   C1A 4967   8.700  15.718   9.291 -0.0062 -0.0576 -0.0242
  311loPI   C2A 4968   8.557  15.699   8.908  0.2336 -0.4935  0.4054
  311loPI   C3A 4969   8.786  15.785   8.541  0.0105 -0.0916  0.0869
  311loPI   C4A 4970   8.798  15.629   8.124  0.2472 -0.0626 -0.1355
  311loPI   C5A 4971   9.110  15.707   7.743  0.1134  0.0244  0.1420
  311loPI   C6A 4972   9.453  16.068   7.786 -0.2051  0.1447 -0.1041
  311loPI   C1B 4973   8.273  15.938   9.318 -0.1812 -0.1080  0.2857
  311loPI   C2B 4974   8.213  16.051   8.811 -0.0617  0.2296 -0.3131
  311loPI   C3B 4975   8.353  16.036   8.374  0.0173  0.2066 -0.3145
  311loPI   C4B 4976   8.450  16.087   7.937  0.1214  0.2474  0.4037
  312loPI    C1 4977  16.748   0.817  10.161  0.1500 -0.1262  0.0350
  312loPI    C2 4978  16.757   0.608  10.501 -0.1891 -0.1576  0.0282
  312loPI    C3 4979  16.903   0.980  10.491 -0.2521 -0.1258  0.2306
  312loPI   PO4 4980  16.857   0.734   9.875  0.0921 -0.0311 -0.0226
  312loPI   GL1 4981  16.611   0.500   9.572 -0.2094 -0.0193  0.0331
  312loPI   GL2 4982  16.886   0.311   9.671 -0.0267 -0.0989 -0.1062
  312loPI   C1A 4983  16.652   0.545   9.158 -0.1615 -0.0202 -0.1427
  312loPI   C2A 4984  16.658   0.565   8.664  0.0170  0.1622 -0.0984
  312loPI   C3A 4985  16.708   0.658   8.163 -0.2763 -0.1907 -0.3078
  312loPI   C4A 4986  17.058   0.753   7.966  0.1826 -0.1434 -0.0410
  312loPI   C5A 4987  17.421   0.684   7.713 -0.0078  0.1929  0.0323
  312loPI   C6A 4988  17.518   0.398   7.405  0.2223  0.0576 -0.2432
  312loPI   C1B 4989  17.122   0.516   9.347 -0.2884  0.3572 -0.2417
  312loPI   C2B 4990  17.332   0.489   8.962 -0.0038 -0.2194 -0.0462
  312loPI   C3B 4991  17.499   0.561   8.538  0.2137 -0.0359 -0.1596
  312loPI   C4B 4992  17.522   0.729   8.169  0.1158 -0.0962  0.4035
  313loPI    C1 4993  16.131  12.324  10.579  0.1112  0.1341  0.1028
  313loPI    C2 4994  15.977  12.170  10.914  0.1173  0.1385  0.1076
  313loPI    C3 4995  16.109  12.547  10.910  0.2395  0.0963  0.1372
  313loPI   PO4 4996  15.917  12.266  10.344  0.2693 -0.1632 -0.0368
  313loPI   GL1 4997  15.828  12.157   9.947 -0.3390  0.1823 -0.0610
  313loPI   GL2 4998  16.075  12.041   9.755  0.1586  0.3415  0.4202
  313loPI   C1A 4999  15.748  12.268   9.488 -0.0937  0.0838  0.1084
  313loPI   C2A 5000  15.656  12.193   9.043  0.0602 -0.1464 -0.0504
  313loPI   C3A 5001  15.711  12.171   8.639  0.1755 -0.0834  0.0093
  313loPI   C4A 5002  15.590  12.103   8.305 -0.2540  0.2125 -0.1812
  313loPI   C5A 5003  15.618  11.836   7.896 -0.0758  0.1177  0.0166
  313loPI   C6A 5004  15.288  11.609   7.712  0.1401  0.0438 -0.0591
  313loPI   C1B 5005  16.111  11.860   9.377  0.2206 -0.1202 -0.2485
  313loPI   C2B 5006  16.105  11.976   8.995 -0.1056  0.0380  0.3657
  313loPI   C3B 5007  16.126  11.917   8.665 -0.0446  0.2812  0.0700
  313loPI   C4B 5008  16.117  11.919   8.220  0.0427  0.4672 -0.1558
  314loPI    C1 5009   4.138  11.813  10.486  0.0194 -0.1606  0.0405
  314loPI    C2 5010   3.888  11.509  10.415 -0.0020 -0.1284 -0.0221
  314loPI    C3 5011   4.150  11.486  10.716 -0.0207 -0.1985 -0.0110
  314loPI   PO4 5012   4.194  11.853  10.149  0.4164  0.0064  0.2953
  314loPI   GL1 5013   4.135  11.741   9.765  0.5124 -0.5582  0.0326
  314loPI   GL2 5014   3.745  11.854   9.808  0.2609 -0.0291 -0.0696
  314loPI   C1A 5015   4.135  11.464   9.448 -0.0885  0.2393 -0.1572
  314loPI   C2A 5016   4.098  11.590   9.029 -0.2136 -0.0433  0.4328
  314loPI   C3A 5017   4.045  11.480   8.560  0.0347  0.1418  0.2724
  314loPI   C4A 5018   4.279  11.471   8.122 -0.3958  0.1283  0.1629
  314loPI   C5A 5019   4.326  11.586   7.786 -0.1817 -0.1219 -0.3409
  314loPI   C6A 5020   4.162  11.647   7.366  0.1851 -0.1544 -0.3305
  314loPI   C1B 5021   3.746  11.856   9.312 -0.2293  0.1351 -0.0119
  314loPI   C2B 5022   3.676  11.847   8.915  0.4288  0.2183  0.0346
  314loPI   C3B 5023   3.664  11.773   8.462 -0.2363 -0.1012 -0.0221
  314loPI   C4B 5024   3.824  11.629   8.035  0.1435 -0.1227 -0.1443
  315loPI    C1 5025   4.624  12.061  10.753 -0.2559  0.2644 -0.0210
  315loPI    C2 5026   4.256  12.185  10.849 -0.3960 -0.1367 -0.0184
  315loPI    C3 5027   4.386  11.828  10.974 -0.0802 -0.0873 -0.1930
  315loPI   PO4 5028   4.587  12.045  10.515  0.0079  0.0760 -0.1293
  315loPI   GL1 5029   4.632  12.136  10.065 -0.0062 -0.0696 -0.0861
  315loPI   GL2 5030   4.691  11.784   9.941  0.1528 -0.1049  0.2206
  315loPI   C1A 5031   4.607  12.220   9.682  0.1458 -0.1681  0.0774
  315loPI   C2A 5032   4.646  12.245   9.201  0.0100 -0.0726  0.1920
  315loPI   C3A 5033   4.636  12.131   8.827  0.0020  0.3938  0.2917
  315loPI   C4A 5034   4.667  12.136   8.389 -0.3785  0.0934  0.1334
  315loPI   C5A 5035   4.625  12.284   7.858 -0.2769  0.2416 -0.1871
  315loPI   C6A 5036   4.331  12.043   7.629  0.3639  0.1045 -0.1438
  315loPI   C1B 5037   4.567  11.712   9.524 -0.1892  0.0493 -0.0363
  315loPI   C2B 5038   4.580  11.671   9.076  0.1254 -0.3805  0.1760
  315loPI   C3B 5039   4.542  11.675   8.599 -0.0282  0.0229  0.4179
  315loPI   C4B 5040   4.733  11.727   8.155  0.2439 -0.2756  0.1174
  316loPI    C1 5041   2.041  16.121   9.885 -0.1207 -0.1384 -0.2863
  316loPI    C2 5042   2.320  16.359   9.725  0.0687  0.0066  0.2410
  316loPI    C3 5043   2.427  16.062   9.971 -0.2316 -0.0364  0.3230
  316loPI   PO4 5044   1.872  16.006   9.716 -0.0954  0.1883  0.0884
  316loPI   GL1 5045   1.889  15.788   9.327  0.0541 -0.1833 -0.1528
  316loPI   GL2 5046   1.842  15.469   9.233 -0.0823  0.0727  0.1786
  316loPI   C1A 5047   1.665  15.985   9.014 -0.1307 -0.1159 -0.0018
  316loPI   C2A 5048   1.850  16.085   8.702  0.0677  0.2049 -0.0123
  316loPI   C3A 5049   2.098  15.928   8.402 -0.2621 -0.0228 -0.3218
  316loPI   C4A 5050   2.384  15.812   8.214 -0.2941 -0.0835 -0.0697
  316loPI   C5A 5051   2.777  16.007   8.141  0.0990 -0.0186  0.2019
  316loPI   C6A 5052   3.094  16.220   8.400 -0.2508 -0.0848  0.0448
  316loPI   C1B 5053   2.027  15.629   8.864 -0.0015  0.0798 -0.0504
  316loPI   C2B 5054   2.139  15.383   8.462 -0.0433  0.1365 -0.2534
  316loPI   C3B 5055   2.269  15.148   8.151 -0.2555 -0.1348 -0.1353
  316loPI   C4B 5056   2.613  14.893   7.942  0.0761 -0.0835 -0.0242
  317loPI    C1 5057  12.900   7.471  10.022 -0.2225 -0.0958  0.1464
  317loPI    C2 5058  12.806   7.323  10.381 -0.0490  0.1365  0.2910
  317loPI    C3 5059  12.715   7.702  10.292 -0.0992  0.0773  0.0847
  317loPI   PO4 5060  13.189   7.349   9.961  0.2007 -0.0113 -0.2308
  317loPI   GL1 5061  13.234   7.255   9.647 -0.2801  0.1589  0.1159
  317loPI   GL2 5062  12.890   7.233   9.557  0.3564  0.1730  0.1786
  317loPI   C1A 5063  13.431   7.367   9.287 -0.0610 -0.2684  0.0682
  317loPI   C2A 5064  13.590   7.577   8.950 -0.0812  0.4069 -0.1078
  317loPI   C3A 5065  13.512   7.595   8.591 -0.2342  0.1429  0.1308
  317loPI   C4A 5066  13.153   7.618   8.268  0.1234 -0.1593  0.1471
  317loPI   C5A 5067  12.883   7.838   8.024  0.2170  0.2840 -0.0410
  317loPI   C6A 5068  12.672   7.835   7.597 -0.0192 -0.3377 -0.3286
  317loPI   C1B 5069  12.641   7.488   9.205 -0.2134 -0.1362  0.1985
  317loPI   C2B 5070  12.622   7.567   8.792  0.3770  0.6291  0.2115
  317loPI   C3B 5071  12.586   7.540   8.321 -0.0319 -0.3241 -0.1283
  317loPI   C4B 5072  12.524   7.469   7.852 -0.1882  0.0856  0.1654
  318loPI    C1 5073   1.430  14.170  10.021 -0.0905  0.1140  0.1005
  318loPI    C2 5074   1.170  14.027  10.291  0.1116 -0.0456  0.2135
  318loPI    C3 5075   1.514  14.193  10.412  0.0222  0.2527  0.0688
  318loPI   PO4 5076   1.453  13.967   9.843 -0.0663 -0.2479 -0.2598
  318loPI   GL1 5077   1.336  13.940   9.389  0.1016 -0.0374  0.1463
  318loPI   GL2 5078   1.524  14.131   9.389  0.0464  0.2791 -0.0662
  318loPI   C1A 5079   1.243  13.798   8.972  0.0272 -0.3961  0.0551
  318loPI   C2A 5080   1.215  13.719   8.559  0.1044  0.1591 -0.1617
  318loPI   C3A 5081   1.261  13.729   8.146 -0.1643  0.0524 -0.0455
  318loPI   C4A 5082   1.084  13.798   7.695 -0.0344 -0.5170  0.1469
  318loPI   C5A 5083   0.832  13.614   7.407 -0.1723 -0.2377  0.0229
  318loPI   C6A 5084   0.968  13.321   7.120 -0.2282 -0.0801 -0.0205
  318loPI   C1B 5085   1.692  14.017   9.052 -0.0444  0.0408  0.3019
  318loPI   C2B 5086   1.746  13.991   8.646 -0.0872 -0.2750  0.2136
  318loPI   C3B 5087   1.677  13.964   8.182 -0.0623 -0.0325 -0.1119
  318loPI   C4B 5088   1.585  13.968   7.766  0.0525 -0.0665  0.1154
  319loPI    C1 5089  17.032   9.890  10.279  0.0992 -0.0077  0.0235
  319loPI    C2 5090  16.960  10.201  10.519 -0.1582 -0.0400 -0.0095
  319loPI    C3 5091  17.336  10.083  10.452 -0.0678  0.1661  0.1262
  319loPI   PO4 5092  16.885   9.890  10.075 -0.1917 -0.2535 -0.0684
  319loPI   GL1 5093  16.883   9.977   9.627 -0.1841 -0.1527  0.0040
  319loPI   GL2 5094  16.613  10.189   9.649 -0.0976  0.2816 -0.1578
  319loPI   C1A 5095  16.867   9.753   9.289  0.0676  0.1034 -0.4306
  319loPI   C2A 5096  16.741   9.590   8.904  0.1913 -0.0480  0.0852
  319loPI   C3A 5097  16.678   9.716   8.500 -0.1424 -0.1450  0.0484
  319loPI   C4A 5098  16.782   9.668   8.069  0.3028 -0.0233  0.1787
  319loPI   C5A 5099  17.031   9.684   7.757  0.2611 -0.0419 -0.1093
  319loPI   C6A 5100  17.112  10.007   7.513 -0.3876  0.0122 -0.2155
  319loPI   C1B 5101  16.706  10.259   9.228 -0.0118 -0.0276 -0.1518
  319loPI   C2B 5102  16.760  10.110   8.805 -0.0014 -0.3323 -0.0396
  319loPI   C3B 5103  16.735  10.250   8.327 -0.1621  0.1361  0.2495
  319loPI   C4B 5104  16.793  10.320   7.790 -0.2485  0.1677  0.0396
  320loPI    C1 5105  15.118   6.450  10.154 -0.3220 -0.1532  0.2065
  320loPI    C2 5106  15.478   6.285  10.210 -0.1824  0.0744  0.0004
  320loPI    C3 5107  15.378   6.618  10.407 -0.1354  0.2211 -0.2195
  320loPI   PO4 5108  15.072   6.484   9.832 -0.0803  0.0229  0.1376
  320loPI   GL1 5109  14.798   6.686   9.576 -0.2404  0.1850 -0.0316
  320loPI   GL2 5110  14.430   6.583   9.567  0.1273  0.0463 -0.0893
  320loPI   C1A 5111  14.832   6.561   9.155 -0.1097 -0.0230  0.0473
  320loPI   C2A 5112  14.992   6.359   8.707  0.3584  0.2106 -0.4465
  320loPI   C3A 5113  15.156   6.442   8.237  0.0127  0.0938 -0.2567
  320loPI   C4A 5114  15.564   6.355   8.066 -0.0591  0.2925 -0.0228
  320loPI   C5A 5115  15.688   6.040   7.747 -0.1616  0.1462  0.1177
  320loPI   C6A 5116  15.285   5.879   7.411  0.2652 -0.1615  0.0623
  320loPI   C1B 5117  14.333   6.479   9.107 -0.0966  0.1879 -0.1077
  320loPI   C2B 5118  14.531   6.295   8.610 -0.2534  0.1354  0.1122
  320loPI   C3B 5119  14.659   6.460   8.226 -0.3376 -0.1009 -0.1855
  320loPI   C4B 5120  14.874   6.127   7.967 -0.1075  0.0304 -0.2817
  321loPI    C1 5121   7.446   4.259  10.376  0.1241  0.1374  0.0623
  321loPI    C2 5122   7.331   4.614  10.520  0.1380  0.1220  0.1114
  321loPI    C3 5123   7.304   4.287  10.749  0.2061  0.1057  0.0962
  321loPI   PO4 5124   7.394   4.341  10.115  0.2760  0.0711  0.0919
  321loPI   GL1 5125   7.404   4.063   9.663  0.0886  0.2122  0.1188
  321loPI   GL2 5126   7.102   4.165   9.718 -0.3237  0.3761 -0.1104
  321loPI   C1A 5127   7.510   3.976   9.274 -0.0613 -0.1725 -0.0367
  321loPI   C2A 5128   7.592   3.905   8.929 -0.0905 -0.2112 -0.0050
  321loPI   C3A 5129   7.522   3.828   8.548 -0.1178 -0.1351 -0.0276
  321loPI   C4A 5130   7.638   3.871   8.073 -0.0873 -0.2607  0.0604
  321loPI   C5A 5131   7.473   3.889   7.667 -0.2923 -0.1874  0.0503
  321loPI   C6A 5132   7.012   4.020   7.513  0.1056  0.0952  0.0575
  321loPI   C1B 5133   7.025   4.018   9.298 -0.2445 -0.2333  0.0268
  321loPI   C2B 5134   7.098   4.036   8.898 -0.2273 -0.0998  0.0061
  321loPI   C3B 5135   7.024   4.058   8.503 -0.2296  0.2923 -0.2424
  321loPI   C4B 5136   7.133   4.051   8.038 -0.0089 -0.0173 -0.0436
  322loPI    C1 5137   2.953   1.538  10.308 -0.1241 -0.4042  0.1290
  322loPI    C2 5138   3.250   1.279  10.238 -0.0523 -0.2835 -0.0191
  322loPI    C3 5139   3.097   1.313  10.606  0.1365 -0.3262  0.0647
  322loPI   PO4 5140   2.831   1.534  10.034 -0.0228  0.5048  0.0070
  322loPI   GL1 5141   2.760   1.761   9.731 -0.0606 -0.1483 -0.3031
  322loPI   GL2 5142   2.457   1.812   9.602 -0.2306  0.1757  0.2128
  322loPI   C1A 5143   2.951   1.656   9.399  0.0768  0.1655  0.2192
  322loPI   C2A 5144   2.919   1.706   8.917  0.0383  0.0104 -0.3368
  322loPI   C3A 5145   2.943   1.604   8.493 -0.3717  0.0766  0.2145
  322loPI   C4A 5146   2.908   1.692   8.066  0.2260  0.0215  0.0110
  322loPI   C5A 5147   2.695   1.633   7.715 -0.1472  0.0135  0.0851
  322loPI   C6A 5148   2.636   1.319   7.352  0.0612 -0.1266 -0.3518
  322loPI   C1B 5149   2.497   1.840   9.090 -0.0049  0.2856 -0.1329
  322loPI   C2B 5150   2.377   1.901   8.673 -0.1293  0.0637 -0.0601
  322loPI   C3B 5151   2.095   2.090   8.450 -0.0398  0.0026 -0.0973
  322loPI   C4B 5152   1.918   2.019   8.038  0.0084 -0.1090  0.1351
  323loPI    C1 5153  17.851  13.805  10.518 -0.0077  0.1411 -0.0478
  323loPI    C2 5154  18.191  13.602  10.572 -0.1407 -0.1310 -0.2098
  323loPI    C3 5155  17.890  13.560  10.831 -0.1055 -0.0039 -0.1476
  323loPI   PO4 5156  17.868  13.815  10.226  0.0500  0.1793 -0.0486
  323loPI   GL1 5157  17.876  13.625   9.803 -0.1772  0.4404  0.3155
  323loPI   GL2 5158  17.936  13.880   9.623  0.0952 -0.0362  0.1965
  323loPI   C1A 5159  17.869  13.426   9.335  0.1970  0.1495  0.0204
  323loPI   C2A 5160  17.814  13.448   8.874 -0.1956 -0.1000  0.1178
  323loPI   C3A 5161  17.700  13.467   8.577  0.2315  0.1228  0.0412
  323loPI   C4A 5162  17.656  13.411   8.123 -0.0846 -0.0709  0.1062
  323loPI   C5A 5163  17.649  13.489   7.704 -0.1178  0.2311 -0.2022
  323loPI   C6A 5164  17.405  13.492   7.335 -0.0953  0.0205  0.3191
  323loPI   C1B 5165  17.865  13.895   9.174 -0.2595  0.0174 -0.0925
  323loPI   C2B 5166  17.849  13.936   8.790 -0.0376  0.0617 -0.0148
  323loPI   C3B 5167  17.734  13.936   8.458 -0.1686 -0.1783 -0.2819
  323loPI   C4B 5168  17.740  13.883   8.035 -0.0795 -0.2078 -0.3615
  324loPI    C1 5169   5.335   6.169  10.216  0.0545 -0.0625 -0.0109
  324loPI    C2 5170   5.188   6.131  10.585  0.1464 -0.0094  0.0316
  324loPI    C3 5171   5.001   6.363  10.318  0.0086 -0.1497  0.0049
  324loPI   PO4 5172   5.382   5.858  10.136  0.5516  0.0695  0.0491
  324loPI   GL1 5173   5.230   5.518   9.843 -0.1759  0.0511  0.0802
  324loPI   GL2 5174   5.519   5.411   9.847  0.3271 -0.0036  0.0133
  324loPI   C1A 5175   5.265   5.604   9.372  0.0325 -0.0248  0.0892
  324loPI   C2A 5176   5.338   5.481   9.028  0.1608 -0.1794 -0.2631
  324loPI   C3A 5177   5.279   5.518   8.712  0.2757  0.0648 -0.2077
  324loPI   C4A 5178   5.237   5.591   8.272 -0.1507  0.3151  0.0857
  324loPI   C5A 5179   5.481   5.584   7.893 -0.1384 -0.3830 -0.0704
  324loPI   C6A 5180   5.744   5.512   7.474 -0.1834  0.4072  0.0909
  324loPI   C1B 5181   5.797   5.543   9.444  0.1043 -0.2810  0.1775
  324loPI   C2B 5182   5.847   5.394   9.018  0.1342  0.0586 -0.1048
  324loPI   C3B 5183   5.881   5.377   8.550 -0.2999  0.0613 -0.0280
  324loPI   C4B 5184   5.849   5.303   8.113 -0.0127  0.0357  0.0972
  325loPI    C1 5185  18.500  16.829   9.732  0.0761 -0.1351  0.0591
  325loPI    C2 5186  18.478  17.153   9.966  0.0948 -0.0195 -0.0977
  325loPI    C3 5187  18.265  16.827  10.056  0.0406  0.0519  0.0361
  325loPI   PO4 5188  18.728  16.921   9.518 -0.2278  0.2191 -0.2071
  325loPI   GL1 5189  18.925  16.715   9.202  0.2851 -0.0771 -0.0663
  325loPI   GL2 5190  19.208  16.884   9.080  0.2734 -0.2619 -0.0776
  325loPI   C1A 5191  18.650  16.600   8.792  0.0088 -0.1784 -0.2119
  325loPI   C2A 5192  18.335  16.706   8.556 -0.1237  0.0394 -0.2194
  325loPI   C3A 5193  18.046  16.751   8.367 -0.0559 -0.2806  0.3845
  325loPI   C4A 5194  17.894  16.752   7.953 -0.3376  0.1292 -0.3430
  325loPI   C5A 5195  17.874  17.196   7.716 -0.1811 -0.0258 -0.2622
  325loPI   C6A 5196  18.124  17.480   7.413 -0.1129  0.1504  0.0598
  325loPI   C1B 5197  19.058  16.835   8.675 -0.2004 -0.1751  0.2158
  325loPI   C2B 5198  18.963  16.786   8.206  0.3079  0.1067  0.1069
  325loPI   C3B 5199  18.897  16.561   7.809  0.0940 -0.0990 -0.1804
  325loPI   C4B 5200  18.558  16.419   7.538  0.2640  0.0979  0.1348
  326loPI    C1 5201  18.106   2.555   9.963 -0.0483 -0.3166 -0.0478
  326loPI    C2 5202  17.738   2.538   9.807 -0.0427 -0.1886 -0.0761
  326loPI    C3 5203  17.790   2.658  10.184 -0.0266 -0.1692 -0.0844
  326loPI   PO4 5204  18.258   2.669   9.827 -0.0110 -0.0460 -0.1522
  326loPI   GL1 5205  18.225   2.684   9.445 -0.0070  0.0317 -0.0403
  326loPI   GL2 5206  17.982   2.994   9.388 -0.2913  0.1077 -0.4337
  326loPI   C1A 5207  18.373   2.680   9.000 -0.0328 -0.1136  0.1184
  326loPI   C2A 5208  18.429   2.861   8.640 -0.1734  0.0384 -0.2260
  326loPI   C3A 5209  18.305   2.934   8.222  0.0073  0.0651  0.0622
  326loPI   C4A 5210  18.444   3.194   7.837  0.1296  0.0433  0.5246
  326loPI   C5A 5211  18.583   3.240   7.478  0.2959 -0.0497  0.0039
  326loPI   C6A 5212  18.888   3.147   7.150 -0.1937  0.0870 -0.1648
  326loPI   C1B 5213  17.597   2.984   9.094  0.1355  0.0695 -0.0353
  326loPI   C2B 5214  17.551   3.164   8.756  0.2546  0.1590  0.2096
  326loPI   C3B 5215  17.421   3.189   8.280  0.0591 -0.1098  0.3300
  326loPI   C4B 5216  17.307   3.202   7.855  0.4092  0.2293 -0.0104
  327loPI    C1 5217   9.492   2.160  10.699  0.1606  0.1041 -0.0615
  327loPI    C2 5218   9.686   2.167  11.048 -0.0082  0.1250  0.0331
  327loPI    C3 5219   9.290   2.109  11.040  0.0140 -0.0108 -0.1637
  327loPI   PO4 5220   9.651   2.267  10.525 -0.0039 -0.2152  0.1190
  327loPI   GL1 5221   9.938   2.385  10.267  0.0322  0.0105 -0.0020
  327loPI   GL2 5222   9.675   2.212  10.004  0.0252  0.2287  0.0342
  327loPI   C1A 5223  10.214   2.180   9.967 -0.0533  0.1865  0.1195
  327loPI   C2A 5224  10.368   2.109   9.507  0.1763 -0.1970  0.0160
  327loPI   C3A 5225  10.283   2.150   9.101 -0.0200 -0.1021  0.3878
  327loPI   C4A 5226  10.314   2.064   8.686  0.1467 -0.0548  0.0722
  327loPI   C5A 5227  10.334   2.130   8.255  0.0143  0.0616 -0.0431
  327loPI   C6A 5228  10.555   2.314   7.895  0.0257  0.1992  0.0995
  327loPI   C1B 5229   9.846   2.171   9.632 -0.1096 -0.2585  0.2955
  327loPI   C2B 5230   9.789   2.215   9.214  0.0649 -0.2738 -0.0579
  327loPI   C3B 5231   9.786   2.373   8.764  0.0900 -0.3196 -0.3632
  327loPI   C4B 5232   9.869   2.161   8.268 -0.1339  0.3307 -0.2604
  328loPI    C1 5233   1.227   6.452  10.581 -0.1878  0.0500  0.0024
  328loPI    C2 5234   0.964   6.577  10.855  0.0558  0.1895  0.1756
  328loPI    C3 5235   1.351   6.542  10.950  0.1014 -0.0171 -0.0762
  328loPI   PO4 5236   1.153   6.609  10.359  0.3361  0.2219 -0.2321
  328loPI   GL1 5237   1.021   6.772   9.981 -0.2339  0.2364 -0.1042
  328loPI   GL2 5238   1.242   6.500   9.881  0.1619 -0.0335 -0.0988
  328loPI   C1A 5239   0.984   6.882   9.530 -0.0698 -0.0651  0.1496
  328loPI   C2A 5240   1.081   6.853   9.096 -0.4420  0.1217 -0.1505
  328loPI   C3A 5241   1.196   6.821   8.639  0.4190 -0.1011 -0.0708
  328loPI   C4A 5242   1.224   6.704   8.221  0.0879  0.2153 -0.1505
  328loPI   C5A 5243   1.055   6.931   7.845 -0.0005  0.1093 -0.2399
  328loPI   C6A 5244   1.135   7.010   7.425  0.0180 -0.3215 -0.3334
  328loPI   C1B 5245   0.952   6.392   9.585 -0.1101  0.2488 -0.0126
  328loPI   C2B 5246   0.989   6.392   9.086  0.1057  0.0611 -0.2480
  328loPI   C3B 5247   1.133   6.311   8.652  0.2675  0.0484  0.5153
  328loPI   C4B 5248   1.370   6.199   8.251  0.2067 -0.0137 -0.2519
  329loPI    C1 5249   0.065   9.080  10.287 -0.1940  0.1102  0.0622
  329loPI    C2 5250   0.066   9.069  10.687  0.2992 -0.2520  0.0603
  329loPI    C3 5251  -0.141   8.796  10.479 -0.1272  0.0604  0.0607
  329loPI   PO4 5252   0.333   9.016  10.148  0.0741  0.1631 -0.4731
  329loPI   GL1 5253   0.412   9.169   9.850  0.2946 -0.0157  0.0728
  329loPI   GL2 5254   0.712   9.367   9.783 -0.3271  0.0289 -0.2155
  329loPI   C1A 5255   0.290   8.799   9.541  0.0864 -0.0940  0.2974
  329loPI   C2A 5256   0.597   8.554   9.258 -0.0038 -0.0270  0.2233
  329loPI   C3A 5257   0.605   8.580   8.837  0.0677  0.4291 -0.0015
  329loPI   C4A 5258   0.469   8.742   8.481 -0.1154 -0.1117 -0.0489
  329loPI   C5A 5259   0.374   8.411   8.176 -0.1022 -0.0145  0.1294
  329loPI   C6A 5260   0.473   8.009   8.118  0.0395  0.1739  0.1122
  329loPI   C1B 5261   1.001   9.404   9.498 -0.0882  0.0839 -0.6858
  329loPI   C2B 5262   1.063   9.367   9.067 -0.1254  0.0920  0.1318
  329loPI   C3B 5263   1.084   9.405   8.697  0.1858 -0.2347  0.1389
  329loPI   C4B 5264   0.994   9.431   8.216  0.1559  0.4156  0.2932
  330loPI    C1 5265   4.990  11.749  10.419  0.0067  0.2582  0.1462
  330loPI    C2 5266   4.632  11.575  10.384  0.0420  0.2238 -0.0523
  330loPI    C3 5267   4.833  11.550  10.728 -0.0472  0.0524 -0.0120
  330loPI   PO4 5268   5.106  11.695  10.257  0.0985  0.1303  0.2848
  330loPI   GL1 5269   5.116  11.576   9.804  0.3232  0.2243 -0.0481
  330loPI   GL2 5270   5.410  11.733   9.698 -0.0811 -0.1304  0.1945
  330loPI   C1A 5271   5.038  11.431   9.475 -0.1091 -0.0013  0.0160
  330loPI   C2A 5272   5.029  11.314   9.130  0.1018 -0.2741  0.2521
  330loPI   C3A 5273   4.999  11.428   8.688  0.3035 -0.0934  0.3365
  330loPI   C4A 5274   5.099  11.370   8.278 -0.1741 -0.0142  0.1124
  330loPI   C5A 5275   5.082  11.547   7.915 -0.0818  0.0918  0.1829
  330loPI   C6A 5276   4.781  11.859   7.675  0.2113  0.0158  0.3672
  330loPI   C1B 5277   5.545  11.555   9.253  0.0667  0.2991 -0.1966
  330loPI   C2B 5278   5.452  11.524   8.868 -0.0484 -0.1869  0.2088
  330loPI   C3B 5279   5.497  11.647   8.372  0.2250  0.0130 -0.0347
  330loPI   C4B 5280   5.479  11.881   8.003  0.1065 -0.1981 -0.0076
  331loPI    C1 5281  16.112  16.094  10.291 -0.0381  0.1831 -0.0322
  331loPI    C2 5282  16.472  15.937  10.365 -0.0545  0.1623  0.0036
  331loPI    C3 5283  16.315  16.205  10.617 -0.1919 -0.0489  0.1465
  331loPI   PO4 5284  16.020  15.807  10.062  0.2270 -0.1424 -0.0949
  331loPI   GL1 5285  16.042  15.822   9.742 -0.1970  0.5205  0.1049
  331loPI   GL2 5286  15.963  15.517   9.631 -0.0270 -0.1159  0.1197
  331loPI   C1A 5287  15.923  15.904   9.335 -0.3780  0.1877 -0.1920
  331loPI   C2A 5288  15.937  15.678   8.874  0.1318 -0.0344 -0.3025
  331loPI   C3A 5289  16.010  15.894   8.408  0.0412  0.2165  0.4270
  331loPI   C4A 5290  15.801  16.166   8.112  0.1538 -0.0950 -0.2071
  331loPI   C5A 5291  15.755  16.310   7.766 -0.1821  0.0356 -0.0239
  331loPI   C6A 5292  15.742  16.377   7.276  0.0984 -0.1216  0.2946
  331loPI   C1B 5293  16.088  15.350   9.241 -0.0254 -0.0241 -0.0352
  331loPI   C2B 5294  16.274  15.222   8.900  0.1374 -0.1865 -0.2752
  331loPI   C3B 5295  16.441  14.903   8.718 -0.1550  0.0842 -0.2588
  331loPI   C4B 5296  16.780  14.596   9.025 -0.1391 -0.2158 -0.0858
  332loPI    C1 5297   2.382   7.340  10.377 -0.3297  0.0264 -0.0616
  332loPI    C2 5298   2.327   7.396  10.769  0.3444  0.0655  0.0402
  332loPI    C3 5299   2.405   7.030  10.629  0.1261  0.0552 -0.0596
  332loPI   PO4 5300   2.177   7.407  10.263  0.0297 -0.1366 -0.2993
  332loPI   GL1 5301   2.186   7.508   9.900 -0.2935 -0.1151  0.1488
  332loPI   GL2 5302   2.307   7.213   9.745 -0.1075  0.2632 -0.0284
  332loPI   C1A 5303   2.126   7.549   9.467 -0.0756  0.1874 -0.0151
  332loPI   C2A 5304   1.808   7.624   9.042  0.1719  0.0821 -0.2189
  332loPI   C3A 5305   1.647   7.601   8.672 -0.1064 -0.0793  0.1705
  332loPI   C4A 5306   1.792   7.541   8.326 -0.2305  0.0566 -0.0197
  332loPI   C5A 5307   1.997   7.451   7.911 -0.0030 -0.0687  0.0262
  332loPI   C6A 5308   2.368   7.629   7.781  0.1335  0.4212 -0.3287
  332loPI   C1B 5309   2.274   7.060   9.359 -0.2653 -0.0132 -0.0553
  332loPI   C2B 5310   2.265   7.268   9.070  0.2625  0.2680  0.2190
  332loPI   C3B 5311   2.146   7.363   8.719  0.2183  0.0639 -0.0139
  332loPI   C4B 5312   2.335   7.450   8.363 -0.1222  0.3325  0.3403
  333loPI    C1 5313   0.321   2.748  10.027 -0.1109 -0.1511 -0.1207
  333loPI    C2 5314   0.239   3.096  10.207  0.2745  0.0094 -0.2448
  333loPI    C3 5315   0.541   2.869  10.338  0.0125 -0.2930 -0.1518
  333loPI   PO4 5316   0.353   2.861   9.705 -0.2156  0.3806 -0.0402
  333loPI   GL1 5317   0.490   2.957   9.346  0.1659  0.0246 -0.0113
  333loPI   GL2 5318   0.656   3.245   9.364  0.3094  0.1757  0.1110
  333loPI   C1A 5319   0.511   2.451   9.152 -0.2615 -0.1616  0.3113
  333loPI   C2A 5320   0.475   2.371   8.663  0.0632 -0.0069 -0.0247
  333loPI   C3A 5321   0.576   2.073   8.353 -0.0785  0.4309 -0.0221
  333loPI   C4A 5322   0.819   2.062   7.930  0.0210 -0.1345  0.1196
  333loPI   C5A 5323   0.962   2.081   7.454  0.0153 -0.4275  0.2228
  333loPI   C6A 5324   1.089   2.196   7.004  0.2927  0.4016  0.0540
  333loPI   C1B 5325   0.438   3.405   8.865 -0.0890  0.2483 -0.2831
  333loPI   C2B 5326   0.377   3.478   8.425  0.2338 -0.3994 -0.1009
  333loPI   C3B 5327   0.283   3.548   7.997  0.0692  0.1660 -0.0752
  333loPI   C4B 5328   0.009   3.681   7.666  0.0206  0.0983 -0.0380
  334loPI    C1 5329  10.082  16.638  10.007 -0.0100 -0.1138 -0.1783
  334loPI    C2 5330   9.864  16.538  10.327 -0.0284  0.2404 -0.0753
  334loPI    C3 5331  10.255  16.613  10.367  0.0713 -0.1734 -0.2211
  334loPI   PO4 5332   9.989  16.808   9.877 -0.1127  0.1391  0.4691
  334loPI   GL1 5333  10.018  16.914   9.431 -0.1256  0.2022 -0.0777
  334loPI   GL2 5334   9.620  16.882   9.524  0.0052  0.1467  0.0287
  334loPI   C1A 5335   9.998  17.308   9.266 -0.1225 -0.3311  0.0819
  334loPI   C2A 5336   9.786  17.423   8.980 -0.0451  0.1284  0.0858
  334loPI   C3A 5337   9.842  17.192   8.637  0.0003  0.1859  0.0414
  334loPI   C4A 5338   9.735  17.227   8.304  0.1930 -0.0198  0.1268
  334loPI   C5A 5339   9.505  17.164   7.955 -0.2079  0.2461 -0.1889
  334loPI   C6A 5340   9.527  16.869   7.656  0.1822  0.4292  0.0559
  334loPI   C1B 5341   9.398  17.027   9.195  0.1721  0.2601 -0.1027
  334loPI   C2B 5342   9.452  17.065   8.874  0.0322  0.1043 -0.3098
  334loPI   C3B 5343   9.358  17.521   8.591 -0.0944 -0.3523 -0.1778
  334loPI   C4B 5344   9.358  17.631   8.207  0.3698 -0.1770 -0.0184
  335loPI    C1 5345   3.331   6.959  10.305  0.1461 -0.0304  0.1560
  335loPI    C2 5346   3.565   6.807  10.592 -0.2102 -0.0367  0.4509
  335loPI    C3 5347   3.201   6.945  10.683 -0.3806 -0.1543 -0.0211
  335loPI   PO4 5348   3.499   6.916  10.036 -0.0671 -0.2729 -0.0736
  335loPI   GL1 5349   3.816   6.683   9.818 -0.0836  0.1990  0.0935
  335loPI   GL2 5350   3.701   6.437   9.678 -0.3473 -0.1632  0.1373
  335loPI   C1A 5351   3.991   6.896   9.464 -0.3180 -0.0409 -0.0086
  335loPI   C2A 5352   4.086   6.838   9.044 -0.0169  0.2828  0.1161
  335loPI   C3A 5353   4.275   6.965   8.654  0.2447 -0.2547 -0.0669
  335loPI   C4A 5354   4.232   7.171   8.275  0.2431  0.0800 -0.1073
  335loPI   C5A 5355   4.300   6.967   7.900  0.0398  0.1264 -0.0155
  335loPI   C6A 5356   4.392   6.616   7.663 -0.2658  0.1875 -0.3358
  335loPI   C1B 5357   4.089   6.446   9.504  0.0483  0.1571  0.1340
  335loPI   C2B 5358   4.201   6.234   9.091 -0.4396 -0.2070  0.1142
  335loPI   C3B 5359   3.906   5.951   8.809  0.1538  0.1036 -0.1975
  335loPI   C4B 5360   3.912   5.830   8.386 -0.0344  0.3738  0.0107
  336loPI    C1 5361  11.649   6.557  10.623  0.1997 -0.0759 -0.1528
  336loPI    C2 5362  11.777   6.456  10.988 -0.3324 -0.0196  0.0593
  336loPI    C3 5363  11.897   6.800  10.822  0.0027 -0.0997  0.1273
  336loPI   PO4 5364  11.630   6.352  10.512 -0.0534 -0.2700  0.0662
  336loPI   GL1 5365  11.677   6.208  10.005  0.2363 -0.3282  0.2848
  336loPI   GL2 5366  11.527   6.499  10.042  0.0487  0.0088  0.0011
  336loPI   C1A 5367  11.658   6.102   9.602  0.1117 -0.0338  0.0414
  336loPI   C2A 5368  11.604   6.200   9.256 -0.2921 -0.1224 -0.1498
  336loPI   C3A 5369  11.781   6.084   8.854 -0.2084  0.1379  0.0941
  336loPI   C4A 5370  11.757   6.231   8.471  0.0381  0.0637  0.2557
  336loPI   C5A 5371  11.837   6.723   8.376  0.0318 -0.0388 -0.1581
  336loPI   C6A 5372  11.791   6.975   7.970 -0.3420  0.0503 -0.1533
  336loPI   C1B 5373  11.320   6.458   9.641  0.1042 -0.2155  0.1623
  336loPI   C2B 5374  11.401   6.659   9.319  0.0169  0.0375 -0.1298
  336loPI   C3B 5375  11.282   6.909   9.033  0.0066  0.2929 -0.3726
  336loPI   C4B 5376  11.708   7.126   8.928  0.0840 -0.0592  0.1316
  337loPI    C1 5377  13.945  14.021  10.344  0.2291 -0.0339 -0.1947
  337loPI    C2 5378  14.116  14.232  10.638 -0.1080  0.2126 -0.1703
  337loPI    C3 5379  13.729  14.286  10.551 -0.1367 -0.2162 -0.3344
  337loPI   PO4 5380  14.139  14.028  10.163  0.0546 -0.0205 -0.2849
  337loPI   GL1 5381  14.316  13.911   9.785 -0.0359 -0.0926 -0.2259
  337loPI   GL2 5382  14.520  14.070   9.677  0.1436  0.0223 -0.0421
  337loPI   C1A 5383  14.353  13.734   9.358 -0.2513  0.0448  0.0369
  337loPI   C2A 5384  14.406  13.865   9.004  0.0330 -0.0382  0.2271
  337loPI   C3A 5385  14.469  13.859   8.541 -0.0373 -0.2197 -0.0843
  337loPI   C4A 5386  14.739  13.927   8.176  0.0191 -0.0002 -0.2282
  337loPI   C5A 5387  14.989  13.907   7.723  0.0800 -0.1921  0.1034
  337loPI   C6A 5388  15.142  13.939   7.400  0.0439  0.2801 -0.8221
  337loPI   C1B 5389  14.807  13.991   9.336 -0.0017 -0.1354 -0.0712
  337loPI   C2B 5390  14.924  13.872   8.901  0.0151 -0.1099  0.3636
  337loPI   C3B 5391  15.013  13.708   8.516  0.5043 -0.0354 -0.4574
  337loPI   C4B 5392  15.144  13.474   8.064  0.2603  0.1246  0.0154
  338loPI    C1 5393   4.193   8.099  10.499 -0.1893  0.0571  0.2375
  338loPI    C2 5394   3.871   8.323  10.424 -0.2039 -0.0582 -0.0543
  338loPI    C3 5395   3.862   8.054  10.720 -0.3369  0.0168  0.0109
  338loPI   PO4 5396   4.289   8.036  10.234 -0.4689 -0.2671 -0.1774
  338loPI   GL1 5397   4.316   7.888   9.866 -0.3397 -0.3132 -0.3560
  338loPI   GL2 5398   4.104   7.707   9.824 -0.4045  0.0119  0.2178
  338loPI   C1A 5399   4.420   7.773   9.424 -0.2568 -0.0230 -0.1228
  338loPI   C2A 5400   4.433   7.744   9.011  0.0311 -0.2889 -0.1108
  338loPI   C3A 5401   4.370   7.785   8.501 -0.0478  0.2437  0.2782
  338loPI   C4A 5402   4.418   7.638   8.060  0.3166  0.2367 -0.4076
  338loPI   C5A 5403   4.456   7.761   7.620  0.4216 -0.4069  0.0498
  338loPI   C6A 5404   4.228   8.065   7.430  0.0327  0.1277  0.1965
  338loPI   C1B 5405   3.932   7.797   9.448 -0.0295 -0.3232  0.2777
  338loPI   C2B 5406   3.954   7.814   8.927  0.3127  0.2213  0.0710
  338loPI   C3B 5407   3.716   8.016   8.596  0.1227 -0.1768 -0.0275
  338loPI   C4B 5408   3.716   8.074   8.211 -0.1407 -0.0888  0.0271
  339loPI    C1 5409  13.764  14.184   9.869 -0.1565 -0.1087 -0.1569
  339loPI    C2 5410  13.484  14.086  10.138 -0.1442  0.0273 -0.0940
  339loPI    C3 5411  13.688  13.799   9.949 -0.0440 -0.0694  0.1554
  339loPI   PO4 5412  13.745  14.326   9.686 -0.2663 -0.3671 -0.1024
  339loPI   GL1 5413  14.118  14.308   9.479  0.1683 -0.0552 -0.2397
  339loPI   GL2 5414  13.961  13.969   9.414 -0.2187  0.0739  0.2087
  339loPI   C1A 5415  14.268  14.356   9.061 -0.1086 -0.1555 -0.3057
  339loPI   C2A 5416  14.380  14.357   8.618  0.1103 -0.1798  0.2287
  339loPI   C3A 5417  14.301  14.211   8.167  0.1982  0.0411 -0.4200
  339loPI   C4A 5418  14.260  13.923   7.837 -0.2048 -0.1144 -0.0826
  339loPI   C5A 5419  13.975  13.654   7.614  0.2078  0.0511  0.0140
  339loPI   C6A 5420  13.497  13.458   7.527  0.1657 -0.1002  0.0241
  339loPI   C1B 5421  13.949  13.933   8.968  0.4925 -0.0375 -0.0859
  339loPI   C2B 5422  13.925  14.064   8.539 -0.0603  0.0868 -0.1327
  339loPI   C3B 5423  13.848  13.956   8.133  0.3012 -0.0052  0.1550
  339loPI   C4B 5424  13.552  13.912   7.710  0.0357 -0.1912  0.1931
  340loPI    C1 5425   0.951   1.470   9.777 -0.2279  0.0165  0.0694
  340loPI    C2 5426   0.694   1.506  10.081 -0.1515  0.0249  0.1333
  340loPI    C3 5427   1.030   1.294  10.127  0.0495  0.3454  0.1780
  340loPI   PO4 5428   1.048   1.683   9.645  0.0621 -0.1767  0.0798
  340loPI   GL1 5429   0.745   1.950   9.342  0.3106  0.1389  0.1613
  340loPI   GL2 5430   0.812   1.644   9.209 -0.0093  0.0402 -0.0172
  340loPI   C1A 5431   0.690   2.024   8.957  0.3621  0.2316 -0.3301
  340loPI   C2A 5432   0.989   2.304   8.815 -0.1031  0.0324 -0.2783
  340loPI   C3A 5433   0.917   2.696   8.638  0.2712 -0.0336 -0.3543
  340loPI   C4A 5434   0.915   2.947   8.167  0.1192  0.2502 -0.1256
  340loPI   C5A 5435   0.957   3.088   7.732 -0.0531  0.1404 -0.0433
  340loPI   C6A 5436   1.079   3.453   7.473  0.1840  0.0016  0.1952
  340loPI   C1B 5437   0.691   1.601   8.745 -0.0651 -0.0306  0.0959
  340loPI   C2B 5438   0.652   1.482   8.351  0.1445 -0.4530 -0.0594
  340loPI   C3B 5439   0.921   1.609   8.107  0.3915  0.1356  0.0442
  340loPI   C4B 5440   1.179   1.658   7.712  0.1619  0.2632  0.2816
  341loPI    C1 5441  14.429   0.868  10.540 -0.0285  0.1762  0.0228
  341loPI    C2 5442  14.297   1.089  10.846  0.0344  0.1420  0.0746
  341loPI    C3 5443  14.686   1.000  10.815 -0.0313 -0.2182  0.2222
  341loPI   PO4 5444  14.271   0.973  10.314 -0.1770 -0.2657 -0.0636
  341loPI   GL1 5445  14.154   0.902   9.929  0.1117 -0.1543 -0.1220
  341loPI   GL2 5446  13.937   1.116   9.776  0.1385 -0.1411 -0.1472
  341loPI   C1A 5447  14.334   0.951   9.557 -0.0683 -0.1478  0.0374
  341loPI   C2A 5448  14.294   0.974   9.107  0.1233 -0.1393 -0.3996
  341loPI   C3A 5449  14.313   1.067   8.553  0.1635  0.4150  0.0488
  341loPI   C4A 5450  14.223   1.013   8.134  0.1703 -0.0206  0.0884
  341loPI   C5A 5451  14.296   0.820   7.737 -0.0324 -0.0723  0.0253
  341loPI   C6A 5452  14.451   0.793   7.292 -0.1074  0.0220  0.0560
  341loPI   C1B 5453  13.813   1.067   9.327  0.0201  0.1643  0.0911
  341loPI   C2B 5454  13.823   1.175   8.881  0.0859 -0.1523  0.0552
  341loPI   C3B 5455  13.847   1.235   8.418 -0.1034  0.1410  0.0955
  341loPI   C4B 5456  13.640   1.311   8.043 -0.1745 -0.0667 -0.1405
  342loPI    C1 5457  18.160   0.514  10.184  0.2419 -0.2504  0.1477
  342loPI    C2 5458  18.179   0.720  10.527 -0.0762  0.1257 -0.0531
  342loPI    C3 5459  18.516   0.610  10.341  0.1014 -0.1576  0.4164
  342loPI   PO4 5460  18.064   0.602  10.075  0.2041  0.1171  0.3858
  342loPI   GL1 5461  18.137   0.436   9.599 -0.0179 -0.3856 -0.0306
  342loPI   GL2 5462  17.824   0.376   9.674 -0.0197  0.4905  0.0037
  342loPI   C1A 5463  17.873   0.660   9.289  0.1754  0.1523  0.0007
  342loPI   C2A 5464  17.933   0.523   8.817  0.0129  0.1251  0.1211
  342loPI   C3A 5465  17.913   0.332   8.454  0.1805  0.1146 -0.0365
  342loPI   C4A 5466  18.117   0.328   7.940 -0.2734 -0.1752  0.2618
  342loPI   C5A 5467  17.928   0.182   7.509 -0.1172  0.2782 -0.0857
  342loPI   C6A 5468  17.945   0.317   7.107  0.0638  0.3260 -0.0886
  342loPI   C1B 5469  17.546   0.273   9.308 -0.1589 -0.2719 -0.2227
  342loPI   C2B 5470  17.130   0.058   9.147  0.2641  0.3460  0.2372
  342loPI   C3B 5471  16.944   0.199   8.883  0.0234 -0.4115  0.3520
  342loPI   C4B 5472  17.036   0.269   8.427 -0.1741 -0.2690  0.2621
  343loPI    C1 5473   3.210   5.633  10.280 -0.0768 -0.1270 -0.0267
  343loPI    C2 5474   3.087   5.919  10.532  0.1042 -0.1143  0.0494
  343loPI    C3 5475   3.436   5.958  10.341  0.0178 -0.1739 -0.1236
  343loPI   PO4 5476   3.108   5.638  10.100  0.1549 -0.4928  0.3332
  343loPI   GL1 5477   3.099   5.353   9.847  0.0188  0.1359  0.0274
  343loPI   GL2 5478   3.163   5.090   9.673 -0.4573 -0.2943  0.1786
  343loPI   C1A 5479   2.983   5.485   9.449  0.0508 -0.2230 -0.3386
  343loPI   C2A 5480   3.107   5.551   9.037  0.3965 -0.2246 -0.2031
  343loPI   C3A 5481   3.127   5.329   8.721  0.1996  0.0772  0.2287
  343loPI   C4A 5482   3.227   5.551   8.337  0.3401 -0.1319 -0.0016
  343loPI   C5A 5483   3.305   5.928   8.094  0.0604 -0.2220  0.3091
  343loPI   C6A 5484   3.136   6.223   7.850 -0.1981 -0.0721 -0.0568
  343loPI   C1B 5485   3.195   4.916   9.319  0.1776  0.0155  0.0998
  343loPI   C2B 5486   3.253   4.787   8.896 -0.0505  0.0975 -0.5127
  343loPI   C3B 5487   3.359   4.911   8.378  0.1097 -0.0687 -0.0358
  343loPI   C4B 5488   3.135   5.006   8.119 -0.0412 -0.0134  0.1059
  344loPI    C1 5489   2.483   0.331  10.068  0.2389 -0.2483  0.3356
  344loPI    C2 5490   2.531   0.723  10.131  0.3644 -0.2106  0.0221
  344loPI    C3 5491   2.308   0.506  10.383  0.0711  0.1127  0.0488
  344loPI   PO4 5492   2.426   0.357   9.791 -0.1201  0.2065  0.2901
  344loPI   GL1 5493   2.662   0.378   9.503  0.1275 -0.1281  0.4411
  344loPI   GL2 5494   2.805   0.114   9.493 -0.4004 -0.0476 -0.0154
  344loPI   C1A 5495   2.557   0.257   9.073  0.2443  0.0174  0.0192
  344loPI   C2A 5496   2.777   0.342   8.665 -0.0464 -0.0065  0.2991
  344loPI   C3A 5497   2.795   0.391   8.155  0.2381  0.0551 -0.4373
  344loPI   C4A 5498   2.890   0.377   7.748  0.3194  0.0424 -0.2760
  344loPI   C5A 5499   3.207   0.282   7.496 -0.1328  0.0081  0.0474
  344loPI   C6A 5500   3.613   0.094   7.490 -0.2635 -0.3630 -0.3576
  344loPI   C1B 5501   3.151   0.142   9.244  0.0242  0.3284  0.1170
  344loPI   C2B 5502   3.243   0.147   8.766  0.1967  0.1147  0.1058
  344loPI   C3B 5503   3.236   0.155   8.353 -0.0065  0.0678  0.7623
  344loPI   C4B 5504   3.363   0.230   7.940  0.1943 -0.0155 -0.0351
  345loPI    C1 5505   8.908  13.799  10.285  0.0097  0.0421 -0.0349
  345loPI    C2 5506   8.523  13.848  10.380  0.0683  0.2135  0.1215
  345loPI    C3 5507   8.788  13.755  10.664  0.1293  0.0094 -0.0003
  345loPI   PO4 5508   8.933  13.795  10.050  0.4400  0.0960 -0.1160
  345loPI   GL1 5509   9.085  14.078   9.678 -0.3225  0.2161 -0.0568
  345loPI   GL2 5510   8.785  14.218   9.789  0.4197 -0.2215  0.0724
  345loPI   C1A 5511   9.097  13.828   9.264  0.0123 -0.1486  0.3232
  345loPI   C2A 5512   9.054  13.655   8.836 -0.1794  0.0599  0.0208
  345loPI   C3A 5513   8.913  13.539   8.491 -0.0402  0.1803  0.2306
  345loPI   C4A 5514   8.569  13.355   8.247  0.0810  0.0070  0.2057
  345loPI   C5A 5515   8.440  13.313   7.854  0.1165 -0.1619  0.0928
  345loPI   C6A 5516   8.435  13.630   7.624  0.1041 -0.1004  0.2094
  345loPI   C1B 5517   8.657  14.060   9.384  0.1575  0.0847  0.2945
  345loPI   C2B 5518   8.635  13.922   8.872 -0.2781 -0.1093  0.0229
  345loPI   C3B 5519   8.687  13.982   8.535 -0.1301 -0.1959  0.0485
  345loPI   C4B 5520   8.772  14.323   8.216  0.5002 -0.3212  0.3764
  346loPI    C1 5521  15.344   0.890  10.415  0.0684 -0.0556 -0.0038
  346loPI    C2 5522  15.399   0.594  10.679 -0.1652 -0.0597  0.0419
  346loPI    C3 5523  15.220   0.934  10.793 -0.0643  0.0270 -0.0561
  346loPI   PO4 5524  15.314   0.757  10.189 -0.0860 -0.0341 -0.0881
  346loPI   GL1 5525  15.503   0.876   9.737  0.0111  0.1390  0.2836
  346loPI   GL2 5526  15.836   0.992   9.711  0.0991 -0.1595  0.1823
  346loPI   C1A 5527  15.212   1.158   9.403  0.3840 -0.1407 -0.0277
  346loPI   C2A 5528  15.204   1.276   9.064 -0.1568  0.1964 -0.0115
  346loPI   C3A 5529  15.191   1.241   8.677  0.2435 -0.1371  0.0231
  346loPI   C4A 5530  15.136   1.290   8.320 -0.1554  0.0710  0.4153
  346loPI   C5A 5531  15.122   1.220   7.813 -0.1130  0.2072  0.1251
  346loPI   C6A 5532  15.163   0.725   7.864 -0.1404  0.0940  0.0868
  346loPI   C1B 5533  15.667   1.059   9.274  0.2755 -0.1933 -0.0252
  346loPI   C2B 5534  15.683   1.073   8.802 -0.0486  0.0302  0.0641
  346loPI   C3B 5535  15.728   1.060   8.361 -0.1387  0.4264  0.1857
  346loPI   C4B 5536  15.612   0.989   7.913  0.0996  0.0567 -0.1535
  347loPI    C1 5537  16.878  16.007  10.029 -0.1925  0.2683 -0.1749
  347loPI    C2 5538  16.882  16.337  10.255  0.0318  0.1057  0.0639
  347loPI    C3 5539  16.999  15.987  10.410 -0.0237 -0.0512 -0.2419
  347loPI   PO4 5540  16.865  16.068   9.715 -0.2905  0.0974 -0.0177
  347loPI   GL1 5541  16.892  16.307   9.241  0.2052  0.1033 -0.1454
  347loPI   GL2 5542  17.133  16.129   9.255  0.0116 -0.1573 -0.2364
  347loPI   C1A 5543  17.061  16.306   8.765  0.2083  0.2250 -0.0901
  347loPI   C2A 5544  17.407  16.547   8.509 -0.0170  0.0638 -0.1116
  347loPI   C3A 5545  17.731  16.325   8.321 -0.0844  0.1143  0.1006
  347loPI   C4A 5546  17.765  16.264   7.888  0.5747 -0.0668  0.0882
  347loPI   C5A 5547  17.962  16.474   7.545 -0.0985  0.1419  0.0673
  347loPI   C6A 5548  18.177  16.496   7.109 -0.0607 -0.0948  0.3114
  347loPI   C1B 5549  16.908  15.877   8.989  0.2562  0.0730 -0.0221
  347loPI   C2B 5550  16.924  15.768   8.548  0.2619  0.2014 -0.2792
  347loPI   C3B 5551  17.006  15.666   8.094 -0.0635 -0.1806 -0.2047
  347loPI   C4B 5552  17.102  15.944   7.719 -0.1290  0.0068 -0.0639
  348loPI    C1 5553   0.976   5.546  10.168  0.0499 -0.2300 -0.0821
  348loPI    C2 5554   0.861   5.666  10.532  0.1841 -0.0769 -0.0888
  348loPI    C3 5555   0.951   5.282  10.467  0.2763 -0.0829  0.0700
  348loPI   PO4 5556   0.797   5.578  10.025  0.0639  0.2142  0.0822
  348loPI   GL1 5557   0.793   5.900   9.755 -0.1859 -0.0512  0.1905
  348loPI   GL2 5558   1.158   5.756   9.700 -0.1298 -0.3187 -0.1732
  348loPI   C1A 5559   0.878   5.843   9.291  0.1249  0.0601  0.2371
  348loPI   C2A 5560   0.888   5.873   8.831  0.2385 -0.2236  0.1801
  348loPI   C3A 5561   1.004   5.849   8.371 -0.1757 -0.1658  0.1263
  348loPI   C4A 5562   0.993   5.697   7.898 -0.3237  0.4462  0.0606
  348loPI   C5A 5563   1.409   5.657   7.656 -0.2543  0.5566  0.0028
  348loPI   C6A 5564   1.832   5.497   7.561 -0.5859  0.0069  0.2135
  348loPI   C1B 5565   1.330   5.528   9.280  0.0966 -0.0924  0.0534
  348loPI   C2B 5566   1.717   5.439   9.034 -0.0542 -0.1419 -0.0312
  348loPI   C3B 5567   1.770   5.371   8.516  0.0789 -0.3049  0.2671
  348loPI   C4B 5568   1.817   5.277   8.138  0.1244  0.1620  0.1928
  349loPI    C1 5569  15.517   2.115  10.462  0.0936  0.0195  0.1289
  349loPI    C2 5570  15.657   2.070  10.091 -0.2613 -0.2416  0.0219
  349loPI    C3 5571  15.908   2.063  10.401  0.0477  0.0528 -0.2142
  349loPI   PO4 5572  15.272   1.956  10.394  0.2697  0.0779 -0.0511
  349loPI   GL1 5573  15.213   1.918   9.941 -0.0857  0.0313 -0.1548
  349loPI   GL2 5574  15.026   1.678   9.745 -0.2916 -0.0343 -0.1906
  349loPI   C1A 5575  15.457   2.037   9.474  0.0851  0.2062  0.0332
  349loPI   C2A 5576  15.321   2.131   9.034  0.0402  0.4354  0.2056
  349loPI   C3A 5577  15.439   2.082   8.503  0.0175  0.0668 -0.0059
  349loPI   C4A 5578  15.615   2.090   8.025 -0.1243  0.0433 -0.0716
  349loPI   C5A 5579  15.704   2.314   7.602  0.1167 -0.2310  0.0134
  349loPI   C6A 5580  15.720   2.671   7.417 -0.1138  0.0460 -0.0690
  349loPI   C1B 5581  15.097   1.726   9.271  0.1101 -0.1035  0.0240
  349loPI   C2B 5582  15.052   1.802   8.772  0.3816 -0.0107 -0.2500
  349loPI   C3B 5583  15.005   1.798   8.311 -0.0495  0.2483  0.1571
  349loPI   C4B 5584  14.927   1.683   7.829  0.0391 -0.3370 -0.0785
  350loPI    C1 5585   5.782   0.348  10.015  0.1195  0.1485  0.0552
  350loPI    C2 5586   5.821   0.287  10.409 -0.1163 -0.0145  0.0549
  350loPI    C3 5587   5.586   0.047  10.191 -0.2176  0.2518 -0.1346
  350loPI   PO4 5588   5.751   0.591   9.943  0.3019  0.1136  0.3096
  350loPI   GL1 5589   5.581   0.836   9.673 -0.0758  0.0079 -0.0844
  350loPI   GL2 5590   5.308   0.805   9.719  0.3858  0.0866  0.0224
  350loPI   C1A 5591   5.459   0.784   9.196 -0.2698 -0.0177  0.2895
  350loPI   C2A 5592   5.362   0.846   8.717 -0.1801 -0.3863  0.2470
  350loPI   C3A 5593   5.395   0.743   8.305 -0.0132 -0.0823 -0.0215
  350loPI   C4A 5594   5.352   0.474   7.886 -0.2385  0.2856 -0.1490
  350loPI   C5A 5595   4.995   0.525   7.731 -0.2331 -0.0649 -0.1001
  350loPI   C6A 5596   4.580   0.419   7.492  0.4398 -0.0972  0.3602
  350loPI   C1B 5597   5.004   0.894   9.362 -0.1715  0.2074 -0.0324
  350loPI   C2B 5598   4.799   0.936   8.979 -0.2870 -0.1246  0.0097
  350loPI   C3B 5599   4.920   1.042   8.562  0.1193  0.0328  0.0768
  350loPI   C4B 5600   5.008   0.985   8.090  0.0195 -0.0268 -0.0699
  351loPI    C1 5601   4.264  17.075   9.942 -0.0351 -0.1775  0.0639
  351loPI    C2 5602   4.587  17.154  10.166 -0.0797 -0.2264  0.1460
  351loPI    C3 5603   4.601  16.867   9.887 -0.0119 -0.1387  0.0584
  351loPI   PO4 5604   4.140  17.249   9.788  0.2839  0.3206 -0.1100
  351loPI   GL1 5605   4.031  17.360   9.335 -0.1277  0.1858  0.0514
  351loPI   GL2 5606   4.382  17.426   9.280  0.1202 -0.0863  0.2320
  351loPI   C1A 5607   3.857  17.306   9.011  0.1009 -0.3154  0.0426
  351loPI   C2A 5608   3.776  17.397   8.574 -0.1770  0.1613  0.6105
  351loPI   C3A 5609   3.661  17.364   8.198  0.0439 -0.0591  0.2114
  351loPI   C4A 5610   3.549  17.448   7.700  0.1136  0.3991  0.1508
  351loPI   C5A 5611   3.503  17.287   7.352  0.1284  0.2016  0.0210
  351loPI   C6A 5612   3.775  17.225   6.971  0.0913 -0.2222 -0.1563
  351loPI   C1B 5613   4.354  17.529   8.880 -0.0158 -0.0870 -0.2328
  351loPI   C2B 5614   4.358  17.583   8.500  0.0176  0.4178  0.0354
  351loPI   C3B 5615   4.425  17.531   8.051  0.1609  0.0839 -0.1577
  351loPI   C4B 5616   4.627  17.350   7.635 -0.1987 -0.3632  0.2576
  352loPI    C1 5617   6.267   2.861  10.265 -0.2153 -0.0707 -0.0984
  352loPI    C2 5618   6.182   2.570  10.526 -0.0556 -0.0910 -0.0683
  352loPI    C3 5619   6.489   2.528  10.273  0.0126  0.0807 -0.0159
  352loPI   PO4 5620   6.021   2.891  10.184 -0.2744  0.3976  0.0601
  352loPI   GL1 5621   6.005   2.675   9.800  0.1689 -0.2057  0.3168
  352loPI   GL2 5622   6.342   2.573   9.836 -0.0530  0.1467  0.3019
  352loPI   C1A 5623   5.879   2.947   9.453  0.3213  0.1634  0.1799
  352loPI   C2A 5624   5.956   2.982   9.004 -0.0140 -0.4045 -0.3009
  352loPI   C3A 5625   5.864   2.970   8.601 -0.0200 -0.1722  0.1608
  352loPI   C4A 5626   5.981   2.976   8.243  0.2476 -0.0568  0.1566
  352loPI   C5A 5627   5.914   2.998   7.771  0.1394  0.2365 -0.2934
  352loPI   C6A 5628   6.091   3.093   7.339 -0.1394 -0.3092 -0.0985
  352loPI   C1B 5629   6.379   2.810   9.386 -0.1921  0.0423 -0.0172
  352loPI   C2B 5630   6.416   2.839   8.865  0.1136  0.1608  0.0034
  352loPI   C3B 5631   6.402   2.820   8.391 -0.3017  0.4306 -0.1752
  352loPI   C4B 5632   6.355   2.791   7.908 -0.1010 -0.0739 -0.0755
  353loPI    C1 5633  16.290   5.339  10.419 -0.0562 -0.0280  0.0938
  353loPI    C2 5634  16.335   5.453  10.800  0.2799  0.0634  0.0307
  353loPI    C3 5635  15.973   5.351  10.662  0.1282  0.1856  0.3294
  353loPI   PO4 5636  16.436   5.221  10.380 -0.2109  0.1066 -0.0514
  353loPI   GL1 5637  16.378   5.009   9.975  0.2186  0.0016 -0.1969
  353loPI   GL2 5638  16.169   5.149   9.786  0.0585  0.0353  0.1390
  353loPI   C1A 5639  16.578   5.063   9.609  0.1373  0.3227 -0.1926
  353loPI   C2A 5640  16.606   4.937   9.205 -0.1566 -0.0482 -0.0733
  353loPI   C3A 5641  16.510   4.895   8.875 -0.2374  0.0671 -0.1503
  353loPI   C4A 5642  16.277   4.837   8.546  0.0035  0.2313 -0.0401
  353loPI   C5A 5643  16.241   4.637   8.144 -0.0915 -0.0363  0.3491
  353loPI   C6A 5644  16.191   4.229   7.969 -0.1435 -0.1943  0.0526
  353loPI   C1B 5645  16.215   5.262   9.254 -0.3301  0.0070 -0.1833
  353loPI   C2B 5646  16.068   5.143   8.881 -0.2079  0.0281  0.0402
  353loPI   C3B 5647  15.908   5.156   8.444  0.0450 -0.0855 -0.3586
  353loPI   C4B 5648  16.133   5.203   8.117  0.1976 -0.0842  0.1188
  354loPI    C1 5649   1.891   4.360  10.143 -0.0440 -0.0657  0.1139
  354loPI    C2 5650   1.833   3.996  10.299  0.0855 -0.1036  0.0751
  354loPI    C3 5651   1.740   4.322  10.511 -0.0692 -0.1593  0.0943
  354loPI   PO4 5652   2.180   4.273  10.039 -0.3457  0.2648  0.0577
  354loPI   GL1 5653   2.398   4.086   9.661  0.0984 -0.2031 -0.2711
  354loPI   GL2 5654   2.469   3.891   9.689 -0.1151  0.1011  0.2135
  354loPI   C1A 5655   2.433   4.492   9.463 -0.1750 -0.0711 -0.0621
  354loPI   C2A 5656   2.457   4.711   9.161  0.0947  0.0044 -0.1315
  354loPI   C3A 5657   2.379   4.763   8.718  0.0865  0.0717  0.0774
  354loPI   C4A 5658   2.110   4.817   8.366 -0.1507  0.0919  0.1727
  354loPI   C5A 5659   2.037   4.774   7.914  0.0360  0.2674 -0.0372
  354loPI   C6A 5660   1.939   4.742   7.434  0.2567 -0.2202 -0.0156
  354loPI   C1B 5661   2.591   3.635   9.325 -0.2625  0.0644 -0.0886
  354loPI   C2B 5662   2.625   3.723   8.830  0.2345  0.1103  0.0882
  354loPI   C3B 5663   2.533   3.823   8.443  0.4198 -0.1757  0.3171
  354loPI   C4B 5664   2.458   3.873   7.970  0.0397 -0.0622  0.2487
  355loPI    C1 5665   8.761   2.051  10.387 -0.0393 -0.0099 -0.0283
  355loPI    C2 5666   9.046   1.858  10.591  0.0280  0.0317 -0.0823
  355loPI    C3 5667   8.909   2.210  10.723 -0.2147 -0.1306  0.1079
  355loPI   PO4 5668   8.795   2.076  10.064 -0.0041 -0.1447 -0.0554
  355loPI   GL1 5669   9.076   2.019   9.791 -0.0621 -0.0368  0.0530
  355loPI   GL2 5670   9.245   2.252   9.669 -0.0979 -0.1007  0.0071
  355loPI   C1A 5671   8.949   2.047   9.331  0.1346  0.0936 -0.0125
  355loPI   C2A 5672   8.940   2.085   8.902 -0.3968  0.0628  0.3512
  355loPI   C3A 5673   8.903   2.114   8.575  0.0407  0.4411 -0.0958
  355loPI   C4A 5674   8.939   2.215   8.091 -0.0484 -0.1071 -0.0903
  355loPI   C5A 5675   9.111   2.413   7.885  0.0702 -0.1255 -0.1346
  355loPI   C6A 5676   9.149   2.583   7.423 -0.1695 -0.3596  0.3205
  355loPI   C1B 5677   9.262   2.426   9.279  0.1872 -0.2831  0.0805
  355loPI   C2B 5678   9.319   2.461   8.844 -0.0889  0.1840  0.2337
  355loPI   C3B 5679   9.318   2.417   8.375 -0.0332  0.1064  0.0974
  355loPI   C4B 5680   9.563   2.476   8.036  0.1244  0.1419 -0.2083
  356loPI    C1 5681   1.848  11.044  10.428  0.1334 -0.1202 -0.0836
  356loPI    C2 5682   1.994  11.414  10.472  0.0402 -0.0695 -0.1956
  356loPI    C3 5683   1.887  11.202  10.794  0.0054  0.0370 -0.1367
  356loPI   PO4 5684   1.975  10.919  10.287  0.0966 -0.2791 -0.2562
  356loPI   GL1 5685   2.049  10.984   9.935  0.0568 -0.0121 -0.1674
  356loPI   GL2 5686   1.755  10.961   9.797  0.0167  0.0316  0.1284
  356loPI   C1A 5687   2.194  10.900   9.469  0.2897  0.0363  0.2671
  356loPI   C2A 5688   2.161  10.730   9.056  0.0076 -0.2773 -0.1913
  356loPI   C3A 5689   2.130  10.781   8.627 -0.0538  0.0524  0.2100
  356loPI   C4A 5690   2.135  10.807   8.205 -0.1068  0.1830 -0.1497
  356loPI   C5A 5691   2.161  10.890   7.882  0.4898  0.0060 -0.1797
  356loPI   C6A 5692   2.202  11.287   7.801 -0.1656 -0.1328 -0.0686
  356loPI   C1B 5693   1.819  11.193   9.370  0.2512  0.2967  0.2026
  356loPI   C2B 5694   1.834  11.113   8.936 -0.0160  0.1223 -0.0628
  356loPI   C3B 5695   1.761  11.120   8.456 -0.0155  0.2095 -0.2191
  356loPI   C4B 5696   1.697  11.175   8.078  0.1438  0.0331 -0.0846
  357loPI    C1 5697   8.321   6.731  10.256 -0.3816 -0.2050  0.2401
  357loPI    C2 5698   8.334   6.816  10.647  0.0695  0.0335  0.1796
  357loPI    C3 5699   8.645   6.905  10.412 -0.3139  0.1704 -0.2930
  357loPI   PO4 5700   8.158   6.833  10.181 -0.2196  0.1077 -0.0075
  357loPI   GL1 5701   7.916   6.891   9.720 -0.2491 -0.1305 -0.1794
  357loPI   GL2 5702   7.610   6.730   9.713  0.0274  0.0945 -0.1009
  357loPI   C1A 5703   7.875   6.775   9.317  0.0838 -0.0255  0.1984
  357loPI   C2A 5704   7.863   6.579   8.903  0.2502 -0.2982  0.3499
  357loPI   C3A 5705   7.898   6.510   8.470  0.0165 -0.1160 -0.1404
  357loPI   C4A 5706   7.914   6.457   8.063 -0.1254 -0.0186 -0.1988
  357loPI   C5A 5707   8.060   6.649   7.665 -0.1940  0.1068 -0.0331
  357loPI   C6A 5708   7.814   6.853   7.267  0.0126 -0.3054  0.0598
  357loPI   C1B 5709   7.342   6.855   9.338  0.1506 -0.0375 -0.0997
  357loPI   C2B 5710   7.320   6.715   8.990 -0.1138  0.0683  0.1322
  357loPI   C3B 5711   7.399   6.719   8.565  0.2312  0.0911  0.1279
  357loPI   C4B 5712   7.400   6.606   8.164  0.1922 -0.0444  0.0231
  358loPI    C1 5713  16.598  16.994   9.787  0.1558  0.0653 -0.1263
  358loPI    C2 5714  16.785  16.724  10.014  0.0152  0.0630 -0.0116
  358loPI    C3 5715  16.636  17.056  10.180  0.0737  0.1496 -0.1313
  358loPI   PO4 5716  16.708  17.067   9.636 -0.3773 -0.0167  0.0754
  358loPI   GL1 5717  16.761  16.940   9.251  0.1936  0.0927  0.0800
  358loPI   GL2 5718  16.376  16.853   9.246 -0.3864  0.1311  0.1633
  358loPI   C1A 5719  16.658  17.069   8.800  0.0127  0.0474 -0.1273
  358loPI   C2A 5720  16.761  17.350   8.545  0.1275  0.1774 -0.0529
  358loPI   C3A 5721  16.622  17.324   8.047  0.1021  0.1667  0.4036
  358loPI   C4A 5722  16.409  17.407   7.562  0.1024  0.1606  0.1411
  358loPI   C5A 5723  15.929  17.347   7.511  0.3281  0.2807  0.1579
  358loPI   C6A 5724  15.493  17.403   7.471  0.0615  0.0857  0.0451
  358loPI   C1B 5725  16.568  16.606   8.906 -0.1404 -0.0718  0.0340
  358loPI   C2B 5726  16.559  16.530   8.578 -0.0462 -0.2358  0.1376
  358loPI   C3B 5727  16.737  16.420   8.150  0.1407 -0.1474 -0.0876
  358loPI   C4B 5728  16.701  16.302   7.790  0.0794  0.2647  0.0002
  359loPI    C1 5729   3.754  15.190  10.026 -0.1718 -0.1948 -0.0314
  359loPI    C2 5730   3.396  15.327  10.139 -0.0707 -0.0268  0.0917
  359loPI    C3 5731   3.656  15.196  10.413  0.0351  0.0321  0.0204
  359loPI   PO4 5732   3.674  14.953   9.858  0.0596  0.0655  0.0187
  359loPI   GL1 5733   3.801  14.679   9.489 -0.0501  0.2237 -0.2194
  359loPI   GL2 5734   4.077  14.892   9.473  0.0308 -0.1623 -0.0058
  359loPI   C1A 5735   3.678  14.757   9.081  0.0058  0.1040  0.1554
  359loPI   C2A 5736   3.633  14.777   8.659 -0.1812  0.2566 -0.0663
  359loPI   C3A 5737   3.689  14.793   8.146 -0.5185  0.1488 -0.6728
  359loPI   C4A 5738   3.556  14.914   7.695  0.0075  0.0561 -0.0794
  359loPI   C5A 5739   3.438  15.055   7.314  0.1623  0.0525  0.2987
  359loPI   C6A 5740   3.070  15.187   7.162 -0.0969  0.0242  0.0409
  359loPI   C1B 5741   4.121  14.931   8.926  0.2747  0.1215 -0.2645
  359loPI   C2B 5742   4.056  15.018   8.424  0.2191 -0.0533  0.2020
  359loPI   C3B 5743   4.012  15.088   7.888 -0.1329  0.2598  0.1570
  359loPI   C4B 5744   3.913  15.472   7.534 -0.1263 -0.1827  0.0220
  360loPI    C1 5745  18.350   0.098  10.093 -0.0507 -0.0708 -0.0842
  360loPI    C2 5746  18.149  -0.164   9.867 -0.2441 -0.1672  0.1941
  360loPI    C3 5747  17.950   0.084  10.110 -0.0517  0.1039  0.0797
  360loPI   PO4 5748  18.507   0.276   9.893 -0.1139 -0.2116  0.0661
  360loPI   GL1 5749  18.524   0.033   9.606 -0.0068 -0.3461  0.1360
  360loPI   GL2 5750  18.349  -0.257   9.396 -0.2056 -0.2003 -0.3212
  360loPI   C1A 5751  18.296   0.311   9.165 -0.2063  0.0358 -0.1113
  360loPI   C2A 5752  18.376   0.253   8.680 -0.0158 -0.2024 -0.2498
  360loPI   C3A 5753  18.459   0.239   8.249 -0.0283  0.0243 -0.1843
  360loPI   C4A 5754  18.593   0.168   7.806  0.2156  0.1918 -0.1108
  360loPI   C5A 5755  18.650   0.065   7.340  0.1609 -0.2402  0.0069
  360loPI   C6A 5756  18.622  -0.280   7.304  0.3166  0.0035 -0.1308
  360loPI   C1B 5757  18.473  -0.232   8.999  0.1642  0.1400 -0.1094
  360loPI   C2B 5758  18.567  -0.245   8.499 -0.0122 -0.0549  0.1917
  360loPI   C3B 5759  18.667  -0.230   8.068 -0.0316 -0.1220  0.1159
  360loPI   C4B 5760  18.425  -0.567   7.875 -0.2579  0.0600  0.1878
  361loPI    C1 5761   3.257  17.151  10.119  0.1196 -0.0682 -0.1255
  361loPI    C2 5762   2.974  16.870  10.159  0.0535 -0.0141 -0.2103
  361loPI    C3 5763   2.899  17.247  10.270  0.1323 -0.0236 -0.1237
  361loPI   PO4 5764   3.260  17.259   9.857  0.0272 -0.0918  0.3243
  361loPI   GL1 5765   3.245  17.482   9.417 -0.1882  0.0762 -0.0505
  361loPI   GL2 5766   3.498  17.273   9.327 -0.0197  0.4635 -0.2680
  361loPI   C1A 5767   3.053  17.200   9.079 -0.1876  0.1067 -0.3706
  361loPI   C2A 5768   2.801  16.928   8.855  0.0391  0.3477 -0.2153
  361loPI   C3A 5769   2.891  16.639   8.531  0.3320 -0.2835 -0.2871
  361loPI   C4A 5770   2.725  16.512   8.087 -0.1544  0.0404 -0.1319
  361loPI   C5A 5771   2.797  16.358   7.619 -0.3721  0.3359 -0.1858
  361loPI   C6A 5772   2.976  16.043   7.366 -0.0035  0.0164  0.0562
  361loPI   C1B 5773   3.339  17.478   8.863 -0.1390 -0.1429  0.0184
  361loPI   C2B 5774   3.307  17.601   8.414 -0.0191  0.1716 -0.1607
  361loPI   C3B 5775   3.214  17.711   7.966  0.0199  0.0251 -0.0495
  361loPI   C4B 5776   3.118  17.643   7.514 -0.0810  0.3674  0.0994
  362loPI    C1 5777   9.723  17.379  10.403 -0.1448  0.0946 -0.0440
  362loPI    C2 5778   9.333  17.464  10.427 -0.1549  0.0598 -0.0854
  362loPI    C3 5779   9.543  17.393  10.760 -0.1935  0.0356 -0.0661
  362loPI   PO4 5780   9.875  17.580  10.308  0.3835  0.0447 -0.2809
  362loPI   GL1 5781  10.087  17.738   9.964 -0.1004  0.0217  0.0973
  362loPI   GL2 5782   9.955  18.004   9.939 -0.0344 -0.0560  0.1985
  362loPI   C1A 5783  10.270  17.661   9.530  0.1642 -0.1206  0.0449
  362loPI   C2A 5784  10.247  17.786   9.027  0.3192  0.3227 -0.0679
  362loPI   C3A 5785  10.240  17.748   8.684  0.1545 -0.0778 -0.0416
  362loPI   C4A 5786  10.292  17.862   8.305 -0.0874 -0.1782  0.1107
  362loPI   C5A 5787  10.292  17.806   7.859 -0.0228 -0.0163 -0.3801
  362loPI   C6A 5788  10.169  17.900   7.519  0.3732 -0.2236  0.4480
  362loPI   C1B 5789  10.089  18.111   9.563  0.0486 -0.4451  0.0289
  362loPI   C2B 5790  10.097  18.319   9.165  0.2358  0.3375 -0.0349
  362loPI   C3B 5791  10.116  18.218   8.584 -0.3099  0.1216  0.2150
  362loPI   C4B 5792   9.950  18.197   8.121  0.0919  0.3706  0.2143
  363loPI    C1 5793  13.663  11.594  10.260 -0.1466 -0.0457 -0.1190
  363loPI    C2 5794  13.669  11.217  10.393  0.0205  0.0286  0.0902
  363loPI    C3 5795  13.999  11.379  10.237  0.0034  0.1495  0.1780
  363loPI   PO4 5796  13.369  11.596  10.134 -0.3878  0.0608  0.2202
  363loPI   GL1 5797  13.016  11.637   9.909 -0.0786  0.3925 -0.0347
  363loPI   GL2 5798  13.221  11.871   9.708 -0.0704 -0.0863  0.0267
  363loPI   C1A 5799  13.161  11.366   9.565 -0.2230  0.3284 -0.0684
  363loPI   C2A 5800  13.256  11.257   9.044 -0.0976  0.4003  0.1857
  363loPI   C3A 5801  13.236  11.407   8.697 -0.0089  0.1259  0.2456
  363loPI   C4A 5802  13.155  11.420   8.292  0.0741 -0.1165 -0.0471
  363loPI   C5A 5803  13.464  11.386   7.911 -0.3439 -0.0509 -0.0939
  363loPI   C6A 5804  13.905  11.230   7.920 -0.3136  0.1188  0.1936
  363loPI   C1B 5805  13.249  11.776   9.235 -0.0552  0.0161 -0.1554
  363loPI   C2B 5806  13.301  11.916   8.709  0.2170  0.4343  0.0182
  363loPI   C3B 5807  13.398  11.871   8.269 -0.0642  0.1530  0.1723
  363loPI   C4B 5808  13.139  11.831   7.887 -0.1360 -0.0427  0.0686
  364loPI    C1 5809  10.300   4.805  10.527 -0.0303 -0.1430 -0.0470
  364loPI    C2 5810   9.908   4.886  10.527  0.0428  0.2322  0.1343
  364loPI    C3 5811  10.092   4.790  10.869  0.0540 -0.2468  0.0003
  364loPI   PO4 5812  10.374   4.932  10.358 -0.0082  0.5482  0.1192
  364loPI   GL1 5813  10.431   5.014   9.944  0.3682  0.1545 -0.0478
  364loPI   GL2 5814  10.642   4.689   9.991 -0.0524  0.0538  0.0891
  364loPI   C1A 5815  10.253   4.778   9.590 -0.0747  0.0781 -0.2186
  364loPI   C2A 5816  10.099   4.486   9.216  0.0822 -0.1850 -0.0851
  364loPI   C3A 5817  10.180   4.471   8.803  0.2706  0.2665  0.0250
  364loPI   C4A 5818  10.375   4.399   8.432  0.3021  0.0841  0.0868
  364loPI   C5A 5819  10.709   4.269   7.996 -0.0823 -0.0115 -0.0667
  364loPI   C6A 5820  10.877   3.898   7.838 -0.0675  0.2762  0.0724
  364loPI   C1B 5821  10.673   4.482   9.597  0.0691 -0.2311  0.2932
  364loPI   C2B 5822  10.609   4.390   9.163  0.0497  0.0763 -0.0512
  364loPI   C3B 5823  10.755   4.439   8.788 -0.0749  0.0548  0.2875
  364loPI   C4B 5824  10.866   4.498   8.432 -0.2358  0.0748  0.3340
  365loPI    C1 5825  11.022   8.300  10.575 -0.1890  0.1296  0.0557
  365loPI    C2 5826  11.170   8.457  10.912 -0.3817 -0.1850  0.2923
  365loPI    C3 5827  11.255   8.079  10.813 -0.2159 -0.0534 -0.0860
  365loPI   PO4 5828  11.046   8.501  10.301  0.0990 -0.1850 -0.2649
  365loPI   GL1 5829  10.834   8.626  10.003  0.1797 -0.1980 -0.1073
  365loPI   GL2 5830  10.778   8.919   9.780 -0.0246  0.2411  0.0295
  365loPI   C1A 5831  10.777   8.370   9.608  0.0984 -0.3049 -0.0167
  365loPI   C2A 5832  10.751   7.909   9.603 -0.3880 -0.0698 -0.0692
  365loPI   C3A 5833  10.831   7.627   9.310 -0.1011  0.0782 -0.3703
  365loPI   C4A 5834  10.783   7.601   8.875  0.2745  0.1019 -0.0860
  365loPI   C5A 5835  10.783   7.675   8.477  0.3220 -0.1166 -0.0296
  365loPI   C6A 5836  10.918   7.819   8.003  0.1323  0.2569 -0.0635
  365loPI   C1B 5837  10.642   9.128   9.436  0.0619  0.2945  0.0186
  365loPI   C2B 5838  10.731   9.244   8.938 -0.3944  0.0461  0.2336
  365loPI   C3B 5839  10.710   9.261   8.539  0.2162 -0.2817 -0.1960
  365loPI   C4B 5840  10.661   8.913   8.293  0.1879  0.1297 -0.0600
  366loPI    C1 5841  11.802   1.591  10.740  0.0805  0.0338 -0.0656
  366loPI    C2 5842  12.097   1.437  10.961  0.0893  0.2696  0.0908
  366loPI    C3 5843  11.721   1.429  11.096  0.0304  0.0244 -0.0812
  366loPI   PO4 5844  11.962   1.618  10.475 -0.1638  0.1112 -0.0479
  366loPI   GL1 5845  11.992   1.521  10.141 -0.1852 -0.1306  0.4778
  366loPI   GL2 5846  12.074   1.197  10.026  0.0312  0.0200 -0.2235
  366loPI   C1A 5847  11.700   1.651   9.753 -0.1589  0.0744 -0.1757
  366loPI   C2A 5848  11.744   1.696   9.272 -0.2665  0.1011  0.1677
  366loPI   C3A 5849  11.815   1.717   8.797  0.1748 -0.0976 -0.0964
  366loPI   C4A 5850  11.889   1.771   8.378 -0.1272  0.0923 -0.3434
  366loPI   C5A 5851  11.911   1.733   7.967  0.1195  0.0551 -0.1929
  366loPI   C6A 5852  11.786   1.743   7.590 -0.2253  0.1401  0.2655
  366loPI   C1B 5853  11.942   1.222   9.604 -0.1412  0.0300  0.2566
  366loPI   C2B 5854  11.916   1.280   9.042 -0.1721  0.1381  0.1711
  366loPI   C3B 5855  11.923   1.257   8.566  0.0042  0.3088  0.1283
  366loPI   C4B 5856  11.949   1.306   8.157  0.0363  0.2297 -0.0171
  367loPI    C1 5857   8.479   4.664  10.562 -0.1640 -0.1183  0.0849
  367loPI    C2 5858   8.581   4.332  10.761  0.1110  0.0535  0.2377
  367loPI    C3 5859   8.412   4.638  10.956  0.0330  0.0771  0.1336
  367loPI   PO4 5860   8.299   4.593  10.332  0.2156  0.3167 -0.1538
  367loPI   GL1 5861   8.085   4.641   9.881  0.0956  0.2492 -0.2193
  367loPI   GL2 5862   8.367   4.764   9.722 -0.1126  0.3855  0.2223
  367loPI   C1A 5863   7.868   4.864   9.476 -0.4189 -0.1283 -0.0484
  367loPI   C2A 5864   7.779   4.771   9.074  0.0858  0.1495  0.0328
  367loPI   C3A 5865   7.832   4.662   8.547  0.1559  0.1130 -0.1021
  367loPI   C4A 5866   7.895   4.705   8.105 -0.0739 -0.0074 -0.1173
  367loPI   C5A 5867   7.852   4.532   7.673 -0.2656  0.2626 -0.1015
  367loPI   C6A 5868   8.194   4.567   7.314 -0.0107  0.1055  0.2612
  367loPI   C1B 5869   8.305   4.458   9.396  0.2186  0.0367 -0.0645
  367loPI   C2B 5870   8.296   4.521   8.956 -0.2108 -0.0328  0.4093
  367loPI   C3B 5871   8.311   4.572   8.493  0.0488 -0.2805  0.0176
  367loPI   C4B 5872   8.255   5.017   8.318  0.1649  0.3115  0.1152
  368loPI    C1 5873   0.794   9.181  10.273  0.0184  0.0630  0.1482
  368loPI    C2 5874   0.529   9.479  10.255  0.0031  0.0440  0.0530
  368loPI    C3 5875   0.520   9.222  10.561 -0.1924 -0.0536 -0.0328
  368loPI   PO4 5876   1.006   9.286  10.131  0.1808  0.3654 -0.2467
  368loPI   GL1 5877   1.113   9.042   9.780  0.0035  0.0492 -0.1136
  368loPI   GL2 5878   0.793   8.841   9.747 -0.0230 -0.0742  0.0125
  368loPI   C1A 5879   1.424   9.016   9.400  0.1433  0.2604  0.0122
  368loPI   C2A 5880   1.528   8.937   9.053 -0.0298  0.1295 -0.1436
  368loPI   C3A 5881   1.433   9.102   8.685 -0.2597  0.0227  0.2354
  368loPI   C4A 5882   1.370   9.043   8.281 -0.0237  0.0712 -0.1354
  368loPI   C5A 5883   1.367   9.319   7.904  0.1265  0.2699 -0.2039
  368loPI   C6A 5884   1.324   9.511   7.463 -0.2495 -0.1126  0.1607
  368loPI   C1B 5885   0.721   9.036   9.355 -0.0731  0.0066 -0.1169
  368loPI   C2B 5886   0.512   9.038   8.985  0.0459  0.0741  0.3933
  368loPI   C3B 5887   0.520   9.216   8.563 -0.1704 -0.1679  0.0378
  368loPI   C4B 5888   0.459   9.345   8.201  0.0037  0.2833  0.0968
  369loPI    C1 5889   2.244   5.995  10.156  0.1514  0.0645 -0.0147
  369loPI    C2 5890   2.222   6.155  10.522  0.2018 -0.0491  0.0387
  369loPI    C3 5891   2.579   6.078  10.359  0.1881  0.3185 -0.1754
  369loPI   PO4 5892   2.069   6.236  10.048  0.0498 -0.3461  0.3348
  369loPI   GL1 5893   2.113   6.589   9.807  0.1317  0.0445 -0.0565
  369loPI   GL2 5894   2.301   6.608   9.628 -0.0740  0.3927 -0.1139
  369loPI   C1A 5895   1.906   6.689   9.337  0.2115 -0.4248 -0.1617
  369loPI   C2A 5896   2.014   6.794   8.950  0.1995 -0.3565 -0.0533
  369loPI   C3A 5897   2.047   6.947   8.446 -0.2910 -0.4760 -0.4027
  369loPI   C4A 5898   2.241   7.038   8.033  0.1335 -0.1037  0.0400
  369loPI   C5A 5899   2.337   7.145   7.500  0.0209 -0.1511 -0.2692
  369loPI   C6A 5900   2.347   6.861   7.125  0.0058  0.1945  0.1824
  369loPI   C1B 5901   2.244   6.359   9.222  0.2582  0.1418 -0.0599
  369loPI   C2B 5902   2.409   6.403   8.811 -0.1037 -0.4595 -0.0438
  369loPI   C3B 5903   2.571   6.578   8.362 -0.0692 -0.1933 -0.1227
  369loPI   C4B 5904   2.616   6.585   7.927 -0.1259 -0.1243  0.1267
  370loPI    C1 5905   9.642   8.964  10.495 -0.3115 -0.0107 -0.0127
  370loPI    C2 5906   9.644   8.580  10.607  0.1043  0.0650  0.2606
  370loPI    C3 5907   9.763   8.863  10.863  0.0899  0.3475 -0.0391
  370loPI   PO4 5908   9.424   8.896  10.224 -0.2310 -0.1638 -0.2958
  370loPI   GL1 5909   9.363   8.792   9.871  0.1454 -0.0928 -0.1164
  370loPI   GL2 5910   9.404   9.082   9.683 -0.2806 -0.3214  0.1346
  370loPI   C1A 5911   9.764   8.637   9.636  0.1671  0.0230  0.2197
  370loPI   C2A 5912   9.886   8.644   9.134 -0.2607  0.0224  0.0797
  370loPI   C3A 5913   9.840   8.662   8.711 -0.1776 -0.0575 -0.3972
  370loPI   C4A 5914   9.887   8.368   8.401  0.1677 -0.3134 -0.0415
  370loPI   C5A 5915   9.854   8.221   8.042  0.0576  0.0856 -0.0147
  370loPI   C6A 5916   9.665   8.503   7.588  0.0930 -0.0184  0.0676
  370loPI   C1B 5917   9.398   8.856   9.351 -0.0231 -0.2014 -0.1123
  370loPI   C2B 5918   9.366   8.652   8.970  0.2806 -0.2168  0.1307
  370loPI   C3B 5919   9.350   8.535   8.533  0.2844  0.1723 -0.2291
  370loPI   C4B 5920   9.397   8.411   8.075 -0.0517 -0.0163 -0.0377
  371loPI    C1 5921  11.690   4.049  10.648 -0.0523  0.0085 -0.2632
  371loPI    C2 5922  11.735   3.931  10.268  0.1899 -0.0166 -0.2282
  371loPI    C3 5923  12.044   3.912  10.522  0.0091 -0.0718 -0.0090
  371loPI   PO4 5924  11.462   4.318  10.525  0.1014 -0.0803 -0.2730
  371loPI   GL1 5925  11.290   4.455  10.228  0.1691 -0.1047 -0.1420
  371loPI   GL2 5926  10.978   4.361  10.126 -0.3709 -0.2385 -0.0554
  371loPI   C1A 5927  11.534   4.756   9.883  0.3021 -0.0053  0.2489
  371loPI   C2A 5928  11.670   4.547   9.480 -0.1700 -0.0936 -0.0410
  371loPI   C3A 5929  11.663   4.525   9.101  0.0979 -0.0444  0.0970
  371loPI   C4A 5930  11.328   4.310   8.938  0.1462  0.1042 -0.0539
  371loPI   C5A 5931  11.193   4.195   8.603  0.0911 -0.0867  0.2508
  371loPI   C6A 5932  11.184   4.131   8.188 -0.0938 -0.1232  0.0641
  371loPI   C1B 5933  11.261   4.257   9.790  0.0165 -0.1415  0.1321
  371loPI   C2B 5934  11.458   4.099   9.529 -0.0839  0.0713  0.1488
  371loPI   C3B 5935  11.712   3.991   9.259 -0.0630  0.1072  0.3051
  371loPI   C4B 5936  11.783   4.096   8.887 -0.1210 -0.2395  0.1347
  372loPI    C1 5937  10.289   7.494  10.615  0.1856 -0.0145  0.3149
  372loPI    C2 5938  10.623   7.387  10.807  0.1883 -0.3942  0.1075
  372loPI    C3 5939  10.297   7.155  10.827 -0.0213 -0.0985  0.1921
  372loPI   PO4 5940  10.404   7.558  10.362 -0.3070 -0.2710 -0.0492
  372loPI   GL1 5941  10.515   7.625  10.000 -0.0813 -0.0319  0.3251
  372loPI   GL2 5942  10.290   7.840   9.843  0.2555  0.0885  0.0527
  372loPI   C1A 5943  10.439   7.425   9.570  0.0420 -0.2636  0.0395
  372loPI   C2A 5944  10.394   7.248   9.190 -0.2659 -0.0902  0.0298
  372loPI   C3A 5945  10.449   7.099   8.808  0.1509 -0.1602 -0.0773
  372loPI   C4A 5946  10.405   7.293   8.382 -0.1072  0.1695 -0.0722
  372loPI   C5A 5947  10.490   7.500   8.135  0.1127 -0.1278  0.4018
  372loPI   C6A 5948  10.392   7.949   7.936  0.6108  0.0285 -0.1879
  372loPI   C1B 5949  10.006   7.667   9.462 -0.2085 -0.0238  0.0994
  372loPI   C2B 5950  10.091   7.694   9.083 -0.0329 -0.2283 -0.0706
  372loPI   C3B 5951  10.190   7.620   8.780 -0.0082 -0.0444  0.2158
  372loPI   C4B 5952  10.085   7.831   8.381 -0.0337 -0.0773  0.3523
  373loPI    C1 5953  15.851   3.055  10.831 -0.0957 -0.0399  0.0333
  373loPI    C2 5954  16.004   3.285  11.120  0.0226  0.1968 -0.2134
  373loPI    C3 5955  16.000   2.887  11.162  0.1084  0.2243  0.0787
  373loPI   PO4 5956  15.816   3.315  10.651  0.1849  0.1307  0.2941
  373loPI   GL1 5957  15.641   3.330  10.196  0.2252  0.1904 -0.2312
  373loPI   GL2 5958  15.594   2.996   9.910  0.0538  0.1246  0.0847
  373loPI   C1A 5959  15.386   3.392   9.753 -0.1213  0.2219 -0.0037
  373loPI   C2A 5960  15.010   3.604   9.578 -0.0741  0.1609  0.0442
  373loPI   C3A 5961  14.790   3.663   9.265 -0.2936  0.2480  0.0255
  373loPI   C4A 5962  14.510   3.732   8.857 -0.3339  0.0938  0.2897
  373loPI   C5A 5963  14.468   3.730   8.462 -0.0146  0.2668  0.1235
  373loPI   C6A 5964  14.585   3.793   8.067  0.0292  0.0510  0.0861
  373loPI   C1B 5965  15.721   2.935   9.441  0.3236 -0.1352 -0.2965
  373loPI   C2B 5966  15.685   2.917   9.008 -0.1910 -0.2595  0.2887
  373loPI   C3B 5967  15.633   2.898   8.560 -0.1394  0.1439  0.1612
  373loPI   C4B 5968  15.665   3.060   8.247 -0.2562 -0.2952  0.2180
  374loPI    C1 5969  13.753   4.364  10.033 -0.3048  0.0095  0.0355
  374loPI    C2 5970  13.731   4.247  10.415  0.0748  0.0563  0.0756
  374loPI    C3 5971  13.722   3.975  10.122  0.0583 -0.0016  0.1296
  374loPI   PO4 5972  13.962   4.524  10.001 -0.2171  0.3675  0.2243
  374loPI   GL1 5973  13.991   4.780   9.644  0.1586  0.0038 -0.0129
  374loPI   GL2 5974  14.031   5.128   9.607  0.1094 -0.0458  0.5733
  374loPI   C1A 5975  14.180   4.778   9.270 -0.0474 -0.3141 -0.1553
  374loPI   C2A 5976  13.960   4.773   8.809 -0.2960  0.0078 -0.1005
  374loPI   C3A 5977  13.926   4.872   8.354 -0.2413  0.2990  0.0509
  374loPI   C4A 5978  13.705   4.871   7.930  0.1461  0.2557 -0.0672
  374loPI   C5A 5979  13.792   4.853   7.479 -0.2639 -0.1805  0.1836
  374loPI   C6A 5980  13.965   4.787   7.146  0.0950 -0.1565  0.0007
  374loPI   C1B 5981  13.749   4.990   9.222 -0.0118 -0.1915  0.0243
  374loPI   C2B 5982  13.583   5.116   8.809  0.0964  0.3279 -0.1477
  374loPI   C3B 5983  13.461   5.154   8.452 -0.1108 -0.1193  0.0323
  374loPI   C4B 5984  13.266   5.224   8.021  0.0221  0.0423 -0.0490
  375loPI    C1 5985  14.615   7.292  10.176  0.0959  0.0800 -0.0404
  375loPI    C2 5986  14.247   7.323  10.023  0.0639  0.1782  0.0551
  375loPI    C3 5987  14.323   7.051  10.306  0.1064  0.0432 -0.0847
  375loPI   PO4 5988  14.735   7.267   9.901 -0.0057 -0.2068 -0.1920
  375loPI   GL1 5989  14.751   7.272   9.483  0.0030  0.1024 -0.0589
  375loPI   GL2 5990  15.011   7.085   9.352 -0.0535  0.0719 -0.0837
  375loPI   C1A 5991  14.609   7.350   9.099  0.0676 -0.2116  0.2905
  375loPI   C2A 5992  14.486   7.535   8.677 -0.2144 -0.1086  0.3163
  375loPI   C3A 5993  14.473   7.814   8.443 -0.1377 -0.1356 -0.1627
  375loPI   C4A 5994  14.590   7.980   8.029 -0.0084  0.3222 -0.1473
  375loPI   C5A 5995  14.318   7.982   7.671 -0.0583 -0.1899 -0.0219
  375loPI   C6A 5996  13.901   8.017   7.384 -0.0003  0.0076 -0.0966
  375loPI   C1B 5997  15.061   7.052   8.942 -0.0756 -0.2916  0.0180
  375loPI   C2B 5998  15.002   7.341   8.563 -0.1377 -0.0703  0.0626
  375loPI   C3B 5999  14.961   7.795   8.377  0.2622  0.0532 -0.0839
  375loPI   C4B 6000  14.941   8.205   8.575 -0.0656 -0.1268 -0.2245
  376loPI    C1 6001   1.660  13.399  10.590  0.2000  0.2359 -0.0163
  376loPI    C2 6002   1.392  13.677  10.695 -0.2705 -0.0965 -0.2955
  376loPI    C3 6003   1.538  13.426  10.970 -0.0213  0.2649 -0.0881
  376loPI   PO4 6004   1.632  13.259  10.342 -0.0270  0.3091  0.1602
  376loPI   GL1 6005   1.753  13.219   9.866 -0.1255 -0.3115  0.1390
  376loPI   GL2 6006   1.719  13.493   9.693 -0.1743 -0.3776  0.0108
  376loPI   C1A 6007   1.520  13.022   9.411  0.2431  0.0214  0.1419
  376loPI   C2A 6008   1.536  13.029   9.048 -0.1335  0.2855 -0.2440
  376loPI   C3A 6009   1.539  13.049   8.630  0.1668  0.2347  0.0035
  376loPI   C4A 6010   1.547  13.028   8.165 -0.0970 -0.3074 -0.3388
  376loPI   C5A 6011   1.583  13.052   7.752  0.2168  0.3304 -0.3891
  376loPI   C6A 6012   1.843  13.429   7.503 -0.1211  0.3819 -0.0956
  376loPI   C1B 6013   1.647  13.579   9.253 -0.0990 -0.0955  0.0361
  376loPI   C2B 6014   1.711  13.487   8.792 -0.2709 -0.1725  0.0349
  376loPI   C3B 6015   1.638  13.486   8.436 -0.0756  0.1496 -0.0673
  376loPI   C4B 6016   1.669  13.481   7.951 -0.0719 -0.0475 -0.3474
  377loPI    C1 6017  18.111   5.741  10.259 -0.0585 -0.0547  0.1443
  377loPI    C2 6018  18.394   5.858  10.516 -0.0387  0.1486  0.0323
  377loPI    C3 6019  18.009   5.917  10.603 -0.0298  0.2753 -0.0119
  377loPI   PO4 6020  18.288   5.771  10.027  0.3259  0.0808 -0.1921
  377loPI   GL1 6021  18.427   5.700   9.685  0.0699 -0.0128 -0.2763
  377loPI   GL2 6022  18.712   5.964   9.657 -0.0415  0.0193 -0.0032
  377loPI   C1A 6023  18.363   5.592   9.362 -0.0203  0.4267 -0.0810
  377loPI   C2A 6024  18.148   5.534   8.990  0.2955 -0.3589  0.1567
  377loPI   C3A 6025  17.888   5.653   8.591 -0.2200  0.1965  0.0154
  377loPI   C4A 6026  17.639   5.532   8.206  0.1319  0.0201  0.3343
  377loPI   C5A 6027  17.371   5.544   7.927  0.0582 -0.0190 -0.2753
  377loPI   C6A 6028  17.008   5.432   7.796  0.2518 -0.0182  0.2222
  377loPI   C1B 6029  18.796   5.891   9.229  0.0213 -0.2365 -0.0003
  377loPI   C2B 6030  18.828   5.706   8.783 -0.2181 -0.0243 -0.0004
  377loPI   C3B 6031  18.946   5.767   8.337 -0.2601 -0.4192  0.2713
  377loPI   C4B 6032  18.899   5.780   7.873  0.1450 -0.2221  0.0112
  378loPI    C1 6033   6.710  13.026  10.242 -0.3821  0.0395 -0.0489
  378loPI    C2 6034   6.823  13.399  10.333 -0.2246 -0.0618  0.1775
  378loPI    C3 6035   6.499  13.240  10.506 -0.3462  0.0015  0.0107
  378loPI   PO4 6036   6.756  12.927  10.019  0.0627 -0.0569  0.0771
  378loPI   GL1 6037   6.855  13.068   9.579  0.0769 -0.0766 -0.2812
  378loPI   GL2 6038   7.176  13.049   9.660 -0.0223  0.4545 -0.0205
  378loPI   C1A 6039   6.755  13.013   9.161  0.0225 -0.2935  0.0061
  378loPI   C2A 6040   6.630  13.081   8.699 -0.1611 -0.2684 -0.0100
  378loPI   C3A 6041   6.604  13.069   8.253 -0.0070  0.4013 -0.0203
  378loPI   C4A 6042   6.533  13.277   7.846  0.1555  0.0332  0.1299
  378loPI   C5A 6043   6.581  13.672   7.751  0.3391  0.0667 -0.2432
  378loPI   C6A 6044   6.285  14.004   7.620  0.0468 -0.3125  0.1363
  378loPI   C1B 6045   7.240  13.125   9.261 -0.1623 -0.0476  0.2275
  378loPI   C2B 6046   7.146  13.235   8.888  0.2591 -0.0911 -0.0252
  378loPI   C3B 6047   7.091  13.251   8.451 -0.0290  0.0150  0.0802
  378loPI   C4B 6048   7.063  13.317   8.045  0.0401 -0.2092  0.5527
  379loPI    C1 6049  15.551  15.650  10.024 -0.0412 -0.0000 -0.0088
  379loPI    C2 6050  15.429  15.886  10.323  0.0182 -0.0428  0.0496
  379loPI    C3 6051  15.567  15.519  10.401 -0.0663 -0.0942 -0.0403
  379loPI   PO4 6052  15.571  15.846   9.820 -0.2304 -0.0898 -0.0303
  379loPI   GL1 6053  15.425  16.101   9.507  0.0682 -0.1297 -0.0296
  379loPI   GL2 6054  15.159  16.269   9.519 -0.0675  0.1998  0.1052
  379loPI   C1A 6055  15.451  15.980   9.139  0.1393  0.0245  0.2923
  379loPI   C2A 6056  15.317  15.620   8.860  0.0685  0.2606 -0.0497
  379loPI   C3A 6057  15.533  15.584   8.430  0.0323 -0.0974 -0.1549
  379loPI   C4A 6058  15.525  15.478   8.013 -0.0139 -0.0308 -0.1105
  379loPI   C5A 6059  15.347  15.779   7.745 -0.0257  0.1747  0.0331
  379loPI   C6A 6060  15.453  16.034   7.474  0.0392 -0.0253 -0.2193
  379loPI   C1B 6061  15.551  16.595   9.267 -0.1771  0.2558 -0.1660
  379loPI   C2B 6062  15.859  16.381   8.925 -0.2960  0.1401  0.0032
  379loPI   C3B 6063  16.112  16.364   8.516  0.3445 -0.2304  0.1953
  379loPI   C4B 6064  16.268  16.280   8.089 -0.3834  0.1416  0.0626
  380loPI    C1 6065   4.080  12.752  10.592  0.0622 -0.1710 -0.1172
  380loPI    C2 6066   3.881  12.416  10.680 -0.0400  0.0035  0.3471
  380loPI    C3 6067   3.758  12.766  10.830  0.0675  0.2529 -0.1269
  380loPI   PO4 6068   4.057  12.794  10.363  0.0946  0.1670  0.4466
  380loPI   GL1 6069   4.204  12.816   9.958 -0.0970  0.1917 -0.0580
  380loPI   GL2 6070   4.397  12.634   9.962 -0.0496  0.0859 -0.1542
  380loPI   C1A 6071   3.892  12.924   9.564 -0.1358  0.1057  0.1987
  380loPI   C2A 6072   3.895  12.882   9.111 -0.0314 -0.1659 -0.0424
  380loPI   C3A 6073   3.891  12.847   8.650 -0.0200 -0.1100 -0.0082
  380loPI   C4A 6074   3.987  12.897   8.260 -0.0076 -0.2020 -0.1224
  380loPI   C5A 6075   4.190  12.967   7.806 -0.0404  0.4655 -0.0196
  380loPI   C6A 6076   4.073  12.829   7.410  0.1863 -0.2823 -0.1338
  380loPI   C1B 6077   4.308  12.633   9.472  0.2597 -0.2056 -0.1777
  380loPI   C2B 6078   4.271  12.599   8.933 -0.0974  0.1995 -0.1270
  380loPI   C3B 6079   4.222  12.429   8.488 -0.1918  0.0614 -0.1450
  380loPI   C4B 6080   4.184  12.419   8.032 -0.0227  0.0184 -0.1440
  381loPI    C1 6081   8.948   1.584  10.177 -0.0273  0.3190  0.0664
  381loPI    C2 6082   8.807   1.364  10.480 -0.0226  0.2171 -0.0049
  381loPI    C3 6083   8.562   1.609  10.280 -0.0800  0.1064 -0.0716
  381loPI   PO4 6084   9.074   1.460  10.037  0.0044  0.1970  0.3285
  381loPI   GL1 6085   9.340   1.523   9.758  0.0420 -0.0937  0.0951
  381loPI   GL2 6086   9.095   1.535   9.542  0.0621  0.1220 -0.1051
  381loPI   C1A 6087   9.508   1.383   9.399  0.2310 -0.2404  0.0209
  381loPI   C2A 6088   9.481   1.434   9.018 -0.4437 -0.2005 -0.0093
  381loPI   C3A 6089   9.478   1.304   8.601  0.2915  0.0435 -0.0302
  381loPI   C4A 6090   9.596   1.382   8.175 -0.2632  0.1574 -0.2231
  381loPI   C5A 6091   9.582   1.147   7.693  0.2606 -0.0799  0.3450
  381loPI   C6A 6092   9.257   1.224   7.447  0.2318  0.1648 -0.0117
  381loPI   C1B 6093   9.409   1.891   9.345 -0.1362  0.1786  0.0366
  381loPI   C2B 6094   9.420   1.970   8.962  0.2450 -0.2603  0.0948
  381loPI   C3B 6095   9.382   1.943   8.464  0.0816 -0.0536  0.1551
  381loPI   C4B 6096   9.385   2.027   7.936 -0.1375 -0.0478 -0.1635
  382loPI    C1 6097   4.146  14.392  10.459 -0.1021 -0.0157  0.0916
  382loPI    C2 6098   4.513  14.363  10.614 -0.0429 -0.0856 -0.0597
  382loPI    C3 6099   4.224  14.551  10.817  0.1104  0.0859  0.0017
  382loPI   PO4 6100   4.156  14.180  10.295  0.2173  0.0476 -0.2410
  382loPI   GL1 6101   4.173  14.149   9.885  0.0572 -0.1508 -0.0473
  382loPI   GL2 6102   4.134  13.811   9.913 -0.1932 -0.0189  0.0578
  382loPI   C1A 6103   4.317  14.357   9.571  0.1268  0.1661  0.3686
  382loPI   C2A 6104   4.189  14.486   9.223  0.1742  0.0802  0.1843
  382loPI   C3A 6105   4.066  14.430   8.778 -0.0058  0.4139 -0.0852
  382loPI   C4A 6106   4.077  14.472   8.376  0.2130  0.1626  0.0795
  382loPI   C5A 6107   4.378  14.747   8.179  0.2396 -0.1417 -0.0939
  382loPI   C6A 6108   4.594  14.950   7.815  0.0387  0.3214 -0.0605
  382loPI   C1B 6109   4.137  13.846   9.354 -0.1399 -0.0496 -0.0466
  382loPI   C2B 6110   3.922  13.796   8.955 -0.0733 -0.0132 -0.0918
  382loPI   C3B 6111   4.124  13.873   8.596  0.0504  0.0693 -0.5691
  382loPI   C4B 6112   4.120  13.898   8.157  0.0174  0.1243  0.1054
  383loPI    C1 6113   4.549   4.298  10.146  0.0077 -0.1224  0.0524
  383loPI    C2 6114   4.243   4.542  10.061 -0.0173 -0.1397  0.0929
  383loPI    C3 6115   4.338   4.464  10.442  0.1644  0.0246  0.0830
  383loPI   PO4 6116   4.739   4.358  10.021  0.1667 -0.1737 -0.1530
  383loPI   GL1 6117   4.679   4.411   9.593  0.0350 -0.0690  0.2430
  383loPI   GL2 6118   4.577   4.750   9.738  0.2039 -0.2073 -0.0966
  383loPI   C1A 6119   4.724   4.381   9.131 -0.0098  0.1857 -0.1303
  383loPI   C2A 6120   4.724   4.368   8.674  0.4867  0.3620  0.1001
  383loPI   C3A 6121   4.763   4.320   8.223 -0.1138 -0.2703  0.0062
  383loPI   C4A 6122   4.659   4.315   7.731  0.1232 -0.2232 -0.0162
  383loPI   C5A 6123   4.304   4.009   7.465 -0.2028  0.0168  0.1471
  383loPI   C6A 6124   4.188   3.479   7.775  0.0944  0.0221 -0.1774
  383loPI   C1B 6125   4.548   4.824   9.345 -0.0324  0.0045  0.2144
  383loPI   C2B 6126   4.634   4.837   8.944 -0.0154 -0.4225  0.0035
  383loPI   C3B 6127   4.643   4.804   8.536  0.1979  0.2126 -0.1398
  383loPI   C4B 6128   4.577   4.815   8.030  0.0415  0.0950  0.0293
  384loPI    C1 6129   6.784   7.741  10.271 -0.3571 -0.0014 -0.1199
  384loPI    C2 6130   6.479   7.817  10.518 -0.1756  0.2005  0.0458
  384loPI    C3 6131   6.812   8.038  10.537  0.0336 -0.1007 -0.0436
  384loPI   PO4 6132   6.726   7.740  10.037 -0.0883 -0.1531 -0.2363
  384loPI   GL1 6133   6.681   7.808   9.622  0.1017  0.1148  0.1154
  384loPI   GL2 6134   6.814   7.481   9.546 -0.3336  0.2076  0.1300
  384loPI   C1A 6135   7.137   7.788   9.352 -0.1071 -0.3898  0.1275
  384loPI   C2A 6136   7.369   7.753   9.021 -0.1780 -0.0530 -0.2056
  384loPI   C3A 6137   7.507   7.595   8.718 -0.0539  0.1669  0.2711
  384loPI   C4A 6138   7.660   7.498   8.257 -0.1367 -0.1763 -0.0812
  384loPI   C5A 6139   7.750   7.742   7.907  0.1070 -0.1241 -0.1769
  384loPI   C6A 6140   8.145   7.864   7.654  0.0062  0.0277 -0.2519
  384loPI   C1B 6141   6.667   7.453   9.063  0.0141  0.1355  0.0373
  384loPI   C2B 6142   6.761   7.684   8.716 -0.1333 -0.3025  0.1201
  384loPI   C3B 6143   6.674   7.891   8.313 -0.1642  0.2122 -0.3456
  384loPI   C4B 6144   6.940   8.122   8.001  0.4970 -0.1013 -0.0547
  385loPI    C1 6145   4.872   3.578  10.854 -0.0190 -0.0073 -0.0034
  385loPI    C2 6146   4.708   3.340  11.130 -0.1559 -0.0095 -0.0855
  385loPI    C3 6147   5.052   3.530  11.208 -0.1341 -0.1002  0.0428
  385loPI   PO4 6148   4.601   3.703  10.699 -0.0023  0.0891  0.0891
  385loPI   GL1 6149   4.529   3.513  10.330  0.3275  0.0002  0.2756
  385loPI   GL2 6150   4.672   3.829  10.175 -0.0209  0.3064  0.3102
  385loPI   C1A 6151   4.466   3.575   9.774 -0.0149 -0.2408  0.0005
  385loPI   C2A 6152   4.516   3.579   9.431  0.2147  0.2371 -0.0221
  385loPI   C3A 6153   4.398   3.533   9.071  0.3735  0.1053 -0.0953
  385loPI   C4A 6154   4.426   3.501   8.680 -0.0075  0.2214 -0.1876
  385loPI   C5A 6155   4.420   3.506   8.187  0.1620  0.3883  0.1862
  385loPI   C6A 6156   4.662   3.663   7.796  0.1803 -0.0783  0.0689
  385loPI   C1B 6157   4.836   3.881   9.645  0.2168  0.2433  0.0106
  385loPI   C2B 6158   4.899   3.835   9.175 -0.2310  0.0490  0.2525
  385loPI   C3B 6159   4.805   3.878   8.711  0.1591  0.0815 -0.2007
  385loPI   C4B 6160   4.828   3.806   8.227  0.0238  0.0678 -0.1938
  386loPI    C1 6161  16.887   6.360  10.302  0.1891  0.0104  0.2413
  386loPI    C2 6162  16.605   6.643  10.280  0.0939 -0.1045 -0.0848
  386loPI    C3 6163  16.543   6.316  10.502  0.0029 -0.0935 -0.0934
  386loPI   PO4 6164  16.998   6.368  10.031  0.0314 -0.0487 -0.0253
  386loPI   GL1 6165  17.172   6.615   9.769 -0.0380 -0.0535 -0.0991
  386loPI   GL2 6166  17.443   6.764   9.798  0.1318  0.0247  0.1064
  386loPI   C1A 6167  17.270   6.890   9.368  0.0899 -0.1404  0.1369
  386loPI   C2A 6168  17.368   6.948   8.875  0.2593  0.0766 -0.0633
  386loPI   C3A 6169  17.528   6.499   8.562  0.2342 -0.4338 -0.2198
  386loPI   C4A 6170  17.695   6.377   8.128 -0.1229  0.0036  0.1431
  386loPI   C5A 6171  17.757   6.327   7.751  0.1044 -0.1213  0.1389
  386loPI   C6A 6172  18.175   6.280   7.516  0.1082  0.3208  0.1126
  386loPI   C1B 6173  17.566   6.500   9.426  0.2231 -0.1316 -0.1656
  386loPI   C2B 6174  17.415   6.487   9.046  0.1525  0.0807  0.1856
  386loPI   C3B 6175  17.109   6.219   8.865 -0.1187  0.3227  0.0319
  386loPI   C4B 6176  16.989   6.095   8.500  0.0618  0.1629 -0.1550
  387loPI    C1 6177  10.183  14.269  10.398 -0.0589 -0.0502  0.0910
  387loPI    C2 6178   9.837  14.085  10.476 -0.0507 -0.1564 -0.1168
  387loPI    C3 6179  10.061  14.225  10.776 -0.1353 -0.3409  0.0347
  387loPI   PO4 6180  10.289  14.109  10.230 -0.1108 -0.2574 -0.3449
  387loPI   GL1 6181  10.225  13.986   9.776 -0.0773 -0.1322 -0.0648
  387loPI   GL2 6182  10.508  13.903   9.593  0.2290 -0.0716 -0.1166
  387loPI   C1A 6183  10.133  14.201   9.415  0.0107 -0.1175 -0.2061
  387loPI   C2A 6184   9.922  14.312   9.011 -0.1698 -0.0998  0.1972
  387loPI   C3A 6185   9.804  14.272   8.581  0.2761 -0.2619  0.0655
  387loPI   C4A 6186   9.784  14.370   8.202 -0.2298 -0.3746 -0.1139
  387loPI   C5A 6187   9.883  14.628   7.763  0.2171 -0.1018 -0.0011
  387loPI   C6A 6188  10.146  14.477   7.399  0.3215  0.0868 -0.0844
  387loPI   C1B 6189  10.456  13.934   9.133 -0.2183 -0.0493 -0.0744
  387loPI   C2B 6190  10.410  13.982   8.709  0.2466  0.0949  0.2922
  387loPI   C3B 6191  10.257  14.099   8.294  0.1360  0.2342  0.1426
  387loPI   C4B 6192  10.508  14.134   7.907 -0.0151 -0.4573  0.1717
  388loPI    C1 6193  10.969   2.575  11.141  0.0673 -0.0170  0.1008
  388loPI    C2 6194  10.580   2.599  11.232  0.0633 -0.0183  0.0847
  388loPI    C3 6195  10.841   2.465  11.504  0.0599  0.0323  0.1133
  388loPI   PO4 6196  10.957   2.522  10.901 -0.0547  0.1143  0.0921
  388loPI   GL1 6197  10.753   2.575  10.528 -0.0752  0.1235 -0.1102
  388loPI   GL2 6198  10.994   2.645  10.289  0.0598 -0.0331 -0.1733
  388loPI   C1A 6199  10.634   2.462  10.052  0.5303 -0.4356  0.1170
  388loPI   C2A 6200  10.646   2.475   9.617 -0.0538 -0.0611  0.0312
  388loPI   C3A 6201  10.733   2.436   9.211 -0.1290  0.0918  0.3455
  388loPI   C4A 6202  10.666   2.456   8.794  0.4040  0.0586  0.3102
  388loPI   C5A 6203  10.689   2.530   8.393 -0.0385  0.3360 -0.0337
  388loPI   C6A 6204  10.555   2.773   8.089  0.0615  0.1746  0.1849
  388loPI   C1B 6205  11.069   2.816   9.883  0.1326  0.1338 -0.1757
  388loPI   C2B 6206  11.082   2.766   9.450 -0.1531  0.1744  0.1336
  388loPI   C3B 6207  11.157   2.835   8.976 -0.1696  0.0056  0.2140
  388loPI   C4B 6208  11.061   2.803   8.566 -0.0090  0.0427  0.3153
  389loPI    C1 6209  17.576  17.007   9.787 -0.1721  0.1709 -0.0627
  389loPI    C2 6210  17.926  17.166   9.899  0.0047 -0.1037 -0.2119
  389loPI    C3 6211  17.589  17.380   9.929  0.1716  0.1330  0.0139
  389loPI   PO4 6212  17.537  16.829   9.597  0.3033  0.0378 -0.0308
  389loPI   GL1 6213  17.348  16.629   9.167  0.0044  0.1554 -0.1698
  389loPI   GL2 6214  17.438  17.010   9.143 -0.2409  0.3827  0.3133
  389loPI   C1A 6215  17.058  16.808   8.790 -0.1892  0.1848 -0.0345
  389loPI   C2A 6216  17.012  16.970   8.368  0.0645 -0.0066 -0.1873
  389loPI   C3A 6217  17.113  17.243   8.028  0.1080  0.1066  0.1219
  389loPI   C4A 6218  17.514  17.362   8.095  0.0670  0.0222  0.2001
  389loPI   C5A 6219  17.813  17.682   7.914  0.2662 -0.2587  0.0181
  389loPI   C6A 6220  18.123  17.928   7.927 -0.0248  0.3087 -0.1038
  389loPI   C1B 6221  17.164  17.256   8.757 -0.0100 -0.0631  0.2766
  389loPI   C2B 6222  17.214  17.574   8.449 -0.1462 -0.1581  0.1083
  389loPI   C3B 6223  17.052  17.746   8.047  0.4036 -0.2092  0.1699
  389loPI   C4B 6224  16.901  17.666   7.609  0.1419  0.0094  0.0204
  390loPI    C1 6225   9.133   3.157  10.554  0.0399  0.0089 -0.0023
  390loPI    C2 6226   9.443   3.087  10.798  0.1191  0.0022 -0.1042
  390loPI    C3 6227   9.173   3.366  10.893  0.0366 -0.1416  0.0918
  390loPI   PO4 6228   9.303   3.115  10.274 -0.1311  0.1920 -0.1053
  390loPI   GL1 6229   9.486   2.695  10.053 -0.1602  0.0377  0.3317
  390loPI   GL2 6230   9.186   2.760   9.962  0.0664 -0.1528  0.0839
  390loPI   C1A 6231   9.751   2.739   9.722 -0.2138 -0.0163  0.3232
  390loPI   C2A 6232   9.707   2.725   9.296 -0.0964  0.2949 -0.0255
  390loPI   C3A 6233   9.643   2.832   8.840 -0.0149  0.0144  0.2198
  390loPI   C4A 6234   9.685   2.750   8.388 -0.0823  0.0073  0.0182
  390loPI   C5A 6235   9.894   2.989   8.079  0.1288 -0.2245  0.2723
  390loPI   C6A 6236  10.107   3.176   7.758  0.0672 -0.0707  0.2849
  390loPI   C1B 6237   9.128   2.836   9.563 -0.1866 -0.1149  0.3602
  390loPI   C2B 6238   9.239   2.906   9.064 -0.1623  0.1148  0.0936
  390loPI   C3B 6239   9.205   2.906   8.585  0.1041 -0.0054 -0.0640
  390loPI   C4B 6240   9.147   2.949   8.223  0.2483 -0.1215  0.0448
  391loPI    C1 6241   1.165   5.009  10.097 -0.1936 -0.2647  0.0518
  391loPI    C2 6242   1.393   4.681  10.115  0.2677  0.0368 -0.1217
  391loPI    C3 6243   1.356   4.917  10.436 -0.0570 -0.1744  0.0004
  391loPI   PO4 6244   1.257   5.192   9.890  0.2177  0.2468 -0.3080
  391loPI   GL1 6245   1.384   4.820   9.581 -0.2144  0.1180 -0.1721
  391loPI   GL2 6246   1.565   5.091   9.351  0.0294 -0.0011 -0.1304
  391loPI   C1A 6247   1.513   4.557   9.240 -0.1803 -0.1459 -0.4856
  391loPI   C2A 6248   1.482   4.490   8.781 -0.0593 -0.2219 -0.1433
  391loPI   C3A 6249   1.321   4.391   8.400 -0.1555 -0.0799  0.0038
  391loPI   C4A 6250   1.385   4.163   8.059  0.0243  0.1811  0.0568
  391loPI   C5A 6251   1.558   4.008   7.774  0.0789 -0.0073 -0.1754
  391loPI   C6A 6252   1.543   3.661   7.500 -0.3676  0.3922  0.0403
  391loPI   C1B 6253   1.592   4.969   8.980 -0.0168 -0.1107 -0.0921
  391loPI   C2B 6254   1.549   4.915   8.505 -0.1651 -0.3298 -0.0130
  391loPI   C3B 6255   1.466   4.784   8.080  0.0062  0.1991 -0.4811
  391loPI   C4B 6256   1.587   4.582   7.799  0.0017  0.1019  0.1093
  392loPI    C1 6257  13.845   0.696  10.283 -0.0728 -0.0407  0.1037
  392loPI    C2 6258  13.934   0.740  10.670 -0.0412  0.1795  0.0725
  392loPI    C3 6259  14.110   0.452  10.457 -0.1637 -0.0332  0.2545
  392loPI   PO4 6260  13.681   0.925  10.283  0.0726  0.0033 -0.0964
  392loPI   GL1 6261  13.445   0.988  10.084 -0.0441  0.2253  0.0674
  392loPI   GL2 6262  13.384   0.738   9.945 -0.1926  0.0234  0.1811
  392loPI   C1A 6263  13.411   1.242   9.760 -0.1841 -0.0267 -0.2828
  392loPI   C2A 6264  13.365   1.300   9.369  0.1492 -0.1191  0.1926
  392loPI   C3A 6265  13.220   1.349   9.017  0.3601  0.0689  0.0305
  392loPI   C4A 6266  13.255   1.377   8.574 -0.1311 -0.1030 -0.1324
  392loPI   C5A 6267  13.129   1.418   8.167  0.1081  0.4116  0.1328
  392loPI   C6A 6268  12.719   1.403   7.971 -0.0615 -0.0902 -0.0296
  392loPI   C1B 6269  13.448   0.686   9.411  0.0191 -0.2388 -0.0547
  392loPI   C2B 6270  13.425   0.814   8.978  0.1461  0.1361  0.1333
  392loPI   C3B 6271  13.451   0.837   8.483 -0.0038  0.3223  0.2087
  392loPI   C4B 6272  13.343   0.858   8.007  0.1505 -0.1003 -0.1930
  393loPI    C1 6273  18.657  18.571  10.165 -0.0528 -0.1936 -0.0730
  393loPI    C2 6274  18.540  18.248  10.370  0.0824 -0.2457 -0.0770
  393loPI    C3 6275  18.550  18.606  10.549 -0.1707 -0.2239 -0.1025
  393loPI   PO4 6276  18.637  18.451   9.874 -0.0877 -0.0327 -0.0450
  393loPI   GL1 6277  18.814  18.445   9.432  0.0590  0.3659  0.1869
  393loPI   GL2 6278  18.817  18.136   9.483 -0.1821 -0.0775 -0.2247
  393loPI   C1A 6279  19.032  18.415   9.113  0.0070 -0.3102  0.1264
  393loPI   C2A 6280  18.995  18.405   8.645  0.2659 -0.0843  0.0529
  393loPI   C3A 6281  19.123  18.544   8.274  0.1080 -0.1309  0.2542
  393loPI   C4A 6282  19.389  18.514   7.985 -0.1019 -0.0883  0.2005
  393loPI   C5A 6283  19.712  18.543   7.675  0.0580  0.0123  0.1024
  393loPI   C6A 6284  20.088  18.613   7.611 -0.0286 -0.2747 -0.0836
  393loPI   C1B 6285  18.620  18.163   9.106  0.0049  0.3420 -0.0295
  393loPI   C2B 6286  18.413  18.201   8.692 -0.3670  0.1240 -0.0572
  393loPI   C3B 6287  18.229  18.173   8.314 -0.5619 -0.0536 -0.1968
  393loPI   C4B 6288  17.852  18.284   8.103  0.0713 -0.0035 -0.3763
  394loPI    C1 6289  10.269  18.670  10.601  0.1321 -0.1694  0.0642
  394loPI    C2 6290  10.486  18.797  10.912  0.1763 -0.1223  0.0143
  394loPI    C3 6291  10.398  19.048  10.614 -0.0786 -0.0971  0.1076
  394loPI   PO4 6292  10.415  18.457  10.491  0.0307 -0.0955 -0.1577
  394loPI   GL1 6293  10.366  18.304  10.022  0.0059  0.1121 -0.0604
  394loPI   GL2 6294  10.497  17.987   9.902 -0.0217 -0.0056 -0.1551
  394loPI   C1A 6295  10.340  18.640   9.660 -0.2779 -0.0760 -0.0979
  394loPI   C2A 6296  10.418  18.656   9.206  0.2733  0.0197  0.2552
  394loPI   C3A 6297  10.519  18.664   8.812  0.2704 -0.2042  0.3807
  394loPI   C4A 6298  10.502  18.656   8.372  0.2776 -0.4100 -0.1594
  394loPI   C5A 6299  10.258  18.607   7.971 -0.2407  0.1162  0.1424
  394loPI   C6A 6300  10.065  18.738   7.508 -0.1277 -0.0211 -0.1352
  394loPI   C1B 6301  10.571  18.214   9.487  0.0458  0.0769 -0.1542
  394loPI   C2B 6302  10.604  18.185   9.046 -0.2364 -0.0272  0.1262
  394loPI   C3B 6303  10.603  18.164   8.512  0.2537  0.1401 -0.1667
  394loPI   C4B 6304  10.589  18.239   8.020 -0.0037 -0.1987  0.2339
  395loPI    C1 6305   7.717   2.076  10.212 -0.2217  0.1335 -0.2180
  395loPI    C2 6306   7.426   1.817  10.302  0.1033 -0.2401 -0.2166
  395loPI    C3 6307   7.588   2.043  10.589 -0.0355 -0.1869 -0.1792
  395loPI   PO4 6308   7.702   2.169  10.068 -0.1417 -0.0182  0.0891
  395loPI   GL1 6309   7.330   2.080   9.764  0.1002  0.1780  0.0438
  395loPI   GL2 6310   7.446   1.898   9.659  0.0732 -0.2109 -0.1091
  395loPI   C1A 6311   7.005   2.063   9.398 -0.0809 -0.0632 -0.1885
  395loPI   C2A 6312   6.986   2.178   9.025 -0.0921  0.2788 -0.2550
  395loPI   C3A 6313   6.943   2.159   8.588 -0.1681  0.0825  0.0364
  395loPI   C4A 6314   6.887   2.161   8.228  0.2015  0.3239 -0.0203
  395loPI   C5A 6315   6.747   2.238   7.719 -0.0289 -0.1704 -0.1759
  395loPI   C6A 6316   6.742   1.978   7.307 -0.3475 -0.0551  0.1037
  395loPI   C1B 6317   7.477   2.022   9.198  0.2724 -0.1581  0.1011
  395loPI   C2B 6318   7.418   1.998   8.612 -0.0116 -0.0371 -0.0960
  395loPI   C3B 6319   7.388   2.094   8.109 -0.0033 -0.0628 -0.1217
  395loPI   C4B 6320   7.210   2.385   7.830 -0.1312  0.2627  0.1538
  396loPI    C1 6321  18.033   4.197  10.152  0.1331  0.0969 -0.1826
  396loPI    C2 6322  18.228   4.433  10.410  0.2868 -0.1502 -0.0686
  396loPI    C3 6323  17.940   4.187  10.541  0.4275 -0.3421 -0.1158
  396loPI   PO4 6324  17.908   4.357   9.969  0.1106 -0.2231 -0.0450
  396loPI   GL1 6325  17.902   4.335   9.539  0.0121  0.1690 -0.0713
  396loPI   GL2 6326  17.738   4.061   9.481 -0.0861 -0.0031  0.1015
  396loPI   C1A 6327  17.747   4.619   9.180 -0.0067  0.2013 -0.1415
  396loPI   C2A 6328  17.818   4.598   8.769 -0.1305  0.0569 -0.1141
  396loPI   C3A 6329  17.875   4.694   8.317 -0.2936 -0.0043  0.2534
  396loPI   C4A 6330  18.189   4.591   7.981 -0.0906  0.0305  0.0857
  396loPI   C5A 6331  18.149   5.049   7.715 -0.1261  0.3393 -0.1483
  396loPI   C6A 6332  17.861   5.137   7.459 -0.5100  0.1747  0.1652
  396loPI   C1B 6333  17.827   4.097   9.088  0.1959 -0.1476 -0.1534
  396loPI   C2B 6334  17.882   4.080   8.684 -0.0454 -0.0703 -0.2318
  396loPI   C3B 6335  18.219   4.334   8.430  0.1447 -0.1025  0.1657
  396loPI   C4B 6336  18.510   4.163   8.040 -0.0027 -0.0530 -0.1743
  397loPI    C1 6337   0.409   7.975  10.531  0.1010 -0.0568 -0.0035
  397loPI    C2 6338   0.767   7.797  10.516  0.1051 -0.0701  0.2148
  397loPI    C3 6339   0.572   7.824  10.864 -0.0220  0.1043  0.1317
  397loPI   PO4 6340   0.463   8.188  10.227  0.2264 -0.1546  0.1094
  397loPI   GL1 6341   0.295   8.294   9.750  0.1505 -0.0736  0.3367
  397loPI   GL2 6342   0.657   8.295   9.764 -0.3143  0.3171  0.2142
  397loPI   C1A 6343   0.160   8.303   9.352  0.0800 -0.3390  0.2112
  397loPI   C2A 6344   0.070   8.437   8.892 -0.3892 -0.1119 -0.1009
  397loPI   C3A 6345  -0.023   8.774   8.556  0.0987 -0.2062 -0.2666
  397loPI   C4A 6346  -0.213   8.604   8.130 -0.0253 -0.2681 -0.1988
  397loPI   C5A 6347  -0.505   8.576   7.783 -0.2859 -0.1134  0.1168
  397loPI   C6A 6348  -0.894   8.761   7.534 -0.1894 -0.0970 -0.2295
  397loPI   C1B 6349   0.945   8.218   9.364 -0.1482 -0.0368 -0.1223
  397loPI   C2B 6350   1.014   8.315   8.905  0.0257  0.1288 -0.1128
  397loPI   C3B 6351   0.891   8.491   8.415  0.3176 -0.2225  0.2116
  397loPI   C4B 6352   0.843   8.331   7.993  0.0118  0.1157 -0.2041
  398loPI    C1 6353  17.523   8.207  10.281  0.1033 -0.1249 -0.3648
  398loPI    C2 6354  17.849   8.167  10.053  0.2823 -0.3172 -0.0817
  398loPI    C3 6355  17.886   8.209  10.449 -0.0302 -0.1192 -0.0700
  398loPI   PO4 6356  17.317   8.167  10.046  0.0099  0.2013 -0.3501
  398loPI   GL1 6357  17.426   8.078   9.688  0.1957  0.2092  0.0874
  398loPI   GL2 6358  17.502   7.774   9.554 -0.0101 -0.0206 -0.1742
  398loPI   C1A 6359  17.428   8.390   9.297 -0.1206  0.2064  0.0423
  398loPI   C2A 6360  17.001   8.355   9.055  0.0109  0.1383  0.1344
  398loPI   C3A 6361  16.525   8.235   8.845 -0.2009 -0.2773  0.1298
  398loPI   C4A 6362  16.249   7.993   8.590  0.2120  0.2118  0.0184
  398loPI   C5A 6363  16.152   7.982   8.134  0.3496 -0.0254 -0.0206
  398loPI   C6A 6364  16.184   8.039   7.652 -0.1388 -0.1369  0.2245
  398loPI   C1B 6365  17.663   7.905   9.098  0.0852 -0.1430  0.0164
  398loPI   C2B 6366  17.717   7.793   8.642 -0.1645  0.1496  0.5023
  398loPI   C3B 6367  17.281   7.743   8.458 -0.1342  0.1775  0.1375
  398loPI   C4B 6368  17.110   7.488   8.664 -0.1566  0.0759  0.0826
  399loPI    C1 6369   2.196   3.090  10.459 -0.0512 -0.0379 -0.0997
  399loPI    C2 6370   2.529   3.073  10.681  0.0030 -0.1739 -0.1905
  399loPI    C3 6371   2.205   3.262  10.821  0.0400 -0.2498  0.0002
  399loPI   PO4 6372   2.300   3.178  10.245  0.1936 -0.1900  0.0513
  399loPI   GL1 6373   2.352   3.366   9.869  0.0300 -0.0680 -0.1942
  399loPI   GL2 6374   2.627   3.465   9.905 -0.0769 -0.0857 -0.0874
  399loPI   C1A 6375   2.261   3.253   9.464 -0.2864  0.1677  0.0412
  399loPI   C2A 6376   2.275   3.325   8.996 -0.0375  0.2578 -0.2016
  399loPI   C3A 6377   2.224   3.389   8.543  0.1949  0.0563  0.1587
  399loPI   C4A 6378   2.157   3.428   8.087 -0.0885 -0.0673 -0.3512
  399loPI   C5A 6379   2.361   3.364   7.728  0.0061 -0.1427 -0.0848
  399loPI   C6A 6380   2.561   3.192   7.351  0.0650  0.0141  0.2084
  399loPI   C1B 6381   2.984   3.486   9.776  0.1694  0.2709  0.0076
  399loPI   C2B 6382   3.093   3.523   9.337  0.0120 -0.0643 -0.0917
  399loPI   C3B 6383   3.126   3.533   8.810  0.0417  0.1283 -0.1713
  399loPI   C4B 6384   3.024   3.616   8.365 -0.0148 -0.2756 -0.1416
  400loPI    C1 6385   0.096  12.910  10.358 -0.1023  0.0469 -0.0901
  400loPI    C2 6386   0.425  13.083  10.504 -0.0599 -0.1279  0.0248
  400loPI    C3 6387   0.085  13.292  10.476 -0.0173 -0.0350  0.1898
  400loPI   PO4 6388   0.178  12.790  10.029  0.1995 -0.1014  0.2072
  400loPI   GL1 6389   0.186  13.005   9.433 -0.1043 -0.0702 -0.1568
  400loPI   GL2 6390  -0.123  12.983   9.602  0.0175  0.2549  0.1483
  400loPI   C1A 6391   0.210  12.939   8.992 -0.1999 -0.1233  0.1077
  400loPI   C2A 6392   0.077  12.961   8.560  0.1098  0.0600  0.3380
  400loPI   C3A 6393   0.145  12.898   8.178  0.1391  0.0731  0.0045
  400loPI   C4A 6394   0.035  12.915   7.725 -0.0995  0.1297 -0.1519
  400loPI   C5A 6395   0.134  13.089   7.351 -0.2941 -0.2108  0.1296
  400loPI   C6A 6396  -0.039  12.943   7.040 -0.0383  0.0103 -0.1603
  400loPI   C1B 6397  -0.227  12.848   9.108  0.0223  0.2853  0.0689
  400loPI   C2B 6398  -0.321  12.685   8.717  0.2277  0.1415 -0.1738
  400loPI   C3B 6399  -0.326  12.687   8.248  0.2436 -0.0757  0.0643
  400loPI   C4B 6400  -0.384  12.594   7.848 -0.2931  0.1355 -0.1447
  401loPI    C1 6401  16.643   5.721  10.397  0.1440  0.1077  0.2065
  401loPI    C2 6402  16.930   5.450  10.331  0.0306  0.0079  0.1193
  401loPI    C3 6403  16.875   5.599  10.699 -0.0028 -0.1982  0.1987
  401loPI   PO4 6404  16.640   5.925  10.213 -0.2476  0.0764 -0.2433
  401loPI   GL1 6405  16.765   5.870   9.803 -0.2337 -0.2221  0.2734
  401loPI   GL2 6406  16.663   6.025   9.528  0.0118  0.1211 -0.2698
  401loPI   C1A 6407  16.675   5.499   9.449  0.0651 -0.3514  0.3498
  401loPI   C2A 6408  16.641   5.392   8.999  0.0789 -0.0739 -0.3407
  401loPI   C3A 6409  16.579   5.344   8.479 -0.1566  0.1235  0.0429
  401loPI   C4A 6410  16.483   5.536   7.977 -0.0647  0.2447  0.2936
  401loPI   C5A 6411  16.530   5.532   7.489  0.2418 -0.1132  0.1144
  401loPI   C6A 6412  16.580   5.455   7.119  0.2629  0.2890  0.1407
  401loPI   C1B 6413  16.723   5.933   9.018 -0.2452 -0.0861  0.0874
  401loPI   C2B 6414  16.607   5.870   8.574 -0.2653  0.0489 -0.2667
  401loPI   C3B 6415  16.757   6.004   8.081  0.3099  0.0400 -0.4025
  401loPI   C4B 6416  16.664   5.947   7.633  0.0157 -0.0210  0.3040
  402loPI    C1 6417  16.079   4.319  10.445 -0.1449 -0.2194 -0.1424
  402loPI    C2 6418  15.821   4.174  10.715 -0.2168 -0.0331 -0.1098
  402loPI    C3 6419  15.711   4.474  10.474 -0.0426  0.0242 -0.1195
  402loPI   PO4 6420  16.154   4.197  10.310  0.1073  0.0629 -0.4718
  402loPI   GL1 6421  16.057   4.157   9.857 -0.2357  0.0883  0.1803
  402loPI   GL2 6422  15.957   3.848   9.767  0.1986  0.2047 -0.3034
  402loPI   C1A 6423  16.148   4.209   9.409  0.0767  0.0204 -0.2450
  402loPI   C2A 6424  16.072   4.176   8.963 -0.0930 -0.1611  0.1365
  402loPI   C3A 6425  16.224   4.220   8.565 -0.0519  0.1388  0.3669
  402loPI   C4A 6426  16.556   4.202   8.322 -0.0942 -0.1780 -0.2208
  402loPI   C5A 6427  16.676   4.522   7.951  0.1067 -0.0275 -0.0906
  402loPI   C6A 6428  16.987   4.666   7.756  0.3067 -0.2201 -0.1681
  402loPI   C1B 6429  15.933   3.777   9.359 -0.3301 -0.0238 -0.1549
  402loPI   C2B 6430  15.838   3.751   8.987 -0.1781  0.2703 -0.2986
  402loPI   C3B 6431  15.844   3.814   8.595  0.1650  0.0754  0.1454
  402loPI   C4B 6432  15.784   3.967   8.147 -0.2155 -0.3366 -0.0400
  403loPI    C1 6433  11.200  18.041  10.661 -0.0523 -0.0936  0.0093
  403loPI    C2 6434  11.441  18.278  10.875 -0.0819 -0.0360 -0.0208
  403loPI    C3 6435  11.108  18.130  11.040  0.0412 -0.2233  0.0631
  403loPI   PO4 6436  11.311  18.069  10.473  0.0659 -0.1499  0.2660
  403loPI   GL1 6437  11.549  18.173  10.021  0.0617 -0.2978  0.0138
  403loPI   GL2 6438  11.316  18.293   9.970 -0.1912 -0.0837  0.1828
  403loPI   C1A 6439  11.621  17.956   9.691  0.2468 -0.1868  0.0526
  403loPI   C2A 6440  11.817  18.161   9.316  0.0575 -0.0476 -0.0151
  403loPI   C3A 6441  11.965  18.260   8.895  0.0695 -0.1328 -0.1828
  403loPI   C4A 6442  12.002  18.316   8.428  0.3692 -0.1070 -0.0790
  403loPI   C5A 6443  12.015  18.367   7.984  0.1633  0.1769 -0.0911
  403loPI   C6A 6444  11.618  18.367   7.631 -0.3061  0.3021  0.2553
  403loPI   C1B 6445  11.362  18.366   9.552  0.1687  0.0899 -0.4426
  403loPI   C2B 6446  11.435  18.351   9.054 -0.3706 -0.0891  0.1482
  403loPI   C3B 6447  11.514  18.415   8.593  0.3471  0.1715 -0.3106
  403loPI   C4B 6448  11.510  18.525   8.105  0.0938  0.2796 -0.0460
  404loPI    C1 6449  14.413   8.355  10.314  0.1561  0.0271 -0.0675
  404loPI    C2 6450  14.074   8.524  10.440  0.1094  0.0659 -0.2429
  404loPI    C3 6451  14.391   8.506  10.684 -0.0291 -0.0031 -0.0656
  404loPI   PO4 6452  14.447   8.324  10.146 -0.0509 -0.4512 -0.0943
  404loPI   GL1 6453  14.320   8.332   9.798  0.1076 -0.1910 -0.0338
  404loPI   GL2 6454  14.499   8.074   9.609 -0.0123 -0.1625  0.0648
  404loPI   C1A 6455  14.234   8.318   9.309 -0.1907 -0.0542  0.2355
  404loPI   C2A 6456  14.326   8.239   8.857 -0.0893  0.2706 -0.1442
  404loPI   C3A 6457  14.200   8.190   8.325 -0.0867 -0.0363  0.1038
  404loPI   C4A 6458  14.162   8.337   7.995 -0.1217  0.0284 -0.1994
  404loPI   C5A 6459  13.861   8.464   7.616 -0.0086  0.0131  0.3781
  404loPI   C6A 6460  13.478   8.599   7.379  0.0976 -0.0794 -0.1513
  404loPI   C1B 6461  14.478   7.835   9.179  0.0804 -0.3068 -0.0362
  404loPI   C2B 6462  14.899   7.753   8.866  0.3110 -0.2887 -0.2153
  404loPI   C3B 6463  15.263   7.789   8.822  0.0024 -0.0082  0.0398
  404loPI   C4B 6464  15.638   7.819   9.042  0.1477 -0.2098 -0.0848
  405loPI    C1 6465   5.711  11.952  10.031  0.1131 -0.0622  0.1840
  405loPI    C2 6466   5.647  11.617  10.239  0.1121 -0.0734  0.1656
  405loPI    C3 6467   5.987  11.822  10.290 -0.0305  0.1044  0.4247
  405loPI   PO4 6468   5.498  12.101  10.062 -0.0433 -0.0314 -0.0544
  405loPI   GL1 6469   5.071  12.134   9.823 -0.0213  0.0382  0.1186
  405loPI   GL2 6470   5.356  12.217   9.643 -0.3075 -0.0836  0.1683
  405loPI   C1A 6471   4.941  11.961   9.420 -0.2503 -0.0328  0.2398
  405loPI   C2A 6472   5.048  11.882   9.072  0.0455  0.0317  0.0774
  405loPI   C3A 6473   5.072  11.901   8.562 -0.0554 -0.0677 -0.2326
  405loPI   C4A 6474   5.074  12.124   8.098  0.1872  0.1380  0.2309
  405loPI   C5A 6475   5.220  12.128   7.670 -0.0926 -0.2290  0.1388
  405loPI   C6A 6476   5.626  12.276   7.466 -0.1859  0.0889  0.2634
  405loPI   C1B 6477   5.579  12.221   9.186  0.1608  0.1898 -0.0982
  405loPI   C2B 6478   5.609  12.087   8.703  0.1237 -0.0633  0.0642
  405loPI   C3B 6479   5.744  12.173   8.292 -0.3071 -0.4215 -0.1765
  405loPI   C4B 6480   5.940  12.429   7.946  0.0150  0.0951 -0.2187
  406loPI    C1 6481   8.967  10.036  10.178 -0.0383  0.0578  0.4414
  406loPI    C2 6482   9.340   9.899  10.136 -0.1029  0.0372 -0.1512
  406loPI    C3 6483   9.084   9.711  10.380  0.2254 -0.0350  0.1466
  406loPI   PO4 6484   9.122  10.358  10.051 -0.0091 -0.1249 -0.0778
  406loPI   GL1 6485   9.231  10.454   9.609  0.0777  0.0268 -0.1787
  406loPI   GL2 6486   9.245  10.820   9.430 -0.3831 -0.1622  0.2745
  406loPI   C1A 6487   9.318  10.321   9.257 -0.2197  0.3882 -0.0675
  406loPI   C2A 6488   9.411  10.512   8.875 -0.1254 -0.0313  0.1309
  406loPI   C3A 6489   9.521  10.335   8.424 -0.1236  0.0525 -0.2248
  406loPI   C4A 6490   9.572  10.095   8.120 -0.1093  0.5128 -0.1012
  406loPI   C5A 6491   9.774   9.816   7.906  0.0863 -0.2622  0.1192
  406loPI   C6A 6492  10.145   9.718   7.932  0.2540 -0.0593 -0.0772
  406loPI   C1B 6493   9.179  10.906   8.940  0.0911  0.0580 -0.0871
  406loPI   C2B 6494   9.328  10.878   8.491 -0.0426  0.1912 -0.2778
  406loPI   C3B 6495   9.285  11.148   8.130 -0.1476 -0.0566  0.0904
  406loPI   C4B 6496   9.110  10.986   7.688 -0.0525 -0.2477  0.3675
  407loPI    C1 6497   5.043   5.144  10.345  0.0217 -0.2355  0.0155
  407loPI    C2 6498   5.363   5.382  10.307 -0.0680 -0.0903  0.1575
  407loPI    C3 6499   5.135   5.404  10.636 -0.2393 -0.1745  0.0458
  407loPI   PO4 6500   5.033   5.079  10.065 -0.4139  0.1203  0.1145
  407loPI   GL1 6501   5.243   5.047   9.608  0.2890 -0.2140 -0.3818
  407loPI   GL2 6502   5.001   5.154   9.548 -0.2642  0.1925 -0.0478
  407loPI   C1A 6503   5.502   5.002   9.209  0.1141 -0.1752  0.2477
  407loPI   C2A 6504   5.467   5.030   8.795 -0.0238  0.0496 -0.0779
  407loPI   C3A 6505   5.395   5.144   8.351 -0.0801  0.0762 -0.2174
  407loPI   C4A 6506   5.336   5.036   7.892 -0.1931 -0.3769  0.0982
  407loPI   C5A 6507   4.922   4.912   7.673  0.1451  0.1369  0.0559
  407loPI   C6A 6508   4.474   4.896   7.460 -0.4575 -0.0120  0.0811
  407loPI   C1B 6509   4.958   5.194   9.188  0.2498  0.1354 -0.0478
  407loPI   C2B 6510   4.948   5.109   8.714  0.0550 -0.4733 -0.1581
  407loPI   C3B 6511   4.846   5.250   8.297  0.2602 -0.0292 -0.1985
  407loPI   C4B 6512   4.921   5.364   7.902  0.1944  0.0002 -0.0495
  408loPI    C1 6513  14.313  10.047  10.454 -0.2276  0.0181  0.0104
  408loPI    C2 6514  13.914  10.039  10.420 -0.2399  0.0168  0.1498
  408loPI    C3 6515  14.086   9.964  10.773 -0.1240  0.2122  0.1361
  408loPI   PO4 6516  14.440  10.133  10.203  0.0164 -0.2201  0.2226
  408loPI   GL1 6517  14.443  10.058   9.855  0.2087 -0.0758  0.1389
  408loPI   GL2 6518  14.163  10.024   9.599  0.0706 -0.0432  0.2274
  408loPI   C1A 6519  14.423  10.381   9.484 -0.0318  0.0841  0.1542
  408loPI   C2A 6520  14.466  10.365   9.011 -0.0118 -0.2044  0.3113
  408loPI   C3A 6521  14.453  10.372   8.542 -0.0799  0.0620 -0.1525
  408loPI   C4A 6522  14.610  10.165   8.069 -0.1245 -0.0913  0.2674
  408loPI   C5A 6523  14.743  10.191   7.629  0.1269 -0.1541 -0.0580
  408loPI   C6A 6524  14.983   9.903   7.753 -0.1811  0.1055 -0.0891
  408loPI   C1B 6525  13.976  10.139   9.168  0.0356  0.3654 -0.1894
  408loPI   C2B 6526  13.916  10.164   8.624 -0.1572 -0.4316  0.0286
  408loPI   C3B 6527  14.104  10.161   8.199  0.0024  0.0991  0.2509
  408loPI   C4B 6528  14.198  10.280   7.780 -0.0586 -0.0569 -0.1413
  409loPI    C1 6529  17.596   8.688  10.536  0.3204  0.1168 -0.0408
  409loPI    C2 6530  17.463   8.754  10.907  0.2083 -0.1883 -0.0236
  409loPI    C3 6531  17.852   8.798  10.824  0.1846  0.2018  0.0487
  409loPI   PO4 6532  17.478   8.751  10.337 -0.3066  0.2816 -0.2217
  409loPI   GL1 6533  17.502   8.633   9.944 -0.0561  0.0216 -0.0549
  409loPI   GL2 6534  17.769   8.680   9.932 -0.1466  0.0744 -0.0094
  409loPI   C1A 6535  17.351   8.843   9.590 -0.0222  0.2463  0.2022
  409loPI   C2A 6536  17.486   8.974   9.182 -0.0967 -0.0237 -0.2171
  409loPI   C3A 6537  17.530   8.829   8.750  0.0851  0.2776 -0.2543
  409loPI   C4A 6538  17.809   8.699   8.514 -0.0713  0.0766 -0.0585
  409loPI   C5A 6539  18.133   8.391   8.376 -0.1641 -0.0100  0.0053
  409loPI   C6A 6540  18.161   8.023   8.391  0.0987  0.1667 -0.0334
  409loPI   C1B 6541  17.798   8.688   9.484  0.0548  0.0562 -0.0959
  409loPI   C2B 6542  17.919   8.522   9.157  0.0213 -0.1303 -0.2205
  409loPI   C3B 6543  18.070   8.256   8.851 -0.2272  0.1016 -0.0749
  409loPI   C4B 6544  18.512   8.252   8.659 -0.1518  0.0266  0.0646
  410loPI    C1 6545   4.763   3.003  10.821 -0.0090  0.0935  0.1454
  410loPI    C2 6546   5.118   3.056  10.998 -0.0140  0.1323  0.1437
  410loPI    C3 6547   4.896   2.735  11.086  0.3093 -0.2332 -0.3283
  410loPI   PO4 6548   4.759   3.145  10.634 -0.0058  0.0535  0.1821
  410loPI   GL1 6549   4.918   3.192  10.195  0.1610 -0.0563 -0.3493
  410loPI   GL2 6550   4.802   2.965  10.013 -0.2377  0.1100  0.0595
  410loPI   C1A 6551   4.934   3.391   9.819 -0.2169 -0.2902 -0.1377
  410loPI   C2A 6552   4.914   3.300   9.366  0.1118  0.1565  0.1364
  410loPI   C3A 6553   4.954   3.351   8.889 -0.0074 -0.1401  0.0212
  410loPI   C4A 6554   4.911   3.372   8.505 -0.4015  0.1675 -0.0929
  410loPI   C5A 6555   4.957   3.277   8.090  0.0629 -0.1445 -0.2515
  410loPI   C6A 6556   4.727   3.213   7.651 -0.2115 -0.1209 -0.4475
  410loPI   C1B 6557   4.980   2.847   9.636  0.0353 -0.1196 -0.0473
  410loPI   C2B 6558   5.025   2.772   9.204 -0.1937  0.6184 -0.1521
  410loPI   C3B 6559   5.051   2.854   8.806  0.1827 -0.0161  0.1026
  410loPI   C4B 6560   4.989   2.859   8.348  0.0749  0.0630 -0.3410
  411loPI    C1 6561   6.304  16.671   9.820  0.0336 -0.0667  0.1656
  411loPI    C2 6562   6.060  16.567  10.119  0.1280 -0.2030  0.1964
  411loPI    C3 6563   6.338  16.849  10.177 -0.0494 -0.0157  0.1483
  411loPI   PO4 6564   6.021  16.757   9.651  0.1324  0.0740  0.2834
  411loPI   GL1 6565   5.838  16.990   9.296 -0.2330 -0.1793  0.0977
  411loPI   GL2 6566   6.091  17.246   9.344 -0.2932  0.0226 -0.0059
  411loPI   C1A 6567   5.812  17.004   8.914 -0.0363  0.0991  0.0221
  411loPI   C2A 6568   5.723  17.121   8.409 -0.2462 -0.1639  0.0377
  411loPI   C3A 6569   5.663  16.982   7.990  0.0091  0.2206  0.0349
  411loPI   C4A 6570   5.373  16.699   7.709  0.0521 -0.1564 -0.1903
  411loPI   C5A 6571   5.501  16.324   7.500  0.2502 -0.3281 -0.0428
  411loPI   C6A 6572   5.480  16.159   7.046 -0.3183 -0.0461 -0.1967
  411loPI   C1B 6573   6.174  17.368   8.903  0.1854 -0.1389 -0.1708
  411loPI   C2B 6574   6.232  17.439   8.499  0.1008 -0.1434 -0.4586
  411loPI   C3B 6575   6.434  17.271   8.229  0.2912  0.1137 -0.1818
  411loPI   C4B 6576   6.630  16.912   8.008 -0.1947 -0.0825 -0.1460
  412loPI    C1 6577  15.411   8.026   9.937  0.1317 -0.2479 -0.0984
  412loPI    C2 6578  15.298   7.999  10.319  0.2454 -0.2738 -0.0663
  412loPI    C3 6579  15.507   7.702  10.152  0.3436 -0.1866 -0.0990
  412loPI   PO4 6580  15.240   7.945   9.704 -0.0261 -0.1339  0.1831
  412loPI   GL1 6581  14.979   7.775   9.364 -0.3136  0.0203  0.3170
  412loPI   GL2 6582  15.182   8.091   9.268  0.1522  0.1702 -0.0918
  412loPI   C1A 6583  15.224   7.494   9.152  0.1346  0.1404 -0.0417
  412loPI   C2A 6584  15.492   7.384   8.840  0.0575 -0.0888  0.3640
  412loPI   C3A 6585  15.586   7.249   8.409 -0.0116 -0.1369  0.0070
  412loPI   C4A 6586  15.880   7.110   8.010  0.2706 -0.2983 -0.1253
  412loPI   C5A 6587  16.180   7.091   7.633 -0.1757 -0.0189  0.0699
  412loPI   C6A 6588  16.206   7.011   7.211 -0.1372 -0.1451 -0.1221
  412loPI   C1B 6589  14.803   8.211   9.095  0.1984  0.0933  0.0214
  412loPI   C2B 6590  14.678   8.535   8.775 -0.2097 -0.0648  0.2529
  412loPI   C3B 6591  14.623   8.477   8.288  0.2832  0.1711 -0.3737
  412loPI   C4B 6592  14.716   8.408   7.883 -0.1395 -0.1760 -0.1896
  413loPI    C1 6593  12.309  15.614   9.737  0.0382 -0.0106  0.1440
  413loPI    C2 6594  12.240  15.885  10.023 -0.0369  0.0437  0.0748
  413loPI    C3 6595  11.952  15.628   9.917  0.0535 -0.1034  0.1823
  413loPI   PO4 6596  12.388  15.803   9.546  0.0825 -0.0196  0.2000
  413loPI   GL1 6597  12.285  16.157   9.222 -0.0024  0.2749 -0.1553
  413loPI   GL2 6598  12.630  15.995   9.119  0.2243 -0.0534  0.2743
  413loPI   C1A 6599  12.247  16.158   8.837 -0.3076 -0.0324 -0.1581
  413loPI   C2A 6600  12.392  16.259   8.416  0.0260  0.4116  0.0070
  413loPI   C3A 6601  12.315  16.298   7.905 -0.1148 -0.1606 -0.4821
  413loPI   C4A 6602  11.952  16.399   7.648 -0.0030  0.1162 -0.2946
  413loPI   C5A 6603  11.538  16.422   7.496 -0.1491  0.1908  0.1272
  413loPI   C6A 6604  11.126  16.288   7.325 -0.1998  0.1180  0.2788
  413loPI   C1B 6605  12.716  16.138   8.781 -0.1435  0.0111  0.0885
  413loPI   C2B 6606  12.787  16.055   8.359  0.0241 -0.2820 -0.2093
  413loPI   C3B 6607  12.558  15.863   8.076  0.1591  0.0082 -0.0097
  413loPI   C4B 6608  12.705  15.726   7.741  0.0078  0.0777  0.0994
  414loPI    C1 6609   8.044  11.583   9.979  0.0318  0.1684  0.0589
  414loPI    C2 6610   8.263  11.278  10.117  0.0643  0.1729  0.0174
  414loPI    C3 6611   8.235  11.615  10.329 -0.1033  0.0824  0.1413
  414loPI   PO4 6612   8.071  11.626   9.791 -0.1401 -0.1103  0.0007
  414loPI   GL1 6613   8.192  11.624   9.416 -0.1776  0.2564 -0.3696
  414loPI   GL2 6614   8.417  11.318   9.522 -0.0734 -0.0465 -0.0104
  414loPI   C1A 6615   8.131  11.497   8.996 -0.2701 -0.1683 -0.3345
  414loPI   C2A 6616   8.304  11.361   8.567  0.1446  0.0887 -0.0016
  414loPI   C3A 6617   8.559  11.411   8.181  0.1154 -0.3627 -0.0188
  414loPI   C4A 6618   8.937  11.570   8.112  0.1572 -0.1237 -0.1374
  414loPI   C5A 6619   9.148  11.722   7.798 -0.3574 -0.3044  0.0232
  414loPI   C6A 6620   9.427  11.886   7.534  0.2106 -0.1638  0.1663
  414loPI   C1B 6621   8.654  11.145   9.187 -0.3059  0.1437 -0.0661
  414loPI   C2B 6622   8.602  10.855   8.768  0.0336 -0.0910 -0.3583
  414loPI   C3B 6623   8.563  10.896   8.326  0.1686 -0.3561  0.1469
  414loPI   C4B 6624   8.827  10.984   8.083  0.1309  0.0127  0.5026
  415loPI    C1 6625  16.795  18.244  10.271 -0.0281 -0.1253  0.1570
  415loPI    C2 6626  17.171  18.109  10.303  0.0882  0.1521 -0.0070
  415loPI    C3 6627  16.933  18.118  10.624  0.1870 -0.1217  0.0759
  415loPI   PO4 6628  16.865  18.343  10.043 -0.1801  0.1361  0.2129
  415loPI   GL1 6629  16.673  18.143   9.623  0.2503  0.0407  0.0571
  415loPI   GL2 6630  16.618  17.892   9.785  0.0357 -0.1097 -0.0986
  415loPI   C1A 6631  16.714  18.160   9.216 -0.1762 -0.1791  0.1767
  415loPI   C2A 6632  16.621  18.226   8.901 -0.0011 -0.1777  0.0676
  415loPI   C3A 6633  16.579  18.241   8.506 -0.0698 -0.0748  0.0386
  415loPI   C4A 6634  16.427  18.240   8.094  0.1197 -0.1462  0.2409
  415loPI   C5A 6635  16.345  18.383   7.659 -0.0131  0.2539  0.2699
  415loPI   C6A 6636  15.932  18.288   7.479  0.1381  0.0793 -0.0216
  415loPI   C1B 6637  16.765  17.679   9.414 -0.0221 -0.0648 -0.1832
  415loPI   C2B 6638  16.683  17.534   9.066  0.1332 -0.0730 -0.0208
  415loPI   C3B 6639  16.654  17.781   8.722  0.0011  0.0532  0.3094
  415loPI   C4B 6640  16.578  17.795   8.241 -0.2690  0.2361  0.0106
  416loPI    C1 6641   4.787   1.093  10.337  0.3565  0.1856  0.2175
  416loPI    C2 6642   4.599   0.807  10.543 -0.1468  0.2415 -0.1442
  416loPI    C3 6643   4.794   1.098  10.736 -0.0457 -0.0695  0.2338
  416loPI   PO4 6644   4.870   0.881  10.111  0.0839 -0.2007 -0.3661
  416loPI   GL1 6645   4.815   0.686   9.793 -0.3102 -0.2215  0.1430
  416loPI   GL2 6646   4.752   0.319   9.764  0.2891 -0.0872  0.0610
  416loPI   C1A 6647   4.600   0.530   9.311  0.0601  0.0023  0.0427
  416loPI   C2A 6648   4.453   0.530   8.958 -0.1415  0.0476  0.1491
  416loPI   C3A 6649   4.512   0.657   8.527 -0.1618 -0.0634  0.2692
  416loPI   C4A 6650   4.563   0.757   8.091  0.2494 -0.0371 -0.2571
  416loPI   C5A 6651   4.601   0.944   7.650 -0.0871 -0.0846 -0.1082
  416loPI   C6A 6652   4.930   1.185   7.572 -0.0268  0.0916  0.0146
  416loPI   C1B 6653   4.700   0.095   9.477  0.0961  0.0919  0.0665
  416loPI   C2B 6654   4.540  -0.034   9.211  0.2998  0.0643  0.1262
  416loPI   C3B 6655   4.510   0.075   8.864 -0.1161 -0.0492  0.1951
  416loPI   C4B 6656   4.678   0.098   8.557 -0.0167 -0.2212  0.0038
  417loPI    C1 6657   6.161  10.247   9.668 -0.1051 -0.0021 -0.0899
  417loPI    C2 6658   6.076  10.449  10.003 -0.0165  0.0438 -0.0949
  417loPI    C3 6659   6.414  10.525   9.804  0.0330 -0.1313 -0.0801
  417loPI   PO4 6660   6.057   9.944   9.700 -0.0977  0.3139 -0.0659
  417loPI   GL1 6661   5.972   9.702   9.255  0.1273 -0.0776 -0.0574
  417loPI   GL2 6662   6.206   9.843   9.098  0.1683  0.0435  0.0352
  417loPI   C1A 6663   5.632   9.552   9.061 -0.0401  0.0234 -0.0901
  417loPI   C2A 6664   5.560   9.646   8.530  0.0745  0.0891 -0.0161
  417loPI   C3A 6665   5.812   9.716   8.113  0.3287 -0.1410 -0.1722
  417loPI   C4A 6666   6.229   9.821   7.833 -0.1036 -0.0137 -0.3433
  417loPI   C5A 6667   6.622   9.858   7.733  0.0935  0.3295 -0.0503
  417loPI   C6A 6668   7.021   9.894   7.505  0.0938 -0.1310 -0.2330
  417loPI   C1B 6669   6.184   9.671   8.700 -0.1688  0.2504 -0.0290
  417loPI   C2B 6670   6.278   9.655   8.281 -0.1470 -0.0726  0.0554
  417loPI   C3B 6671   6.699   9.368   8.149 -0.0168 -0.2122 -0.1028
  417loPI   C4B 6672   6.993   9.526   7.938  0.1766  0.2120  0.1070
  418loPI    C1 6673   2.658   4.869  10.228 -0.0279 -0.0440  0.0791
  418loPI    C2 6674   2.361   4.832   9.963  0.1270  0.1142 -0.1200
  418loPI    C3 6675   2.325   4.670  10.327 -0.0005 -0.2926 -0.3067
  418loPI   PO4 6676   2.891   4.839  10.008 -0.1314  0.1668 -0.1130
  418loPI   GL1 6677   2.923   4.521   9.672 -0.3209  0.0202 -0.3382
  418loPI   GL2 6678   3.257   4.496   9.853  0.2413 -0.1025 -0.1261
  418loPI   C1A 6679   2.884   4.440   9.218  0.3453  0.0853 -0.0013
  418loPI   C2A 6680   2.859   4.484   8.826  0.0119  0.0722  0.0485
  418loPI   C3A 6681   2.954   4.552   8.298 -0.0051  0.2354  0.0652
  418loPI   C4A 6682   3.159   4.483   7.888  0.2507 -0.0301 -0.0714
  418loPI   C5A 6683   3.395   4.471   7.493 -0.0272 -0.1578 -0.2862
  418loPI   C6A 6684   3.605   4.510   7.051 -0.1604 -0.2388 -0.1353
  418loPI   C1B 6685   3.334   4.427   9.423  0.1879 -0.1554 -0.2492
  418loPI   C2B 6686   3.366   4.364   9.037 -0.3568 -0.2498  0.0687
  418loPI   C3B 6687   3.340   4.393   8.681 -0.2136 -0.0802 -0.0508
  418loPI   C4B 6688   3.447   4.438   8.320  0.1247  0.1997 -0.1488
  419loPI    C1 6689   2.616  10.802  10.481 -0.0709  0.0448  0.0623
  419loPI    C2 6690   2.402  11.120  10.367  0.0142  0.0361 -0.1250
  419loPI    C3 6691   2.319  10.937  10.713  0.0271  0.3200  0.0317
  419loPI   PO4 6692   2.722  10.732  10.284 -0.1478 -0.0300 -0.3780
  419loPI   GL1 6693   2.686  10.556   9.908  0.3442  0.0597 -0.1727
  419loPI   GL2 6694   2.581  10.949   9.898 -0.2781 -0.1013  0.0950
  419loPI   C1A 6695   2.973  10.636   9.651 -0.0665 -0.1997 -0.0649
  419loPI   C2A 6696   3.080  10.641   9.246 -0.0414  0.0373 -0.0668
  419loPI   C3A 6697   3.033  10.560   8.852  0.1734  0.1095 -0.0095
  419loPI   C4A 6698   3.050  10.622   8.387  0.0536  0.2225  0.0932
  419loPI   C5A 6699   3.142  10.880   7.960  0.0396  0.2744 -0.1647
  419loPI   C6A 6700   3.038  11.225   7.649 -0.0793 -0.0171 -0.1289
  419loPI   C1B 6701   2.646  11.122   9.441 -0.2164 -0.0464 -0.2862
  419loPI   C2B 6702   2.688  10.881   9.064 -0.1188  0.0606 -0.2114
  419loPI   C3B 6703   2.631  10.952   8.582  0.3022  0.3172  0.0569
  419loPI   C4B 6704   2.611  11.025   8.194  0.0871  0.0105 -0.1212
  420loPI    C1 6705  13.662   0.290  10.662  0.0174 -0.0914 -0.0613
  420loPI    C2 6706  13.700   0.026  10.961  0.1708 -0.0622 -0.0540
  420loPI    C3 6707  13.985   0.300  10.899  0.0778  0.0141 -0.1474
  420loPI   PO4 6708  13.632   0.171  10.431  0.0351 -0.3656 -0.0339
  420loPI   GL1 6709  13.863   0.225  10.093  0.0405 -0.0531  0.1553
  420loPI   GL2 6710  13.902  -0.065  10.078 -0.1381 -0.4361 -0.2008
  420loPI   C1A 6711  13.870   0.507   9.764 -0.2358  0.2569 -0.2947
  420loPI   C2A 6712  13.989   0.597   9.295  0.2568  0.0165 -0.3093
  420loPI   C3A 6713  13.884   0.665   8.871 -0.1777  0.1600 -0.1424
  420loPI   C4A 6714  13.933   0.686   8.452  0.0891 -0.0332 -0.1626
  420loPI   C5A 6715  13.942   0.591   8.118 -0.1465 -0.1263  0.1475
  420loPI   C6A 6716  13.779   0.768   7.836  0.1822 -0.0794 -0.0959
  420loPI   C1B 6717  14.054   0.006   9.683 -0.1577 -0.0962 -0.0011
  420loPI   C2B 6718  14.118   0.049   9.278 -0.0015 -0.2159 -0.3323
  420loPI   C3B 6719  14.008   0.154   8.915  0.2811  0.1150  0.2414
  420loPI   C4B 6720  13.997   0.147   8.551  0.0027  0.2644  0.4644
  421loPI    C1 6721  11.229   3.421  10.866  0.0226 -0.1517  0.0535
  421loPI    C2 6722  11.189   3.530  11.249  0.0462 -0.1286  0.0493
  421loPI    C3 6723  11.509   3.319  11.134 -0.0113 -0.2235  0.0621
  421loPI   PO4 6724  10.970   3.536  10.731  0.1250  0.3131 -0.1260
  421loPI   GL1 6725  10.920   3.570  10.329 -0.0073  0.1838  0.0822
  421loPI   GL2 6726  10.955   3.287  10.234 -0.0845  0.0833  0.1953
  421loPI   C1A 6727  11.271   3.607   9.971  0.2405 -0.2087 -0.2360
  421loPI   C2A 6728  11.273   3.599   9.562  0.1632  0.0023  0.1202
  421loPI   C3A 6729  11.275   3.732   9.247  0.0964 -0.1689 -0.2144
  421loPI   C4A 6730  11.372   3.838   8.849  0.0666 -0.1941  0.1409
  421loPI   C5A 6731  11.332   3.734   8.525  0.3448  0.2008  0.0836
  421loPI   C6A 6732  11.119   3.536   8.133  0.2124  0.1969 -0.1200
  421loPI   C1B 6733  10.908   3.249   9.800  0.1461 -0.3632 -0.2471
  421loPI   C2B 6734  10.955   3.264   9.327 -0.1680  0.1977 -0.2323
  421loPI   C3B 6735  10.920   3.402   9.000  0.1716  0.4271 -0.1189
  421loPI   C4B 6736  11.050   3.338   8.637 -0.1220  0.3353  0.0193
  422loPI    C1 6737   0.443   2.257  10.160 -0.2179 -0.1656  0.0046
  422loPI    C2 6738   0.760   2.499  10.128 -0.1581 -0.2578 -0.1080
  422loPI    C3 6739   0.641   2.371  10.488 -0.2632  0.0346 -0.0360
  422loPI   PO4 6740   0.314   2.275   9.925 -0.1293 -0.1069  0.2684
  422loPI   GL1 6741   0.154   2.327   9.535 -0.2315  0.0553  0.1389
  422loPI   GL2 6742   0.323   2.062   9.453  0.0606 -0.0949 -0.1108
  422loPI   C1A 6743   0.016   2.457   9.205 -0.0079  0.1348  0.0206
  422loPI   C2A 6744   0.013   2.528   8.846  0.3091  0.2026  0.4375
  422loPI   C3A 6745   0.019   2.655   8.463  0.2239 -0.2219 -0.0410
  422loPI   C4A 6746   0.147   2.676   8.051  0.1114  0.3246  0.4180
  422loPI   C5A 6747   0.409   2.490   7.757  0.1776  0.3444  0.1712
  422loPI   C6A 6748   0.897   2.575   7.817  0.0848  0.2059  0.1989
  422loPI   C1B 6749   0.154   1.996   9.012  0.0079  0.1887 -0.4173
  422loPI   C2B 6750   0.042   2.078   8.555 -0.0731 -0.0765  0.0220
  422loPI   C3B 6751   0.136   2.194   8.162  0.0349 -0.1443 -0.0546
  422loPI   C4B 6752   0.217   2.054   7.741 -0.3918 -0.2290 -0.1157
  423loPI    C1 6753  16.501   3.720  10.550  0.1094  0.0303 -0.0006
  423loPI    C2 6754  16.147   3.659  10.727  0.0419  0.1244 -0.1015
  423loPI    C3 6755  16.363   3.984  10.817  0.1284  0.0392  0.0007
  423loPI   PO4 6756  16.430   3.746  10.325 -0.2998 -0.1081 -0.2405
  423loPI   GL1 6757  16.598   3.979  10.079 -0.1270  0.0789 -0.0212
  423loPI   GL2 6758  16.491   4.260   9.942  0.2170 -0.1303 -0.2686
  423loPI   C1A 6759  16.556   3.861   9.591  0.0965 -0.1202  0.1628
  423loPI   C2A 6760  16.405   3.830   9.158  0.1001 -0.2588  0.1326
  423loPI   C3A 6761  16.334   3.772   8.720  0.0932  0.1065 -0.2135
  423loPI   C4A 6762  16.260   3.798   8.265  0.1209 -0.2082  0.2398
  423loPI   C5A 6763  15.992   3.596   7.961 -0.3107  0.0010 -0.1827
  423loPI   C6A 6764  15.796   3.286   7.823 -0.1169 -0.2476  0.0547
  423loPI   C1B 6765  16.515   4.517   9.579  0.3728  0.2553 -0.0861
  423loPI   C2B 6766  16.530   4.460   9.168 -0.2294  0.0806 -0.3069
  423loPI   C3B 6767  16.711   4.485   8.823 -0.3501 -0.1135 -0.0610
  423loPI   C4B 6768  16.995   4.404   8.444 -0.0526 -0.0260 -0.1229
  424loPI    C1 6769   5.808  17.643   9.933  0.1737  0.0433  0.0385
  424loPI    C2 6770   6.146  17.707  10.137  0.1198 -0.0602  0.1619
  424loPI    C3 6771   5.818  17.582  10.329  0.0929 -0.2456 -0.0015
  424loPI   PO4 6772   5.968  17.626   9.684  0.1658  0.0646 -0.1423
  424loPI   GL1 6773   6.009  17.810   9.372  0.0376  0.1890  0.0360
  424loPI   GL2 6774   6.337  17.719   9.352 -0.0099  0.0093 -0.0023
  424loPI   C1A 6775   6.057  17.874   8.968 -0.0561 -0.2225 -0.0419
  424loPI   C2A 6776   6.095  17.937   8.498 -0.0243 -0.0607 -0.4801
  424loPI   C3A 6777   6.117  17.997   8.040  0.1598 -0.1375  0.0461
  424loPI   C4A 6778   6.009  18.197   7.614  0.2223 -0.1119 -0.1677
  424loPI   C5A 6779   5.793  18.282   7.186 -0.2047 -0.1322 -0.0847
  424loPI   C6A 6780   5.593  18.019   6.781  0.0887 -0.0880 -0.0618
  424loPI   C1B 6781   6.514  17.707   8.901 -0.1657 -0.2452  0.2789
  424loPI   C2B 6782   6.567  17.900   8.517  0.0574  0.0181  0.3034
  424loPI   C3B 6783   6.572  17.725   8.082  0.1693  0.0537  0.3200
  424loPI   C4B 6784   6.644  17.496   7.747  0.1069  0.2240 -0.1440
  425loPI    C1 6785   0.855   9.632  10.567  0.0187 -0.0246  0.1148
  425loPI    C2 6786   0.715   9.800  10.903 -0.2537 -0.0683  0.0250
  425loPI    C3 6787   0.807   9.410  10.897 -0.2731 -0.0731  0.0419
  425loPI   PO4 6788   0.868   9.826  10.421  0.0358  0.1500 -0.0079
  425loPI   GL1 6789   1.159   9.778  10.101 -0.4410  0.0089  0.0709
  425loPI   GL2 6790   1.495   9.862   9.975 -0.1941  0.0210  0.2704
  425loPI   C1A 6791   1.101   9.841   9.650  0.1396 -0.0637  0.2293
  425loPI   C2A 6792   1.082   9.902   9.181  0.0897  0.0886  0.1718
  425loPI   C3A 6793   1.095   9.914   8.719 -0.2027 -0.2683  0.1663
  425loPI   C4A 6794   1.153   9.978   8.297  0.2146  0.1467  0.2666
  425loPI   C5A 6795   1.108   9.872   7.922  0.1458 -0.0300 -0.0321
  425loPI   C6A 6796   0.887   9.692   7.728 -0.2347 -0.0936  0.1123
  425loPI   C1B 6797   1.536   9.908   9.494 -0.1371  0.0881 -0.2026
  425loPI   C2B 6798   1.562  10.075   9.023  0.0728  0.1813  0.0313
  425loPI   C3B 6799   1.525  10.076   8.561  0.0939  0.1381 -0.0037
  425loPI   C4B 6800   1.544  10.196   8.161 -0.2252 -0.2627 -0.1478
  426loPI    C1 6801   8.651   9.623   9.647 -0.0679  0.1268 -0.1027
  426loPI    C2 6802   8.266   9.589   9.751  0.0645 -0.2907  0.2833
  426loPI    C3 6803   8.463   9.273   9.605  0.2323 -0.0453 -0.0357
  426loPI   PO4 6804   8.804   9.718   9.853 -0.1579 -0.2459  0.1447
  426loPI   GL1 6805   9.028  10.009   9.694  0.0576 -0.1467  0.0529
  426loPI   GL2 6806   9.023   9.893   9.415  0.0976  0.0783  0.0448
  426loPI   C1A 6807   9.496   9.955   9.576 -0.2440  0.0180 -0.2773
  426loPI   C2A 6808   9.685  10.006   9.131  0.2180  0.0088  0.2496
  426loPI   C3A 6809   9.598   9.929   8.707 -0.3054 -0.3709 -0.0693
  426loPI   C4A 6810   9.447   9.607   8.511 -0.0245 -0.4482 -0.0020
  426loPI   C5A 6811   9.586   9.369   8.189 -0.2141 -0.1700 -0.1088
  426loPI   C6A 6812   9.824   9.253   7.774  0.0576 -0.1386  0.0075
  426loPI   C1B 6813   9.138   9.964   8.921 -0.1810  0.0367 -0.0276
  426loPI   C2B 6814   9.134  10.024   8.380 -0.1214  0.3038 -0.1360
  426loPI   C3B 6815   9.168   9.887   7.895  0.0236 -0.0382 -0.0636
  426loPI   C4B 6816   9.407  10.048   7.686  0.1548  0.1028 -0.1236
  427loPI    C1 6817   4.405  17.629  10.037  0.1168 -0.0493  0.1955
  427loPI    C2 6818   4.171  17.799  10.313 -0.0440 -0.0985  0.0911
  427loPI    C3 6819   4.143  17.406  10.242 -0.1171 -0.0584 -0.1062
  427loPI   PO4 6820   4.312  17.725   9.748 -0.0912 -0.0867  0.1360
  427loPI   GL1 6821   4.626  17.828   9.426  0.1319  0.4065 -0.0471
  427loPI   GL2 6822   4.937  17.666   9.378  0.1836 -0.4234  0.2145
  427loPI   C1A 6823   4.724  17.861   8.964  0.2667  0.0969 -0.3464
  427loPI   C2A 6824   4.779  17.850   8.499  0.1791  0.1836 -0.0947
  427loPI   C3A 6825   4.981  17.772   8.178 -0.0964  0.1757 -0.0668
  427loPI   C4A 6826   5.014  17.578   7.813  0.2741  0.1574  0.0955
  427loPI   C5A 6827   4.859  17.610   7.291 -0.0709  0.0382  0.1968
  427loPI   C6A 6828   4.868  17.966   6.921  0.0612 -0.3603 -0.2757
  427loPI   C1B 6829   5.181  17.704   9.025 -0.0883 -0.0355  0.0104
  427loPI   C2B 6830   5.237  17.706   8.646 -0.1072 -0.0383  0.3359
  427loPI   C3B 6831   5.384  17.480   8.277 -0.1042 -0.0671  0.0860
  427loPI   C4B 6832   5.563  17.449   7.788  0.0082  0.2016  0.2216
  428loPI    C1 6833  16.615   4.993  10.804  0.2083  0.0946 -0.0196
  428loPI    C2 6834  16.698   5.211  11.129 -0.1026 -0.0166  0.1382
  428loPI    C3 6835  16.593   4.827  11.167  0.1652 -0.1191 -0.1184
  428loPI   PO4 6836  16.798   5.031  10.602 -0.1485  0.2629 -0.3192
  428loPI   GL1 6837  16.875   5.053  10.087  0.1709 -0.1814  0.1545
  428loPI   GL2 6838  16.886   4.829   9.895  0.2452  0.1086 -0.1555
  428loPI   C1A 6839  17.027   5.226   9.695  0.0566  0.3325 -0.1795
  428loPI   C2A 6840  17.048   5.252   9.175  0.3034  0.0412 -0.1672
  428loPI   C3A 6841  16.987   5.107   8.660 -0.3159 -0.0372 -0.2147
  428loPI   C4A 6842  16.771   4.802   8.431  0.2724 -0.2380  0.1416
  428loPI   C5A 6843  16.615   4.978   8.093  0.1357  0.1271  0.1700
  428loPI   C6A 6844  16.473   5.032   7.704 -0.0789  0.2407 -0.0336
  428loPI   C1B 6845  16.974   4.781   9.476  0.1158  0.1309  0.0623
  428loPI   C2B 6846  17.085   4.795   9.004 -0.3046 -0.0382 -0.0928
  428loPI   C3B 6847  17.314   4.722   8.556 -0.0575 -0.1246  0.0249
  428loPI   C4B 6848  17.304   4.663   8.124  0.0069 -0.4016  0.0212
  429loPI    C1 6849  10.304  10.024  10.519  0.1660  0.1511  0.0883
  429loPI    C2 6850  10.502   9.766  10.753  0.2204 -0.0336 -0.1573
  429loPI    C3 6851  10.103   9.753  10.733  0.2112  0.0273 -0.0250
  429loPI   PO4 6852  10.369  10.011  10.297  0.0354 -0.0814  0.2299
  429loPI   GL1 6853  10.328  10.024   9.976 -0.2306  0.2332 -0.1926
  429loPI   GL2 6854  10.212   9.650   9.883 -0.0010  0.0716  0.1118
  429loPI   C1A 6855  10.500  10.077   9.628  0.1701  0.1763  0.0561
  429loPI   C2A 6856  10.701   9.991   9.296 -0.0790 -0.1577 -0.1904
  429loPI   C3A 6857  10.721   9.971   8.808  0.0997 -0.4063 -0.1568
  429loPI   C4A 6858  10.829   9.709   8.415  0.2155  0.0196 -0.1691
  429loPI   C5A 6859  10.814   9.457   8.110  0.0748  0.2279 -0.2659
  429loPI   C6A 6860  10.621   9.420   7.710 -0.3108  0.4996 -0.3094
  429loPI   C1B 6861  10.124   9.263   9.590 -0.0781  0.0409  0.1612
  429loPI   C2B 6862   9.830   9.124   9.290  0.0726 -0.2113  0.1050
  429loPI   C3B 6863   9.634   9.107   8.994  0.2177 -0.1729  0.3903
  429loPI   C4B 6864   9.392   9.024   8.635 -0.2957  0.0071 -0.0733
  430loPI    C1 6865  11.478   8.633  10.516 -0.1564 -0.0819 -0.1913
  430loPI    C2 6866  11.475   8.260  10.372  0.2738 -0.1807  0.0392
  430loPI    C3 6867  11.714   8.354  10.679  0.2603  0.3152 -0.0942
  430loPI   PO4 6868  11.505   8.784  10.351  0.3712  0.0106 -0.2492
  430loPI   GL1 6869  11.448   8.701   9.983 -0.0061 -0.1663  0.0044
  430loPI   GL2 6870  11.464   9.030   9.813 -0.0276 -0.1219  0.1054
  430loPI   C1A 6871  11.191   8.625   9.597 -0.1396  0.0772  0.1321
  430loPI   C2A 6872  10.882   8.763   9.153  0.2165 -0.0446 -0.1505
  430loPI   C3A 6873  11.030   8.713   8.745 -0.0079  0.0358 -0.1156
  430loPI   C4A 6874  10.895   8.438   8.383 -0.0096 -0.1805  0.0163
  430loPI   C5A 6875  10.708   8.369   7.910 -0.3558 -0.4518  0.3473
  430loPI   C6A 6876  10.518   8.433   7.483  0.0291 -0.0519 -0.1346
  430loPI   C1B 6877  11.159   9.091   9.457 -0.1752  0.1782 -0.1362
  430loPI   C2B 6878  11.216   9.127   8.991  0.1485  0.1778 -0.2191
  430loPI   C3B 6879  11.558   8.971   8.671  0.0624 -0.1727  0.1070
  430loPI   C4B 6880  11.796   8.679   8.377  0.2518  0.0441 -0.0893
  431loPI    C1 6881   6.830   2.167  10.322  0.1540 -0.2140 -0.0426
  431loPI    C2 6882   7.195   2.237  10.175  0.1339 -0.1021 -0.0399
  431loPI    C3 6883   6.967   2.542  10.299  0.0416 -0.1720 -0.0369
  431loPI   PO4 6884   6.635   2.089  10.172 -0.1641  0.0477  0.0526
  431loPI   GL1 6885   6.441   1.927   9.824  0.0693 -0.1612 -0.0360
  431loPI   GL2 6886   6.691   1.873   9.713  0.0879 -0.0094 -0.0201
  431loPI   C1A 6887   6.189   1.909   9.468  0.1886 -0.2955  0.0698
  431loPI   C2A 6888   6.153   1.958   9.059 -0.1370 -0.1926 -0.0126
  431loPI   C3A 6889   6.141   2.044   8.610  0.1671 -0.0348 -0.0430
  431loPI   C4A 6890   6.072   1.983   8.148  0.0942  0.0764  0.1342
  431loPI   C5A 6891   5.895   1.756   7.771 -0.2954  0.0310  0.2772
  431loPI   C6A 6892   5.876   1.381   7.713  0.0612  0.0690  0.0780
  431loPI   C1B 6893   6.619   1.857   9.232  0.0429  0.2432 -0.0125
  431loPI   C2B 6894   6.589   1.876   8.840 -0.2636 -0.1430  0.0002
  431loPI   C3B 6895   6.607   1.810   8.465  0.0611 -0.2238  0.1468
  431loPI   C4B 6896   6.572   1.891   7.997 -0.1434  0.0391 -0.1965
  432loPI    C1 6897   4.375  15.976   9.935 -0.1769 -0.0282  0.1885
  432loPI    C2 6898   4.174  15.631   9.959 -0.4749  0.1357  0.0926
  432loPI    C3 6899   4.376  15.767  10.276 -0.3863 -0.1067  0.1425
  432loPI   PO4 6900   4.238  16.099   9.777 -0.0086  0.0553  0.2325
  432loPI   GL1 6901   4.493  16.195   9.300  0.0168  0.2368 -0.0097
  432loPI   GL2 6902   4.251  16.425   9.258  0.0590  0.0200 -0.0951
  432loPI   C1A 6903   4.747  16.107   8.915 -0.0125 -0.2710  0.2073
  432loPI   C2A 6904   4.794  15.890   8.523  0.1605  0.1553 -0.0895
  432loPI   C3A 6905   4.834  15.468   8.182 -0.1493 -0.0076  0.1345
  432loPI   C4A 6906   5.013  15.312   7.739  0.0522  0.0310 -0.1958
  432loPI   C5A 6907   5.426  15.299   7.578 -0.1433 -0.3006  0.5291
  432loPI   C6A 6908   5.945  15.371   7.441 -0.2194 -0.1113 -0.0414
  432loPI   C1B 6909   4.311  16.441   8.864 -0.1386 -0.3651 -0.2462
  432loPI   C2B 6910   4.198  16.689   8.410 -0.0189  0.0004  0.2007
  432loPI   C3B 6911   4.107  16.749   8.040 -0.0899  0.1167  0.1465
  432loPI   C4B 6912   4.304  16.844   7.618 -0.0531  0.0752  0.2860
  433loPI    C1 6913   2.391   2.219  10.596 -0.0180 -0.0175 -0.1858
  433loPI    C2 6914   2.067   1.986  10.568 -0.0484  0.0098 -0.0663
  433loPI    C3 6915   2.034   2.359  10.708  0.0279  0.0270 -0.0938
  433loPI   PO4 6916   2.501   2.187  10.344  0.1115  0.2179  0.1261
  433loPI   GL1 6917   2.464   2.152   9.980  0.0097  0.2823  0.1406
  433loPI   GL2 6918   2.596   2.421   9.895  0.0966 -0.0534 -0.3343
  433loPI   C1A 6919   2.473   2.244   9.437  0.0139 -0.1522  0.1288
  433loPI   C2A 6920   2.365   2.323   9.044 -0.0164  0.2506 -0.4465
  433loPI   C3A 6921   2.412   2.416   8.626 -0.0436 -0.0665  0.0471
  433loPI   C4A 6922   2.346   2.356   8.119  0.0025  0.1294  0.2522
  433loPI   C5A 6923   2.304   2.460   7.779  0.0433 -0.2200 -0.0360
  433loPI   C6A 6924   2.266   2.836   7.584  0.1395  0.3624  0.0305
  433loPI   C1B 6925   2.801   2.584   9.551  0.3146  0.1780  0.2001
  433loPI   C2B 6926   2.782   2.640   9.136 -0.2018 -0.0643  0.1128
  433loPI   C3B 6927   2.862   2.715   8.683  0.0553 -0.3191 -0.0630
  433loPI   C4B 6928   2.722   2.663   8.207 -0.0673  0.0110  0.0398
  434loPI    C1 6929   8.845   3.556  10.556  0.0940  0.1096 -0.0283
  434loPI    C2 6930   8.702   3.860  10.774 -0.1024 -0.2069  0.2958
  434loPI    C3 6931   8.521   3.503  10.785 -0.0261 -0.2728 -0.2776
  434loPI   PO4 6932   8.825   3.564  10.312 -0.0250 -0.0094  0.1886
  434loPI   GL1 6933   8.916   3.400   9.923  0.0863  0.1022 -0.1822
  434loPI   GL2 6934   9.226   3.315   9.808  0.0069 -0.2604 -0.2628
  434loPI   C1A 6935   8.717   3.396   9.629  0.1137  0.1816  0.0019
  434loPI   C2A 6936   8.573   3.515   9.234 -0.0377  0.1762 -0.0433
  434loPI   C3A 6937   8.628   3.561   8.729  0.0959 -0.1198  0.0055
  434loPI   C4A 6938   8.557   3.526   8.319 -0.1470  0.0198 -0.0995
  434loPI   C5A 6939   8.670   3.650   7.968 -0.0933  0.2345  0.0887
  434loPI   C6A 6940   8.895   3.854   7.573 -0.0599 -0.1019 -0.1460
  434loPI   C1B 6941   9.192   3.344   9.405 -0.0863  0.0547  0.1661
  434loPI   C2B 6942   9.090   3.374   8.918  0.1884 -0.1302 -0.0834
  434loPI   C3B 6943   9.105   3.459   8.464 -0.1223 -0.2570 -0.0400
  434loPI   C4B 6944   9.139   3.398   7.988 -0.3616  0.0046 -0.1902
  435loPI    C1 6945   9.391  14.230  10.225 -0.1887 -0.2500  0.0737
  435loPI    C2 6946   8.996  14.288  10.210 -0.1747 -0.1671  0.0198
  435loPI    C3 6947   9.161  14.118  10.532 -0.2606 -0.2514  0.0196
  435loPI   PO4 6948   9.450  14.159   9.972 -0.1243  0.1101 -0.0608
  435loPI   GL1 6949   9.388  13.722   9.699  0.1470  0.0268 -0.2664
  435loPI   GL2 6950   9.596  13.560   9.676 -0.0101 -0.0592  0.1154
  435loPI   C1A 6951   9.566  14.019   9.347 -0.1672 -0.5985 -0.1518
  435loPI   C2A 6952   9.447  14.087   8.940 -0.2110  0.1089 -0.1491
  435loPI   C3A 6953   9.305  14.018   8.515 -0.2299  0.1105 -0.1099
  435loPI   C4A 6954   9.158  13.865   8.028  0.2298  0.0108 -0.1751
  435loPI   C5A 6955   9.251  13.825   7.585 -0.0036  0.2101  0.2056
  435loPI   C6A 6956   9.332  13.716   7.165  0.1031 -0.3143  0.0434
  435loPI   C1B 6957   9.497  13.572   9.200  0.2460  0.0208 -0.2387
  435loPI   C2B 6958   9.490  13.424   8.777  0.0659  0.0840 -0.0483
  435loPI   C3B 6959   9.378  13.391   8.332 -0.1449  0.1674  0.0284
  435loPI   C4B 6960   9.423  13.394   7.835  0.3148  0.3428  0.0973
  436loPI    C1 6961   0.918   3.740  10.140  0.1490 -0.0869  0.1642
  436loPI    C2 6962   0.550   3.745   9.983  0.0584 -0.4396  0.3552
  436loPI    C3 6963   0.811   4.032   9.888 -0.2274 -0.2481  0.1293
  436loPI   PO4 6964   1.025   3.515  10.064 -0.0471  0.3722  0.3187
  436loPI   GL1 6965   1.009   3.407   9.666 -0.3133 -0.1093  0.1812
  436loPI   GL2 6966   0.856   3.685   9.592 -0.1271 -0.0756  0.2010
  436loPI   C1A 6967   1.186   3.103   9.385  0.4772  0.1281 -0.1082
  436loPI   C2A 6968   1.416   3.206   9.042 -0.1474 -0.1585 -0.1882
  436loPI   C3A 6969   1.340   3.313   8.582 -0.3184  0.2141 -0.0095
  436loPI   C4A 6970   1.260   3.702   8.359  0.0796 -0.1441 -0.2240
  436loPI   C5A 6971   1.075   3.973   8.348  0.2590  0.0172  0.0911
  436loPI   C6A 6972   0.863   4.358   8.279  0.0467 -0.0181 -0.0002
  436loPI   C1B 6973   0.811   3.689   9.112 -0.1382  0.1276 -0.0972
  436loPI   C2B 6974   0.658   3.828   8.740  0.0353  0.0863  0.0495
  436loPI   C3B 6975   0.523   4.003   8.304  0.0649 -0.0585  0.2335
  436loPI   C4B 6976   0.789   4.045   7.841 -0.2022  0.1571 -0.0142
  437loPI    C1 6977   8.921   4.216  10.444  0.0997  0.1872  0.1870
  437loPI    C2 6978   8.705   4.380  10.150 -0.0243  0.1471  0.2546
  437loPI    C3 6979   8.939   4.610  10.379 -0.0963  0.2106  0.2648
  437loPI   PO4 6980   9.039   4.037  10.352  0.3742 -0.1139  0.4136
  437loPI   GL1 6981   9.096   3.831   9.839  0.0714  0.1452 -0.2679
  437loPI   GL2 6982   8.774   3.909   9.934  0.0257 -0.1029 -0.0465
  437loPI   C1A 6983   9.087   3.823   9.437  0.0108 -0.0012  0.3796
  437loPI   C2A 6984   9.038   3.872   9.010  0.0283 -0.2821  0.0131
  437loPI   C3A 6985   8.940   3.957   8.611 -0.1862  0.1872  0.2622
  437loPI   C4A 6986   9.025   3.899   8.173 -0.0732  0.0990  0.0893
  437loPI   C5A 6987   9.341   3.836   7.839 -0.0036 -0.1603  0.0586
  437loPI   C6A 6988   9.596   3.697   7.496 -0.0984  0.0226  0.2142
  437loPI   C1B 6989   8.724   4.333   9.624 -0.3646  0.1080 -0.1958
  437loPI   C2B 6990   8.801   4.437   9.247  0.1470  0.0742  0.0605
  437loPI   C3B 6991   8.819   4.359   8.909  0.1735 -0.3202  0.2445
  437loPI   C4B 6992   8.947   4.379   8.406 -0.1115 -0.2444  0.0364
  438loPI    C1 6993   9.473   0.784  10.465  0.0009 -0.0090 -0.0658
  438loPI    C2 6994   9.466   0.385  10.436  0.0673 -0.0223  0.0907
  438loPI    C3 6995   9.448   0.560  10.796  0.0027  0.1171  0.0204
  438loPI   PO4 6996   9.587   0.899  10.279  0.3959  0.2233  0.1345
  438loPI   GL1 6997   9.680   0.996   9.873 -0.0934  0.0505 -0.0615
  438loPI   GL2 6998   9.350   1.039   9.782  0.0491 -0.2353 -0.0129
  438loPI   C1A 6999   9.930   1.244   9.659 -0.0333  0.1078 -0.3817
  438loPI   C2A 7000  10.061   1.301   9.205  0.3363 -0.0648  0.0351
  438loPI   C3A 7001   9.967   1.263   8.791 -0.1922  0.0641  0.0206
  438loPI   C4A 7002  10.123   1.252   8.349  0.1890  0.1144  0.0570
  438loPI   C5A 7003  10.038   1.288   7.829  0.1485 -0.1980 -0.0716
  438loPI   C6A 7004   9.999   1.026   7.520 -0.2311 -0.1546 -0.0113
  438loPI   C1B 7005   9.635   0.913   9.384 -0.0577  0.0319  0.1003
  438loPI   C2B 7006   9.670   0.932   8.964 -0.4875 -0.4361  0.0949
  438loPI   C3B 7007   9.713   0.885   8.530  0.1836 -0.0527 -0.0758
  438loPI   C4B 7008   9.841   0.887   8.050  0.1318 -0.0109 -0.1124
  439loPI    C1 7009   6.211   4.544  10.271  0.2439  0.1194  0.4418
  439loPI    C2 7010   6.037   4.297  10.534  0.2188 -0.1946  0.1365
  439loPI    C3 7011   6.416   4.236  10.422  0.2443 -0.0349  0.1331
  439loPI   PO4 7012   6.014   4.621  10.063 -0.0567 -0.1242  0.1395
  439loPI   GL1 7013   6.021   4.398   9.670 -0.0698 -0.1956  0.1675
  439loPI   GL2 7014   5.697   4.580   9.566  0.1459 -0.0093 -0.0603
  439loPI   C1A 7015   6.043   4.459   9.223 -0.3596  0.0917  0.3688
  439loPI   C2A 7016   6.033   4.317   8.951  0.2030  0.0921  0.2450
  439loPI   C3A 7017   6.043   4.302   8.564  0.1883  0.3280 -0.0305
  439loPI   C4A 7018   6.144   4.326   8.034  0.1689 -0.1096 -0.0836
  439loPI   C5A 7019   6.264   4.534   7.696 -0.0013  0.0320 -0.2915
  439loPI   C6A 7020   6.156   4.575   7.252  0.0822 -0.1820  0.1616
  439loPI   C1B 7021   5.529   4.503   9.174 -0.0182  0.1221 -0.0388
  439loPI   C2B 7022   5.657   4.530   8.752  0.1598 -0.2569  0.0425
  439loPI   C3B 7023   5.647   4.464   8.308 -0.1620  0.0377  0.2716
  439loPI   C4B 7024   5.590   4.410   7.846 -0.2941  0.0781  0.0811
  440loPI    C1 7025  12.540  14.835   9.670 -0.0784 -0.0079  0.0487
  440loPI    C2 7026  12.267  14.665   9.908 -0.1822  0.1593  0.0500
  440loPI    C3 7027  12.564  14.883  10.066 -0.0270 -0.0499  0.0507
  440loPI   PO4 7028  12.324  14.836   9.349 -0.2412  0.1986 -0.2755
  440loPI   GL1 7029  12.425  14.840   8.954 -0.4232  0.5039  0.0188
  440loPI   GL2 7030  12.635  15.036   8.841  0.0199 -0.2036 -0.1030
  440loPI   C1A 7031  12.282  14.605   8.677  0.0523 -0.0695 -0.0135
  440loPI   C2A 7032  12.165  14.499   8.307  0.0614  0.2101  0.2701
  440loPI   C3A 7033  12.352  14.721   7.963 -0.2216  0.0005  0.1536
  440loPI   C4A 7034  12.665  14.703   7.724 -0.1232  0.0017  0.0660
  440loPI   C5A 7035  12.905  14.860   7.542 -0.0110 -0.0365  0.3833
  440loPI   C6A 7036  12.944  14.727   7.083 -0.0986 -0.2287  0.2183
  440loPI   C1B 7037  12.477  14.988   8.438  0.0186  0.1948 -0.0063
  440loPI   C2B 7038  12.754  15.039   8.061  0.1350  0.2631 -0.3140
  440loPI   C3B 7039  12.627  15.234   7.643 -0.0305 -0.3704 -0.1034
  440loPI   C4B 7040  12.620  15.175   7.183  0.0259  0.2744 -0.0417
  441loPI    C1 7041   3.034  13.653  10.208  0.1989  0.0300  0.1066
  441loPI    C2 7042   2.663  13.667  10.357  0.1869  0.0908  0.0710
  441loPI    C3 7043   2.768  13.909  10.055  0.1362 -0.2060 -0.1902
  441loPI   PO4 7044   3.093  13.383  10.284 -0.2622 -0.1050 -0.1319
  441loPI   GL1 7045   3.248  13.042  10.053 -0.3783 -0.4297 -0.1201
  441loPI   GL2 7046   2.970  13.008  10.015  0.1083 -0.0615  0.3479
  441loPI   C1A 7047   3.377  12.800   9.688  0.0650 -0.1006  0.0345
  441loPI   C2A 7048   3.389  12.720   9.335 -0.0297  0.0278 -0.0236
  441loPI   C3A 7049   3.416  12.633   8.846  0.1749  0.0952 -0.0782
  441loPI   C4A 7050   3.402  12.603   8.408 -0.1888  0.1575  0.0798
  441loPI   C5A 7051   3.183  12.579   8.005  0.1263 -0.3738 -0.4194
  441loPI   C6A 7052   2.976  12.365   7.662 -0.0560  0.1106 -0.0514
  441loPI   C1B 7053   2.937  13.135   9.541  0.1995  0.0429  0.0305
  441loPI   C2B 7054   2.982  12.990   9.215 -0.0283  0.1947  0.0604
  441loPI   C3B 7055   2.893  12.919   8.754 -0.0249  0.2118 -0.0480
  441loPI   C4B 7056   2.941  12.989   8.291 -0.0821 -0.1666 -0.1605
  442loPI    C1 7057   1.193   7.465  10.581 -0.3595 -0.0802  0.0866
  442loPI    C2 7058   0.852   7.407  10.780 -0.2754 -0.2116  0.1937
  442loPI    C3 7059   1.095   7.706  10.884 -0.5076  0.0821 -0.0870
  442loPI   PO4 7060   1.163   7.571  10.361 -0.1179 -0.1781 -0.0783
  442loPI   GL1 7061   1.228   7.528   9.881  0.1822  0.4383  0.1580
  442loPI   GL2 7062   1.105   7.246   9.780  0.1178 -0.1253  0.0531
  442loPI   C1A 7063   1.056   7.737   9.490  0.0473  0.1373 -0.2051
  442loPI   C2A 7064   0.875   7.732   9.103 -0.3775 -0.0707  0.1100
  442loPI   C3A 7065   0.842   7.706   8.722 -0.1894  0.3881 -0.0490
  442loPI   C4A 7066   0.716   7.564   8.287  0.0531 -0.1792  0.1520
  442loPI   C5A 7067   0.329   7.539   8.008  0.0081  0.1325  0.1679
  442loPI   C6A 7068   0.115   7.859   7.824  0.0183 -0.1334 -0.2779
  442loPI   C1B 7069   1.273   7.299   9.258 -0.3103  0.1809  0.0661
  442loPI   C2B 7070   1.267   7.395   8.864  0.0028 -0.4586 -0.1753
  442loPI   C3B 7071   1.223   7.522   8.396 -0.3169 -0.1699 -0.0625
  442loPI   C4B 7072   1.385   7.462   8.043 -0.2527  0.0833  0.0947
  443loPI    C1 7073   5.632   4.370  10.313  0.0477 -0.0163  0.0527
  443loPI    C2 7074   5.672   4.727  10.490  0.0920 -0.0631  0.1379
  443loPI    C3 7075   5.467   4.435  10.672  0.0181 -0.0675  0.0485
  443loPI   PO4 7076   5.559   4.381  10.050 -0.1694  0.2574  0.2734
  443loPI   GL1 7077   5.257   4.422   9.808 -0.0557 -0.2488  0.1230
  443loPI   GL2 7078   5.053   4.643   9.800  0.1872  0.0870 -0.3452
  443loPI   C1A 7079   5.224   4.147   9.501 -0.1810 -0.3269 -0.1680
  443loPI   C2A 7080   5.210   4.207   9.007 -0.0266 -0.2009 -0.2573
  443loPI   C3A 7081   5.220   4.217   8.542 -0.0765 -0.1359 -0.1932
  443loPI   C4A 7082   5.257   4.119   8.121 -0.0484 -0.0903 -0.3858
  443loPI   C5A 7083   5.099   4.065   7.702 -0.4887  0.0831 -0.1316
  443loPI   C6A 7084   4.823   3.969   7.361  0.0095  0.0146  0.2445
  443loPI   C1B 7085   5.075   4.631   9.349 -0.3105  0.0915  0.2281
  443loPI   C2B 7086   5.106   4.671   8.880  0.1547  0.1634  0.0801
  443loPI   C3B 7087   5.129   4.715   8.388  0.0730  0.1588  0.0360
  443loPI   C4B 7088   5.211   4.569   8.062  0.4099 -0.1716  0.0973
  444loPI    C1 7089  14.109  17.365  10.372 -0.1049 -0.0795 -0.0447
  444loPI    C2 7090  13.905  17.349  10.715 -0.0379  0.0844  0.0035
  444loPI    C3 7091  14.305  17.336  10.720 -0.0447 -0.2449 -0.0911
  444loPI   PO4 7092  14.058  17.623  10.197 -0.0555 -0.0045 -0.4033
  444loPI   GL1 7093  13.686  17.728   9.879 -0.2055  0.4075 -0.0042
  444loPI   GL2 7094  13.992  17.647   9.650  0.0714 -0.0958  0.1240
  444loPI   C1A 7095  13.549  17.632   9.418  0.1878 -0.0538 -0.4148
  444loPI   C2A 7096  13.387  17.700   9.057  0.1047 -0.0870 -0.3380
  444loPI   C3A 7097  13.289  17.745   8.694 -0.0077 -0.0435  0.1134
  444loPI   C4A 7098  13.461  17.801   8.300  0.2634 -0.1838  0.4374
  444loPI   C5A 7099  13.798  17.821   7.954  0.0744  0.0329 -0.1792
  444loPI   C6A 7100  13.861  17.796   7.472  0.0032  0.2244  0.0006
  444loPI   C1B 7101  14.328  17.789   9.420 -0.0722  0.2258  0.3007
  444loPI   C2B 7102  14.277  17.903   8.945 -0.1466  0.0185  0.1314
  444loPI   C3B 7103  14.320  17.842   8.543 -0.2890 -0.0441  0.4660
  444loPI   C4B 7104  14.290  17.786   8.076  0.0281  0.0488 -0.0805
  445loPI    C1 7105   6.953   3.019  10.261  0.1483  0.1170 -0.0274
  445loPI    C2 7106   6.888   3.260  10.573 -0.1062  0.1091 -0.0726
  445loPI    C3 7107   7.119   2.936  10.616 -0.0535  0.1657  0.0794
  445loPI   PO4 7108   6.730   2.962  10.155 -0.1294 -0.0273 -0.1700
  445loPI   GL1 7109   6.793   2.684   9.810 -0.1600 -0.1501 -0.0823
  445loPI   GL2 7110   6.895   2.392   9.737 -0.0785  0.2309 -0.0174
  445loPI   C1A 7111   6.924   2.723   9.338 -0.2226  0.2745  0.0792
  445loPI   C2A 7112   6.900   2.631   8.930  0.1029 -0.0075 -0.1370
  445loPI   C3A 7113   6.857   2.711   8.527 -0.2521 -0.0082  0.0789
  445loPI   C4A 7114   6.850   2.666   8.060  0.0033  0.3326 -0.0016
  445loPI   C5A 7115   6.808   2.782   7.703  0.1554  0.3320  0.0387
  445loPI   C6A 7116   6.457   2.652   7.457  0.1906 -0.1891 -0.1401
  445loPI   C1B 7117   6.509   2.346   9.480 -0.2447  0.2118 -0.2580
  445loPI   C2B 7118   6.489   2.331   9.060 -0.3522  0.1978 -0.1791
  445loPI   C3B 7119   6.515   2.402   8.626 -0.0086 -0.0602  0.0670
  445loPI   C4B 7120   6.417   2.319   8.156 -0.0666 -0.0084  0.1187
  446loPI    C1 7121   4.647   7.664  10.815 -0.0303  0.1228  0.2126
  446loPI    C2 7122   4.252   7.723  10.820 -0.0756 -0.1411  0.0061
  446loPI    C3 7123   4.438   7.586  11.147 -0.1368  0.0802  0.1359
  446loPI   PO4 7124   4.632   7.713  10.489 -0.1729 -0.0530  0.2307
  446loPI   GL1 7125   4.696   7.567  10.010 -0.3512 -0.1518  0.1422
  446loPI   GL2 7126   4.941   7.791  10.009  0.4202  0.1902  0.0341
  446loPI   C1A 7127   4.805   7.506   9.607 -0.0490  0.2401 -0.0692
  446loPI   C2A 7128   4.883   7.676   9.284  0.1005 -0.1929 -0.1512
  446loPI   C3A 7129   4.956   7.654   8.899  0.0191  0.2060  0.0351
  446loPI   C4A 7130   4.872   7.821   8.464 -0.1580  0.0940  0.2066
  446loPI   C5A 7131   4.674   8.052   8.113  0.0999  0.0643  0.0636
  446loPI   C6A 7132   4.248   8.161   8.107  0.0434  0.1311 -0.0959
  446loPI   C1B 7133   4.772   7.997   9.652 -0.2158  0.3756 -0.0231
  446loPI   C2B 7134   4.734   8.220   9.301  0.0982  0.0879  0.1425
  446loPI   C3B 7135   4.741   8.206   8.820  0.1263  0.0793 -0.2393
  446loPI   C4B 7136   4.990   8.405   8.522 -0.3566  0.1728  0.1990
  447loPI    C1 7137   3.946   4.169  10.422  0.1333 -0.1143  0.0610
  447loPI    C2 7138   4.279   3.971  10.323  0.1705 -0.0835  0.1237
  447loPI    C3 7139   4.204   4.056  10.707  0.2088  0.1187  0.0875
  447loPI   PO4 7140   3.818   4.201  10.183  0.0166  0.1090 -0.2396
  447loPI   GL1 7141   4.076   4.088   9.868 -0.0442 -0.0455 -0.3385
  447loPI   GL2 7142   4.344   4.032   9.805  0.2759  0.0294  0.0857
  447loPI   C1A 7143   3.795   4.195   9.526  0.0030  0.1269  0.1421
  447loPI   C2A 7144   3.791   4.200   9.145 -0.1673 -0.1527 -0.1377
  447loPI   C3A 7145   3.875   4.156   8.708 -0.1758 -0.3427 -0.0799
  447loPI   C4A 7146   3.911   4.186   8.262  0.1612  0.1311  0.0527
  447loPI   C5A 7147   3.840   4.513   7.922  0.0491  0.1946 -0.1892
  447loPI   C6A 7148   4.096   4.865   7.876 -0.1551 -0.1430 -0.0524
  447loPI   C1B 7149   4.314   4.083   9.353 -0.0260  0.1446  0.1671
  447loPI   C2B 7150   4.366   4.051   8.884  0.2025  0.0762 -0.1675
  447loPI   C3B 7151   4.371   4.045   8.438  0.4072 -0.0156  0.1289
  447loPI   C4B 7152   4.374   4.055   7.991  0.2410 -0.0338  0.0114
  448loPI    C1 7153  14.128   9.149  10.198 -0.0416  0.2616 -0.0696
  448loPI    C2 7154  14.397   9.177   9.903 -0.0493  0.0287 -0.1007
  448loPI    C3 7155  14.296   8.818  10.049 -0.2067  0.1273  0.0376
  448loPI   PO4 7156  13.933   9.271  10.126 -0.0514  0.0228  0.1980
  448loPI   GL1 7157  13.891   9.536   9.761  0.1613 -0.2895  0.2865
  448loPI   GL2 7158  13.702   9.786  10.049  0.0478 -0.2039 -0.1052
  448loPI   C1A 7159  13.877   9.543   9.363 -0.0226 -0.0096 -0.1140
  448loPI   C2A 7160  13.912   9.670   8.923 -0.1369  0.0550  0.2886
  448loPI   C3A 7161  13.958   9.608   8.485 -0.1430 -0.0239 -0.2629
  448loPI   C4A 7162  13.876   9.754   8.168 -0.2347 -0.0788 -0.1182
  448loPI   C5A 7163  13.640  10.119   7.908 -0.0371 -0.1110 -0.1372
  448loPI   C6A 7164  13.322  10.492   7.804  0.0068  0.0440  0.1990
  448loPI   C1B 7165  13.637   9.898   9.575 -0.3716  0.0730  0.1670
  448loPI   C2B 7166  13.513   9.913   9.224 -0.1772 -0.3063 -0.0962
  448loPI   C3B 7167  13.482   9.902   8.835 -0.0191 -0.1450 -0.2113
  448loPI   C4B 7168  13.498  10.009   8.402  0.2562  0.3997 -0.1594
  449loPI    C1 7169  16.603   7.025   9.949 -0.1367  0.2045  0.2639
  449loPI    C2 7170  16.281   7.145   9.744  0.0661  0.0520 -0.1555
  449loPI    C3 7171  16.607   7.376   9.757  0.0699  0.0406 -0.0400
  449loPI   PO4 7172  16.698   6.800   9.860 -0.0315  0.2731 -0.2425
  449loPI   GL1 7173  16.613   6.710   9.541 -0.1063 -0.1966  0.0306
  449loPI   GL2 7174  16.431   6.524   9.446 -0.1229  0.1691 -0.0491
  449loPI   C1A 7175  16.456   7.061   9.279  0.0692  0.1809 -0.0629
  449loPI   C2A 7176  16.614   7.447   9.217  0.0793  0.1151  0.2130
  449loPI   C3A 7177  16.749   7.866   9.039 -0.0647 -0.2352  0.1134
  449loPI   C4A 7178  16.802   7.905   8.644 -0.2371  0.4662  0.0178
  449loPI   C5A 7179  16.762   7.821   8.222  0.2111  0.0494  0.0766
  449loPI   C6A 7180  16.424   7.636   7.900  0.0180  0.3271 -0.1900
  449loPI   C1B 7181  16.458   6.299   9.113 -0.1417 -0.1781  0.0780
  449loPI   C2B 7182  16.543   6.348   8.720 -0.1170  0.3569  0.0541
  449loPI   C3B 7183  16.357   6.317   8.361  0.1235  0.0147  0.3624
  449loPI   C4B 7184  16.129   6.562   8.151  0.2843 -0.0797  0.3368
  450loPI    C1 7185  13.517  15.327   9.922 -0.0128  0.0486  0.0060
  450loPI    C2 7186  13.637  15.578  10.209 -0.1000 -0.2139  0.2773
  450loPI    C3 7187  13.258  15.586  10.083  0.0332  0.1756 -0.1227
  450loPI   PO4 7188  13.655  15.311   9.743  0.0469  0.0362 -0.4436
  450loPI   GL1 7189  13.529  15.164   9.387  0.0953  0.2235 -0.0103
  450loPI   GL2 7190  13.845  15.079   9.225  0.1936 -0.4376 -0.3588
  450loPI   C1A 7191  13.399  14.822   9.041  0.2708 -0.0906  0.1624
  450loPI   C2A 7192  13.033  14.648   8.876  0.1133 -0.0692 -0.0394
  450loPI   C3A 7193  12.959  14.234   8.705 -0.1139 -0.2639  0.1136
  450loPI   C4A 7194  12.886  13.861   8.504  0.0780 -0.0369  0.0892
  450loPI   C5A 7195  12.752  13.659   8.143 -0.1580 -0.5441  0.0149
  450loPI   C6A 7196  12.378  13.767   7.997 -0.2519 -0.4409  0.0683
  450loPI   C1B 7197  13.654  15.235   8.848 -0.3559  0.0976 -0.0571
  450loPI   C2B 7198  13.489  15.171   8.466  0.0268  0.2244 -0.0604
  450loPI   C3B 7199  13.654  14.970   7.990 -0.1012 -0.1504 -0.1290
  450loPI   C4B 7200  13.839  14.791   7.615  0.0232 -0.1831 -0.0947
  451loPI    C1 7201  17.441  11.634  10.338 -0.0448  0.3493 -0.1571
  451loPI    C2 7202  17.062  11.574  10.453  0.0918 -0.2407  0.0209
  451loPI    C3 7203  17.319  11.761  10.697 -0.0499  0.0569 -0.0530
  451loPI   PO4 7204  17.406  11.696  10.127 -0.1289  0.4482  0.0153
  451loPI   GL1 7205  17.511  11.641   9.800 -0.0675 -0.0110  0.1339
  451loPI   GL2 7206  17.793  11.567   9.708  0.0532 -0.0129  0.1376
  451loPI   C1A 7207  17.394  11.483   9.373  0.2961 -0.1526 -0.0687
  451loPI   C2A 7208  17.395  11.375   8.968  0.0742 -0.1084 -0.1811
  451loPI   C3A 7209  17.404  11.433   8.464  0.1683 -0.1366 -0.2809
  451loPI   C4A 7210  17.503  11.517   8.127  0.0989  0.1511  0.0499
  451loPI   C5A 7211  17.209  11.628   7.744  0.2214  0.0990 -0.0898
  451loPI   C6A 7212  17.141  11.805   7.343  0.0658  0.0554 -0.2740
  451loPI   C1B 7213  17.912  11.565   9.307 -0.0146 -0.2987 -0.0899
  451loPI   C2B 7214  17.861  11.556   8.865 -0.0667 -0.2366 -0.1477
  451loPI   C3B 7215  17.945  11.538   8.376 -0.4290 -0.0012 -0.1103
  451loPI   C4B 7216  17.968  11.565   7.905 -0.3242 -0.3822  0.1616
  452loPI    C1 7217  10.415   3.561  10.955  0.1091  0.1630  0.1966
  452loPI    C2 7218  10.659   3.389  11.222  0.1048 -0.1690 -0.0070
  452loPI    C3 7219  10.263   3.343  11.254  0.0963 -0.0803  0.0167
  452loPI   PO4 7220  10.426   3.418  10.615 -0.0052 -0.1529  0.1567
  452loPI   GL1 7221  10.160   3.343  10.314  0.0351  0.1050  0.1961
  452loPI   GL2 7222  10.209   3.614  10.233 -0.1184 -0.1109  0.1735
  452loPI   C1A 7223  10.099   3.314   9.829  0.3327 -0.0067 -0.3567
  452loPI   C2A 7224  10.141   3.167   9.410 -0.0206  0.2712 -0.3342
  452loPI   C3A 7225  10.080   3.161   8.984  0.0654  0.0910 -0.2145
  452loPI   C4A 7226  10.063   3.059   8.586  0.0819 -0.0458  0.1136
  452loPI   C5A 7227  10.282   3.241   8.240 -0.0387  0.0905  0.2327
  452loPI   C6A 7228  10.629   3.509   8.166 -0.2528 -0.2374  0.0627
  452loPI   C1B 7229  10.542   3.542   9.913 -0.3567 -0.0438  0.2920
  452loPI   C2B 7230  10.554   3.536   9.470  0.0597 -0.0057  0.0671
  452loPI   C3B 7231  10.457   3.524   9.026 -0.0353  0.1017  0.0038
  452loPI   C4B 7232  10.532   3.456   8.684 -0.0714  0.1679  0.2025
  453loPI    C1 7233   7.074   6.598  10.375  0.0374 -0.0040  0.1657
  453loPI    C2 7234   6.792   6.363  10.216  0.0792  0.0999 -0.0671
  453loPI    C3 7235   6.734   6.530  10.575 -0.0023 -0.1653  0.0457
  453loPI   PO4 7236   7.287   6.426  10.318 -0.1143 -0.2073 -0.1356
  453loPI   GL1 7237   7.359   6.232  10.045 -0.0495  0.1861  0.1409
  453loPI   GL2 7238   7.455   5.895   9.901  0.2660 -0.1167  0.0411
  453loPI   C1A 7239   7.440   6.288   9.538 -0.0855 -0.0322 -0.2242
  453loPI   C2A 7240   7.513   6.251   9.112  0.0789 -0.1026  0.1018
  453loPI   C3A 7241   7.516   6.225   8.655 -0.1965  0.4142  0.6371
  453loPI   C4A 7242   7.509   6.045   8.200  0.0240  0.1768  0.1038
  453loPI   C5A 7243   7.713   5.598   8.118 -0.0909 -0.0742  0.2382
  453loPI   C6A 7244   7.486   5.226   7.979  0.2846  0.1403 -0.1435
  453loPI   C1B 7245   7.517   5.812   9.461 -0.0989  0.3498 -0.0476
  453loPI   C2B 7246   7.574   5.761   9.030  0.2026  0.0351 -0.1856
  453loPI   C3B 7247   7.641   5.678   8.624  0.0427 -0.1515 -0.3768
  453loPI   C4B 7248   8.006   5.554   8.504 -0.1020 -0.0453 -0.2201
  454loPI    C1 7249   2.334   6.877  10.161  0.0119 -0.0048 -0.0055
  454loPI    C2 7250   2.479   6.580  10.385  0.1525 -0.2390 -0.3980
  454loPI    C3 7251   2.084   6.634  10.358  0.1365 -0.1165  0.0160
  454loPI   PO4 7252   2.531   6.862   9.976 -0.2788  0.3004 -0.1521
  454loPI   GL1 7253   2.728   6.987   9.569  0.1034 -0.1408 -0.1161
  454loPI   GL2 7254   2.829   6.748   9.471  0.0101 -0.0060 -0.1010
  454loPI   C1A 7255   2.763   7.285   9.314 -0.0537  0.0884 -0.1261
  454loPI   C2A 7256   2.776   7.437   8.864  0.2517 -0.1610 -0.1023
  454loPI   C3A 7257   3.005   7.437   8.471  0.0355 -0.1757  0.0232
  454loPI   C4A 7258   3.205   7.446   8.105 -0.1860 -0.3752 -0.0790
  454loPI   C5A 7259   3.547   7.462   7.825 -0.1840 -0.0226 -0.1969
  454loPI   C6A 7260   4.039   7.422   7.868 -0.1495 -0.1724 -0.0791
  454loPI   C1B 7261   2.632   6.878   9.080 -0.3101  0.0974  0.0116
  454loPI   C2B 7262   2.494   7.039   8.674  0.2644 -0.0370  0.0656
  454loPI   C3B 7263   2.729   7.084   8.185 -0.1118  0.1381 -0.2794
  454loPI   C4B 7264   2.801   7.358   7.801 -0.1835 -0.2174  0.1861
  455loPI    C1 7265   7.356  17.883  10.207 -0.2588  0.0676  0.0367
  455loPI    C2 7266   7.508  18.253  10.200  0.0686 -0.0544  0.3606
  455loPI    C3 7267   7.282  18.135  10.508  0.0265 -0.1489  0.2942
  455loPI   PO4 7268   7.381  17.817   9.918  0.1164 -0.0147 -0.0415
  455loPI   GL1 7269   7.190  17.686   9.593 -0.1343  0.1133 -0.0853
  455loPI   GL2 7270   7.172  17.398   9.525 -0.0428 -0.2390  0.1783
  455loPI   C1A 7271   7.352  17.686   9.111 -0.0640  0.0300  0.0085
  455loPI   C2A 7272   7.104  17.655   8.736 -0.0477  0.1908 -0.2607
  455loPI   C3A 7273   6.939  17.528   8.475 -0.0361 -0.0739  0.2676
  455loPI   C4A 7274   7.066  17.389   8.007 -0.0277  0.0236  0.0411
  455loPI   C5A 7275   7.100  16.958   7.946 -0.2551 -0.1212 -0.1459
  455loPI   C6A 7276   7.187  16.603   7.620  0.0776 -0.0306 -0.0595
  455loPI   C1B 7277   7.098  17.261   9.096 -0.0687  0.1519  0.2085
  455loPI   C2B 7278   7.451  17.273   8.800  0.0211 -0.0676  0.4093
  455loPI   C3B 7279   7.834  17.330   8.516  0.2586  0.1125  0.0656
  455loPI   C4B 7280   7.859  17.571   8.153 -0.1646  0.1392  0.0056
  456loPI    C1 7281  11.273   0.768  10.312 -0.0033 -0.0616 -0.0677
  456loPI    C2 7282  11.139   1.145  10.319  0.2663  0.0339  0.1337
  456loPI    C3 7283  10.998   0.878  10.581 -0.0932 -0.0689 -0.1560
  456loPI   PO4 7284  11.265   0.669  10.145 -0.2413 -0.0442  0.0185
  456loPI   GL1 7285  11.020   0.473   9.826  0.0437  0.0750  0.2048
  456loPI   GL2 7286  11.076   0.191   9.961 -0.0773  0.0364  0.4567
  456loPI   C1A 7287  11.151   0.538   9.307  0.0369  0.1889 -0.0121
  456loPI   C2A 7288  11.226   0.448   8.926  0.1830  0.0157  0.0455
  456loPI   C3A 7289  11.144   0.566   8.504  0.1515 -0.0691 -0.2502
  456loPI   C4A 7290  11.242   0.599   7.986 -0.1081 -0.0035  0.2046
  456loPI   C5A 7291  11.098   0.315   7.765 -0.0470  0.0089 -0.2455
  456loPI   C6A 7292  11.284  -0.064   7.725 -0.0674  0.1040 -0.1005
  456loPI   C1B 7293  11.252   0.023   9.625  0.1803  0.2118  0.2157
  456loPI   C2B 7294  11.309  -0.018   9.169  0.2898 -0.0111 -0.1062
  456loPI   C3B 7295  11.331  -0.006   8.782  0.1065  0.1562 -0.0519
  456loPI   C4B 7296  11.354   0.054   8.384  0.0723  0.1123  0.1926
  457loPI    C1 7297  17.056   1.709   9.750  0.0791 -0.0679  0.2847
  457loPI    C2 7298  17.060   1.973  10.050 -0.1464  0.1951  0.0626
  457loPI    C3 7299  16.760   1.710  10.018 -0.0191  0.0333  0.1773
  457loPI   PO4 7300  17.287   1.550   9.723  0.2026  0.0038  0.1211
  457loPI   GL1 7301  17.258   1.376   9.292 -0.0376  0.1460  0.0752
  457loPI   GL2 7302  16.983   1.555   9.264  0.0027 -0.0794  0.3161
  457loPI   C1A 7303  17.381   1.373   8.867 -0.1146 -0.0386 -0.2025
  457loPI   C2A 7304  17.582   1.586   8.422 -0.0867 -0.0790  0.2514
  457loPI   C3A 7305  17.885   1.625   8.031 -0.1181 -0.0374 -0.0600
  457loPI   C4A 7306  18.260   1.669   7.733 -0.2846  0.0174  0.0814
  457loPI   C5A 7307  18.310   1.735   7.277 -0.3316  0.0784  0.1536
  457loPI   C6A 7308  18.618   1.921   6.959 -0.0930  0.2047 -0.0072
  457loPI   C1B 7309  16.927   1.467   8.848  0.2784  0.1136 -0.2242
  457loPI   C2B 7310  17.013   1.676   8.471 -0.1716 -0.0336  0.1470
  457loPI   C3B 7311  17.117   2.067   8.342  0.1089  0.2995 -0.2209
  457loPI   C4B 7312  17.121   2.457   8.417 -0.0040 -0.0276 -0.2122
  458loPI    C1 7313   7.618   4.932  10.716 -0.3234  0.0484  0.1288
  458loPI    C2 7314   8.000   4.835  10.779 -0.2686  0.2250  0.0757
  458loPI    C3 7315   7.711   4.570  10.858 -0.1278  0.0439 -0.0069
  458loPI   PO4 7316   7.649   5.081  10.354  0.2449  0.0430  0.1711
  458loPI   GL1 7317   7.518   4.997   9.962  0.0146 -0.2717 -0.0917
  458loPI   GL2 7318   7.539   4.681   9.831  0.0476  0.0619  0.0996
  458loPI   C1A 7319   7.296   5.015   9.533  0.2499  0.1111 -0.0713
  458loPI   C2A 7320   7.261   4.956   9.158 -0.0948  0.4108 -0.1639
  458loPI   C3A 7321   7.357   4.866   8.720  0.1145  0.2066 -0.0346
  458loPI   C4A 7322   7.381   4.781   8.337 -0.1110 -0.0877  0.0227
  458loPI   C5A 7323   7.364   4.758   7.823  0.1886 -0.1606 -0.2986
  458loPI   C6A 7324   7.410   4.891   7.374 -0.2360  0.1067  0.0606
  458loPI   C1B 7325   7.360   4.504   9.445 -0.1089  0.2727 -0.3319
  458loPI   C2B 7326   7.468   4.423   9.064  0.1150  0.1480  0.0851
  458loPI   C3B 7327   7.445   4.363   8.672  0.0339 -0.1188 -0.1012
  458loPI   C4B 7328   7.536   4.343   8.225 -0.2191 -0.1388 -0.0645
  459loPI    C1 7329   2.059  14.521  10.300 -0.2938  0.2011 -0.0911
  459loPI    C2 7330   1.986  14.373  10.664 -0.1566  0.1340 -0.0903
  459loPI    C3 7331   2.194  14.712  10.625 -0.1179  0.1082 -0.1085
  459loPI   PO4 7332   1.821  14.519  10.165  0.0895  0.0921 -0.1997
  459loPI   GL1 7333   1.780  14.552   9.738 -0.0792 -0.0209 -0.1166
  459loPI   GL2 7334   1.480  14.605   9.608  0.3425  0.0366  0.1342
  459loPI   C1A 7335   1.826  14.547   9.258  0.1951 -0.2292 -0.1197
  459loPI   C2A 7336   1.837  14.492   8.822 -0.1094  0.2017 -0.0162
  459loPI   C3A 7337   1.884  14.544   8.400 -0.2408  0.5283  0.1078
  459loPI   C4A 7338   1.692  14.480   8.051  0.1620  0.2770  0.1495
  459loPI   C5A 7339   1.700  14.515   7.656  0.1689 -0.1219  0.0590
  459loPI   C6A 7340   1.624  14.720   7.294 -0.0068  0.0382  0.0892
  459loPI   C1B 7341   1.356  14.578   9.227 -0.1347  0.1110 -0.3566
  459loPI   C2B 7342   1.300  14.354   8.845  0.3612  0.2527 -0.0590
  459loPI   C3B 7343   1.335  14.243   8.454 -0.1758  0.0072  0.1076
  459loPI   C4B 7344   1.253  14.288   8.040  0.1000  0.0496 -0.0702
  460loPI    C1 7345  11.362  11.623  10.042  0.2349  0.2408  0.0466
  460loPI    C2 7346  11.160  11.784   9.737  0.3805  0.2117 -0.0668
  460loPI    C3 7347  11.036  11.844  10.113  0.0607  0.0485 -0.1419
  460loPI   PO4 7348  11.584  11.668   9.998  0.0663  0.1362  0.1380
  460loPI   GL1 7349  11.634  11.885   9.583 -0.0844 -0.1410  0.0766
  460loPI   GL2 7350  11.426  12.168   9.696 -0.3574  0.1430 -0.0764
  460loPI   C1A 7351  11.794  11.969   9.230 -0.1526 -0.2757 -0.1452
  460loPI   C2A 7352  11.856  11.884   8.846  0.1496  0.4009 -0.0879
  460loPI   C3A 7353  11.909  11.681   8.481 -0.0369  0.1616 -0.1192
  460loPI   C4A 7354  11.659  11.753   8.169  0.1197 -0.0460  0.0304
  460loPI   C5A 7355  11.287  11.455   7.941  0.1356  0.0484  0.1299
  460loPI   C6A 7356  10.940  11.219   7.920  0.1294  0.2725 -0.1293
  460loPI   C1B 7357  11.255  12.161   9.305 -0.3450  0.3139  0.0061
  460loPI   C2B 7358  11.098  12.192   8.898 -0.2681  0.0126 -0.1444
  460loPI   C3B 7359  11.008  12.204   8.456  0.2015  0.1209 -0.0967
  460loPI   C4B 7360  11.320  12.359   8.203  0.2296 -0.1551 -0.0003
  461loPI    C1 7361  15.358   1.382  10.364  0.0458  0.1456 -0.2271
  461loPI    C2 7362  15.693   1.601  10.350 -0.0159  0.2545 -0.0385
  461loPI    C3 7363  15.631   1.349  10.654  0.0041  0.0540 -0.1981
  461loPI   PO4 7364  15.292   1.381  10.076  0.0979 -0.0213  0.1535
  461loPI   GL1 7365  15.529   1.497   9.720 -0.2474  0.0889  0.1293
  461loPI   GL2 7366  15.821   1.501   9.884  0.0533  0.0048 -0.1980
  461loPI   C1A 7367  15.564   1.531   9.312 -0.0551 -0.0816  0.0870
  461loPI   C2A 7368  15.456   1.642   8.892 -0.1886  0.2443  0.2434
  461loPI   C3A 7369  15.558   1.528   8.521 -0.1506 -0.0364 -0.3864
  461loPI   C4A 7370  15.431   1.635   8.053  0.2074 -0.1723 -0.1220
  461loPI   C5A 7371  15.384   1.856   7.645  0.2555 -0.1667  0.2296
  461loPI   C6A 7372  15.177   1.915   7.258  0.1623 -0.1539  0.1051
  461loPI   C1B 7373  16.013   1.435   9.523 -0.1920  0.2123  0.1714
  461loPI   C2B 7374  16.036   1.380   9.089  0.0342 -0.3163  0.0247
  461loPI   C3B 7375  16.047   1.331   8.627 -0.0271 -0.0624  0.1354
  461loPI   C4B 7376  15.873   1.486   8.139 -0.2069  0.2907  0.0347
  462loPI    C1 7377   6.612   5.671  10.479 -0.0673 -0.0594 -0.3315
  462loPI    C2 7378   6.663   5.292  10.595 -0.2100  0.0455  0.0916
  462loPI    C3 7379   6.978   5.537  10.567 -0.1539 -0.0251  0.1020
  462loPI   PO4 7380   6.362   5.543  10.256 -0.0727  0.0314 -0.5372
  462loPI   GL1 7381   6.177   5.514   9.883  0.2845  0.1345  0.1217
  462loPI   GL2 7382   6.220   5.864   9.701  0.0594  0.1205  0.0607
  462loPI   C1A 7383   6.285   5.404   9.385  0.3873  0.1579  0.1822
  462loPI   C2A 7384   6.286   5.266   8.977  0.2065  0.0713  0.0122
  462loPI   C3A 7385   6.354   5.231   8.548 -0.1609 -0.0045  0.1102
  462loPI   C4A 7386   6.354   5.168   8.061  0.0114 -0.2069 -0.1849
  462loPI   C5A 7387   6.455   5.388   7.816 -0.1514 -0.0224  0.0119
  462loPI   C6A 7388   6.798   5.646   7.704  0.2101  0.1132  0.0665
  462loPI   C1B 7389   6.200   5.865   9.222 -0.0533 -0.1441  0.3003
  462loPI   C2B 7390   6.207   5.740   8.842 -0.1207 -0.1538  0.0729
  462loPI   C3B 7391   6.210   5.663   8.295  0.0136 -0.1795 -0.1147
  462loPI   C4B 7392   6.145   5.755   7.918 -0.2616  0.0856 -0.1867
  463loPI    C1 7393  17.146  17.799   9.947 -0.1540  0.1132 -0.0831
  463loPI    C2 7394  16.927  17.469   9.891  0.0791 -0.0614  0.0149
  463loPI    C3 7395  17.136  17.515  10.229 -0.0548  0.2491  0.0589
  463loPI   PO4 7396  17.335  17.745   9.717  0.1076 -0.0900  0.0129
  463loPI   GL1 7397  17.168  17.992   9.402  0.1086 -0.1246  0.1535
  463loPI   GL2 7398  17.240  18.248   9.272 -0.1254 -0.1631  0.1315
  463loPI   C1A 7399  17.101  17.908   8.968  0.1582  0.0151  0.0022
  463loPI   C2A 7400  17.087  18.070   8.523  0.0102 -0.2797 -0.4302
  463loPI   C3A 7401  16.910  18.230   8.164  0.0190 -0.3021  0.0354
  463loPI   C4A 7402  16.884  18.381   7.813  0.2620  0.0175 -0.0379
  463loPI   C5A 7403  16.725  18.683   7.613 -0.2554 -0.1919  0.1064
  463loPI   C6A 7404  16.317  18.807   7.420 -0.1798  0.1575  0.2517
  463loPI   C1B 7405  17.121  18.432   8.913 -0.1109  0.1959  0.0551
  463loPI   C2B 7406  17.071  18.650   8.562  0.1875  0.0986 -0.3238
  463loPI   C3B 7407  16.767  18.778   8.212  0.0417 -0.0749  0.0431
  463loPI   C4B 7408  16.951  19.047   7.930  0.3396  0.3180  0.1599
  464loPI    C1 7409  16.329   0.946  10.455  0.0714  0.1203  0.0074
  464loPI    C2 7410  16.096   1.268  10.501 -0.2676 -0.1535  0.2566
  464loPI    C3 7411  16.155   1.018  10.807  0.0260 -0.3103  0.0773
  464loPI   PO4 7412  16.172   0.876  10.157  0.0094  0.1989 -0.0010
  464loPI   GL1 7413  16.341   0.824   9.824  0.2990  0.3396  0.0807
  464loPI   GL2 7414  16.149   0.550   9.752  0.3475 -0.1846  0.0374
  464loPI   C1A 7415  16.227   0.811   9.295 -0.0369 -0.0389 -0.0080
  464loPI   C2A 7416  16.210   0.770   8.779  0.3589  0.0399 -0.0903
  464loPI   C3A 7417  16.296   0.907   8.409  0.0887  0.0845  0.1483
  464loPI   C4A 7418  16.140   1.065   8.016  0.0621  0.0679  0.2346
  464loPI   C5A 7419  16.011   0.942   7.665 -0.1693  0.0803  0.4158
  464loPI   C6A 7420  15.716   1.015   7.278  0.0826 -0.1118 -0.1596
  464loPI   C1B 7421  15.878   0.542   9.469 -0.0069  0.1664 -0.1650
  464loPI   C2B 7422  15.816   0.529   8.992 -0.0393 -0.0592 -0.0905
  464loPI   C3B 7423  15.830   0.532   8.525 -0.1847  0.1274  0.2840
  464loPI   C4B 7424  15.937   0.656   8.159  0.4409 -0.1166  0.0856
  465loPI    C1 7425  12.956   2.807  10.721 -0.0682 -0.0262  0.0070
  465loPI    C2 7426  13.105   3.122  10.918 -0.1340 -0.0214  0.0497
  465loPI    C3 7427  13.089   2.764  11.096 -0.0833 -0.0434  0.0104
  465loPI   PO4 7428  12.796   2.945  10.487 -0.0924  0.2919  0.2245
  465loPI   GL1 7429  12.920   3.325  10.187  0.1714 -0.0523  0.0041
  465loPI   GL2 7430  12.712   3.559  10.152  0.2215 -0.1910  0.0830
  465loPI   C1A 7431  12.808   3.201   9.693 -0.0871 -0.2440  0.0164
  465loPI   C2A 7432  12.878   3.254   9.246  0.1329 -0.0481  0.1560
  465loPI   C3A 7433  12.865   3.362   8.800 -0.0299  0.3171 -0.0099
  465loPI   C4A 7434  12.795   3.443   8.398 -0.2238  0.2246 -0.0509
  465loPI   C5A 7435  12.589   3.481   8.097  0.0311 -0.3065  0.1345
  465loPI   C6A 7436  12.218   3.470   7.848  0.1470  0.0326  0.1461
  465loPI   C1B 7437  12.657   3.732   9.708 -0.2232  0.1658 -0.3299
  465loPI   C2B 7438  12.702   3.715   9.317  0.0513 -0.0937  0.4476
  465loPI   C3B 7439  12.705   3.838   8.839  0.0246  0.0126  0.2400
  465loPI   C4B 7440  12.703   3.939   8.481 -0.1051  0.0127 -0.0247
  466loPI    C1 7441  12.878   0.264  10.590  0.2509  0.2584 -0.2346
  466loPI    C2 7442  13.189   0.018  10.642  0.1258  0.1486  0.0070
  466loPI    C3 7443  13.175   0.367  10.837  0.0093  0.0685  0.1446
  466loPI   PO4 7444  12.793   0.271  10.434 -0.1145 -0.3086  0.4199
  466loPI   GL1 7445  12.671   0.523  10.088  0.1741  0.1613 -0.0523
  466loPI   GL2 7446  12.933   0.534   9.913  0.2178 -0.3652 -0.0939
  466loPI   C1A 7447  12.500   0.440   9.722  0.1740 -0.2123 -0.1885
  466loPI   C2A 7448  12.553   0.443   9.243 -0.2418  0.0611 -0.0698
  466loPI   C3A 7449  12.509   0.539   8.767 -0.1081  0.1703  0.0139
  466loPI   C4A 7450  12.563   0.619   8.402 -0.0145 -0.1563 -0.0978
  466loPI   C5A 7451  12.658   0.310   8.055 -0.2875  0.1246 -0.0860
  466loPI   C6A 7452  12.841  -0.004   7.825 -0.1442 -0.0042  0.0447
  466loPI   C1B 7453  12.950   0.474   9.505 -0.2026  0.0709 -0.1870
  466loPI   C2B 7454  13.121   0.301   9.112 -0.2263 -0.1258 -0.0097
  466loPI   C3B 7455  13.035   0.503   8.778  0.4483 -0.2678  0.0179
  466loPI   C4B 7456  13.064   0.498   8.290 -0.0420  0.0501  0.1619
  467loPI    C1 7457   3.236   2.760  10.278 -0.2750  0.2284  0.1966
  467loPI    C2 7458   3.011   2.621   9.977  0.1682 -0.1457  0.0260
  467loPI    C3 7459   2.960   2.479  10.347 -0.0809 -0.0018  0.0496
  467loPI   PO4 7460   3.470   2.690  10.248  0.1364 -0.2902 -0.1085
  467loPI   GL1 7461   3.684   2.666   9.924 -0.4882  0.1064 -0.0287
  467loPI   GL2 7462   3.880   2.471   9.895  0.0479  0.2381 -0.0870
  467loPI   C1A 7463   3.699   2.799   9.523 -0.2974 -0.1828 -0.0217
  467loPI   C2A 7464   3.653   2.859   9.066  0.2500  0.1853 -0.0015
  467loPI   C3A 7465   3.663   2.809   8.564 -0.0194  0.1807  0.0744
  467loPI   C4A 7466   3.572   2.888   8.173 -0.2098  0.0599  0.2793
  467loPI   C5A 7467   3.473   2.855   7.713 -0.1297  0.2549  0.1553
  467loPI   C6A 7468   3.078   2.985   7.423  0.3134 -0.0703 -0.1404
  467loPI   C1B 7469   3.804   2.261   9.458 -0.1060  0.1725  0.1803
  467loPI   C2B 7470   3.710   2.301   9.045 -0.0734  0.3973 -0.1498
  467loPI   C3B 7471   3.739   2.316   8.663  0.2210 -0.1188 -0.3226
  467loPI   C4B 7472   3.725   2.366   8.314 -0.3043 -0.1415 -0.0989
  468loPI    C1 7473  12.593  13.552  10.158 -0.1237  0.1332 -0.0415
  468loPI    C2 7474  12.619  13.925  10.300 -0.0158  0.0466  0.1716
  468loPI    C3 7475  12.279  13.719  10.341  0.0905 -0.0648  0.5320
  468loPI   PO4 7476  12.729  13.413   9.981 -0.1441  0.2671 -0.0022
  468loPI   GL1 7477  12.774  13.109   9.633 -0.0516  0.1182 -0.2863
  468loPI   GL2 7478  12.660  13.295   9.434  0.2250 -0.0495  0.1839
  468loPI   C1A 7479  12.999  12.793   9.457  0.1841 -0.0379 -0.1743
  468loPI   C2A 7480  13.169  12.695   9.112 -0.1722 -0.0785  0.0895
  468loPI   C3A 7481  13.069  12.765   8.664  0.0841 -0.2325  0.0926
  468loPI   C4A 7482  12.698  12.974   8.553 -0.0664 -0.0442  0.0368
  468loPI   C5A 7483  12.732  13.381   8.657  0.1018 -0.0457  0.2276
  468loPI   C6A 7484  12.705  13.628   8.936 -0.2353  0.0236  0.0938
  468loPI   C1B 7485  13.011  13.225   9.167  0.0643  0.1558  0.2401
  468loPI   C2B 7486  13.204  13.285   8.791 -0.0832 -0.3565 -0.2621
  468loPI   C3B 7487  13.131  13.237   8.379  0.1169 -0.1473  0.0877
  468loPI   C4B 7488  13.228  13.257   7.876  0.1108  0.0105 -0.2063
  469loPI    C1 7489   5.509  16.863   9.895  0.1045 -0.0336  0.0735
  469loPI    C2 7490   5.760  17.074  10.124 -0.0504  0.3596 -0.1110
  469loPI    C3 7491   5.708  17.174   9.740  0.0400 -0.1561 -0.2641
  469loPI   PO4 7492   5.635  16.567   9.894 -0.2060  0.1130 -0.1603
  469loPI   GL1 7493   5.683  16.382   9.467 -0.1425 -0.3996 -0.1486
  469loPI   GL2 7494   5.513  16.654   9.439 -0.2097  0.0560 -0.1433
  469loPI   C1A 7495   5.895  16.395   9.160  0.0298  0.0546  0.2285
  469loPI   C2A 7496   5.940  16.467   8.744 -0.1452 -0.0975 -0.1820
  469loPI   C3A 7497   6.010  16.167   8.295 -0.0257 -0.0901  0.1524
  469loPI   C4A 7498   6.258  16.000   7.952  0.0642 -0.0237 -0.1060
  469loPI   C5A 7499   6.261  15.616   7.787  0.1723 -0.1037 -0.0603
  469loPI   C6A 7500   6.156  15.150   7.850  0.2548  0.2923  0.1815
  469loPI   C1B 7501   5.474  16.637   9.050 -0.2965 -0.0473 -0.1869
  469loPI   C2B 7502   5.471  16.578   8.631 -0.1594 -0.0083 -0.0701
  469loPI   C3B 7503   5.626  16.533   8.204 -0.1546 -0.0485 -0.0183
  469loPI   C4B 7504   5.803  16.486   7.900  0.0099  0.2734  0.0751
  470loPI    C1 7505  15.236   9.307  10.477  0.0844  0.1025  0.1496
  470loPI    C2 7506  15.244   8.974  10.255 -0.1354  0.1943  0.0008
  470loPI    C3 7507  15.504   9.020  10.556  0.0020 -0.0398 -0.0796
  470loPI   PO4 7508  15.231   9.489  10.324 -0.0596  0.2331  0.0443
  470loPI   GL1 7509  15.148   9.547   9.944 -0.3288 -0.0561 -0.2129
  470loPI   GL2 7510  15.122   9.263   9.811 -0.0483  0.1099  0.3309
  470loPI   C1A 7511  15.202   9.725   9.538 -0.1226 -0.0534  0.1318
  470loPI   C2A 7512  15.242   9.704   9.046  0.0953  0.1320  0.0930
  470loPI   C3A 7513  15.272   9.669   8.595 -0.0091 -0.1100 -0.2442
  470loPI   C4A 7514  15.279   9.629   8.144  0.0198  0.2394 -0.1549
  470loPI   C5A 7515  15.394   9.617   7.771 -0.0288  0.1212  0.1279
  470loPI   C6A 7516  15.430  10.063   7.563  0.0821 -0.2010  0.0393
  470loPI   C1B 7517  15.147   9.230   9.306  0.0192  0.3323 -0.3736
  470loPI   C2B 7518  15.178   9.176   8.765  0.1775 -0.0028 -0.0190
  470loPI   C3B 7519  15.219   9.087   8.354 -0.2649 -0.4141 -0.3302
  470loPI   C4B 7520  15.168   9.160   7.936  0.1269  0.0927 -0.0653
  471loPI    C1 7521   0.342  15.301  10.209  0.0894  0.0947  0.1171
  471loPI    C2 7522   0.347  14.942  10.385 -0.0251  0.1079  0.1480
  471loPI    C3 7523   0.354  15.275  10.608  0.0551  0.1253  0.1201
  471loPI   PO4 7524   0.537  15.272  10.028 -0.3358 -0.2261 -0.1046
  471loPI   GL1 7525   0.546  15.070   9.565  0.0469 -0.0394  0.1711
  471loPI   GL2 7526   0.244  15.132   9.437  0.1019  0.0009 -0.1576
  471loPI   C1A 7527   0.524  15.030   9.095 -0.0623 -0.1403 -0.0532
  471loPI   C2A 7528   0.617  15.037   8.642 -0.2626  0.1578 -0.0696
  471loPI   C3A 7529   0.486  15.054   8.216  0.0945 -0.3476  0.0784
  471loPI   C4A 7530   0.332  15.124   7.738 -0.2730 -0.1585 -0.2700
  471loPI   C5A 7531   0.110  15.371   7.483 -0.1149 -0.2892  0.0624
  471loPI   C6A 7532   0.055  15.470   7.018  0.0139 -0.0656 -0.0517
  471loPI   C1B 7533   0.100  15.308   9.047  0.1404  0.2666 -0.0110
  471loPI   C2B 7534   0.197  15.395   8.556  0.0009 -0.0780  0.0856
  471loPI   C3B 7535   0.211  15.490   8.125  0.1608 -0.1224  0.0521
  471loPI   C4B 7536  -0.016  15.620   7.876 -0.2277  0.2051 -0.0147
  472loPI    C1 7537  15.044  16.492  10.223 -0.1614  0.0309  0.0576
  472loPI    C2 7538  14.990  16.852  10.390 -0.0147  0.0610  0.0415
  472loPI    C3 7539  15.360  16.715  10.325 -0.0689  0.0412 -0.2416
  472loPI   PO4 7540  14.899  16.517   9.891  0.2321  0.0613  0.3376
  472loPI   GL1 7541  14.968  16.815   9.515  0.3602 -0.2885  0.0096
  472loPI   GL2 7542  14.580  16.809   9.440 -0.1025 -0.0511 -0.1303
  472loPI   C1A 7543  15.009  16.558   9.128  0.1897  0.2722 -0.1801
  472loPI   C2A 7544  15.001  16.627   8.687 -0.1691 -0.1073 -0.1540
  472loPI   C3A 7545  14.954  16.511   8.283  0.1351  0.2045  0.4363
  472loPI   C4A 7546  14.629  16.397   7.740 -0.2379  0.1174 -0.0387
  472loPI   C5A 7547  14.797  16.044   7.366  0.0316  0.0091 -0.3464
  472loPI   C6A 7548  14.954  16.203   6.920  0.0350  0.1098  0.1140
  472loPI   C1B 7549  14.363  16.795   9.019 -0.3874  0.4971  0.0702
  472loPI   C2B 7550  14.288  16.764   8.513 -0.1172 -0.0751  0.1697
  472loPI   C3B 7551  14.397  16.753   8.134 -0.0572 -0.0654  0.3772
  472loPI   C4B 7552  14.400  16.866   7.703  0.3202 -0.3309 -0.0963
  473loPI    C1 7553   7.119   9.901  10.170 -0.0820 -0.0795 -0.0379
  473loPI    C2 7554   7.511   9.824  10.161 -0.0806 -0.0877  0.0717
  473loPI    C3 7555   7.360  10.059  10.447 -0.1683 -0.1560  0.0819
  473loPI   PO4 7556   7.065   9.980   9.859  0.1515  0.2036  0.1715
  473loPI   GL1 7557   7.121   9.829   9.451  0.0038  0.1375  0.0367
  473loPI   GL2 7558   7.102   9.461   9.359 -0.0999 -0.1183  0.0154
  473loPI   C1A 7559   7.496   9.699   9.164  0.3119 -0.0634  0.2007
  473loPI   C2A 7560   7.497   9.632   8.776  0.1928  0.2711 -0.1159
  473loPI   C3A 7561   7.743   9.866   8.491  0.1067  0.1088  0.0301
  473loPI   C4A 7562   7.932   9.667   8.176  0.0213  0.0105  0.0776
  473loPI   C5A 7563   8.242   9.581   8.025  0.0570 -0.3058 -0.0699
  473loPI   C6A 7564   8.647   9.851   7.880  0.0368 -0.2406 -0.0489
  473loPI   C1B 7565   7.087   9.370   8.967 -0.4801 -0.0970 -0.0546
  473loPI   C2B 7566   6.953   9.071   8.764 -0.1523 -0.2227  0.3129
  473loPI   C3B 7567   6.989   9.027   8.332  0.0014 -0.0142  0.0341
  473loPI   C4B 7568   7.010   8.943   7.954 -0.0832  0.0822  0.0097
  474loPI    C1 7569   2.703   3.964  10.702 -0.0958 -0.0154 -0.2650
  474loPI    C2 7570   2.373   3.744  10.648 -0.0829 -0.1273  0.0862
  474loPI    C3 7571   2.681   3.596  10.857  0.0686  0.0924  0.0221
  474loPI   PO4 7572   2.748   4.029  10.416 -0.0715 -0.0400 -0.2836
  474loPI   GL1 7573   3.102   4.048  10.193 -0.0117  0.0902  0.1510
  474loPI   GL2 7574   2.892   3.946   9.935 -0.1663 -0.0019 -0.2459
  474loPI   C1A 7575   3.363   4.025   9.850 -0.2860  0.2861 -0.0128
  474loPI   C2A 7576   3.534   3.859   9.374 -0.0911 -0.2859  0.0169
  474loPI   C3A 7577   3.456   3.894   8.882  0.2141  0.1432  0.2545
  474loPI   C4A 7578   3.443   3.940   8.361  0.2616 -0.2487 -0.1628
  474loPI   C5A 7579   3.472   4.057   7.940  0.0427 -0.0103  0.3078
  474loPI   C6A 7580   3.194   3.970   7.485 -0.0796 -0.4292 -0.2331
  474loPI   C1B 7581   3.068   4.002   9.492  0.0025  0.1047 -0.1890
  474loPI   C2B 7582   3.029   4.017   8.998 -0.1665  0.1565 -0.0458
  474loPI   C3B 7583   2.972   4.086   8.519  0.1144 -0.1806 -0.2767
  474loPI   C4B 7584   3.013   4.078   8.116 -0.1176  0.0084  0.1667
  475loPI    C1 7585   6.933   4.340  10.404 -0.0483 -0.3883  0.0216
  475loPI    C2 7586   6.689   4.636  10.517 -0.0343 -0.2845 -0.2135
  475loPI    C3 7587   6.765   4.333  10.767 -0.1250 -0.1397 -0.0073
  475loPI   PO4 7588   6.878   4.335  10.174  0.0685  0.1238 -0.0902
  475loPI   GL1 7589   6.529   4.135   9.927 -0.1358 -0.1516 -0.1068
  475loPI   GL2 7590   6.642   3.886   9.847  0.0746 -0.1028 -0.2020
  475loPI   C1A 7591   6.516   4.237   9.533  0.2068 -0.2477 -0.0139
  475loPI   C2A 7592   6.533   4.189   9.064  0.0007  0.0898 -0.0250
  475loPI   C3A 7593   6.539   4.227   8.712  0.4887  0.4041  0.3212
  475loPI   C4A 7594   6.561   4.247   8.310 -0.0250  0.1083 -0.0893
  475loPI   C5A 7595   6.617   4.191   7.880  0.2030  0.1437  0.3229
  475loPI   C6A 7596   6.456   4.018   7.577 -0.0254  0.0168  0.0297
  475loPI   C1B 7597   6.622   3.761   9.409 -0.0026  0.3587 -0.0258
  475loPI   C2B 7598   6.712   3.725   8.998 -0.0818  0.0350  0.1256
  475loPI   C3B 7599   6.627   3.761   8.563  0.0982  0.1190  0.1823
  475loPI   C4B 7600   6.719   3.707   8.085  0.1739 -0.3033 -0.0811
  476loPI    C1 7601  10.772  14.732  10.108  0.0289 -0.0976  0.0854
  476loPI    C2 7602  10.670  14.434  10.354 -0.1099 -0.0073  0.1381
  476loPI    C3 7603  10.429  14.750  10.312 -0.1081 -0.0415 -0.1466
  476loPI   PO4 7604  10.831  14.593   9.871 -0.4917  0.0175 -0.1093
  476loPI   GL1 7605  10.805  14.691   9.456  0.2198 -0.1081  0.3641
  476loPI   GL2 7606  10.694  14.356   9.461  0.1468  0.2059  0.1037
  476loPI   C1A 7607  10.925  14.612   9.016  0.2202 -0.1006  0.3210
  476loPI   C2A 7608  10.717  14.551   8.590 -0.2196  0.1740  0.1351
  476loPI   C3A 7609  10.763  14.481   8.185 -0.0677 -0.0868 -0.0067
  476loPI   C4A 7610  11.091  14.195   7.985 -0.1927  0.1526  0.1145
  476loPI   C5A 7611  11.103  13.997   7.632 -0.0872 -0.0917  0.1352
  476loPI   C6A 7612  10.740  13.896   7.467 -0.1273  0.0719  0.0903
  476loPI   C1B 7613  10.428  14.426   9.061 -0.1033 -0.0569 -0.1706
  476loPI   C2B 7614  10.265  14.489   8.641  0.1557 -0.1470  0.0176
  476loPI   C3B 7615  10.225  14.602   8.137  0.0663 -0.0035  0.0126
  476loPI   C4B 7616  10.508  14.608   7.791 -0.2563  0.1226  0.1669
  477loPI    C1 7617   0.087   1.811   9.803 -0.0098  0.0074  0.0216
  477loPI    C2 7618   0.224   1.752  10.174 -0.1046 -0.1324  0.0353
  477loPI    C3 7619  -0.154   1.868  10.117 -0.0666 -0.0312 -0.0149
  477loPI   PO4 7620   0.055   1.643   9.627 -0.1790 -0.2085  0.2193
  477loPI   GL1 7621  -0.056   1.460   9.211  0.1148  0.3527  0.3197
  477loPI   GL2 7622   0.308   1.510   9.146 -0.2440  0.3492 -0.0394
  477loPI   C1A 7623  -0.258   1.531   8.870  0.2709  0.0923  0.3056
  477loPI   C2A 7624  -0.304   1.622   8.444  0.2354  0.0999 -0.0950
  477loPI   C3A 7625  -0.217   1.488   7.993  0.0653  0.1328 -0.0050
  477loPI   C4A 7626  -0.120   1.616   7.569 -0.1836 -0.0947 -0.0277
  477loPI   C5A 7627   0.256   1.815   7.222  0.3477  0.2418  0.0595
  477loPI   C6A 7628   0.639   1.911   7.065  0.3245 -0.0321  0.2815
  477loPI   C1B 7629   0.207   1.571   8.683  0.0264 -0.0120  0.2044
  477loPI   C2B 7630   0.198   1.677   8.272 -0.0106  0.0474 -0.2900
  477loPI   C3B 7631   0.487   1.608   7.906  0.0796  0.0322  0.1457
  477loPI   C4B 7632   0.608   1.743   7.584  0.0465  0.0971 -0.0417
  478loPI    C1 7633  14.460   1.740  10.327  0.1351  0.3773  0.1771
  478loPI    C2 7634  14.499   1.377  10.492 -0.0114  0.1641 -0.2440
  478loPI    C3 7635  14.232   1.636  10.640 -0.0593  0.0205 -0.0753
  478loPI   PO4 7636  14.423   1.739  10.145 -0.0546  0.0806  0.1371
  478loPI   GL1 7637  14.533   1.899   9.715 -0.2963  0.0631 -0.0921
  478loPI   GL2 7638  14.275   1.661   9.677 -0.1210 -0.3646  0.3819
  478loPI   C1A 7639  14.628   1.852   9.362 -0.1757  0.0667  0.0218
  478loPI   C2A 7640  14.513   1.927   8.909 -0.1293 -0.2126  0.3464
  478loPI   C3A 7641  14.579   1.843   8.506 -0.1784  0.1615  0.1448
  478loPI   C4A 7642  14.477   1.919   8.073  0.2351  0.0251  0.1276
  478loPI   C5A 7643  14.458   1.728   7.646 -0.1749 -0.2555  0.2175
  478loPI   C6A 7644  14.535   1.846   7.259  0.0802  0.0726 -0.1215
  478loPI   C1B 7645  14.250   1.553   9.209 -0.0237  0.3507 -0.2580
  478loPI   C2B 7646  14.209   1.529   8.691  0.0121  0.1440  0.1813
  478loPI   C3B 7647  14.144   1.531   8.144 -0.3291  0.0445 -0.0355
  478loPI   C4B 7648  13.860   1.658   7.776 -0.0094 -0.0972 -0.0905
  479loPI    C1 7649   5.367  15.905  10.177  0.0560 -0.1476  0.1289
  479loPI    C2 7650   5.344  16.304  10.198  0.0702 -0.1456  0.1050
  479loPI    C3 7651   5.179  16.079  10.484  0.0854 -0.1219  0.1325
  479loPI   PO4 7652   5.255  15.859   9.921  0.4228  0.0340  0.1770
  479loPI   GL1 7653   5.372  15.812   9.448  0.2515  0.0119  0.0376
  479loPI   GL2 7654   5.710  15.888   9.419 -0.0455  0.2607  0.1712
  479loPI   C1A 7655   5.186  16.215   9.228 -0.1162  0.1869 -0.0707
  479loPI   C2A 7656   5.187  16.281   8.872 -0.1508 -0.2595  0.1592
  479loPI   C3A 7657   5.048  16.319   8.533  0.0686 -0.0016 -0.0538
  479loPI   C4A 7658   5.060  16.211   8.185  0.2734 -0.2458  0.1294
  479loPI   C5A 7659   4.929  16.435   7.849 -0.2381 -0.0253  0.1207
  479loPI   C6A 7660   4.795  16.813   7.623 -0.0420 -0.0931 -0.2097
  479loPI   C1B 7661   5.630  15.997   8.906  0.1152 -0.2833  0.1664
  479loPI   C2B 7662   5.526  16.096   8.473 -0.2787  0.3139  0.0245
  479loPI   C3B 7663   5.627  16.030   7.986 -0.0329  0.0252  0.1229
  479loPI   C4B 7664   5.899  16.015   7.615  0.2216  0.1703 -0.1070
  480loPI    C1 7665  10.720  15.940   9.933 -0.0302  0.0006  0.0464
  480loPI    C2 7666  11.101  16.030   9.852 -0.1088  0.1231 -0.1977
  480loPI    C3 7667  10.960  16.075  10.223  0.1111  0.0847 -0.1074
  480loPI   PO4 7668  10.571  16.042   9.780  0.1379  0.2690 -0.5123
  480loPI   GL1 7669  10.435  15.897   9.373  0.3647  0.0324 -0.3014
  480loPI   GL2 7670  10.022  15.790   9.385 -0.0419 -0.0708 -0.2506
  480loPI   C1A 7671  10.607  16.056   9.012  0.3649  0.2038 -0.1439
  480loPI   C2A 7672  10.795  16.313   8.845 -0.3019  0.0578  0.0587
  480loPI   C3A 7673  10.967  16.432   8.489  0.0782 -0.2172 -0.0593
  480loPI   C4A 7674  11.004  16.732   8.034  0.1919  0.1813  0.0265
  480loPI   C5A 7675  10.714  16.722   7.757 -0.2615  0.1037  0.1742
  480loPI   C6A 7676  10.425  17.041   7.484  0.0691 -0.1840  0.2968
  480loPI   C1B 7677  10.122  15.788   9.008 -0.3219  0.0287 -0.4211
  480loPI   C2B 7678  10.239  15.876   8.585 -0.1323 -0.0529  0.0244
  480loPI   C3B 7679  10.364  15.905   8.182 -0.0530 -0.1475  0.1351
  480loPI   C4B 7680  10.296  16.270   7.868  0.2564 -0.1050 -0.1663
  481loPI    C1 7681  15.639  17.593  10.098  0.0187 -0.1926 -0.2526
  481loPI    C2 7682  15.853  17.829  10.340 -0.1081 -0.0110 -0.3147
  481loPI    C3 7683  15.943  17.440  10.308 -0.1394 -0.0560  0.0852
  481loPI   PO4 7684  15.524  17.781   9.943  0.2267 -0.0862 -0.0280
  481loPI   GL1 7685  15.361  17.751   9.508 -0.0472  0.1315  0.0527
  481loPI   GL2 7686  15.460  18.066   9.537 -0.0385 -0.1713 -0.0754
  481loPI   C1A 7687  15.306  17.565   9.074  0.1878  0.1888 -0.1510
  481loPI   C2A 7688  15.234  17.586   8.713  0.3684 -0.1377  0.0589
  481loPI   C3A 7689  15.203  17.451   8.228 -0.1272 -0.3703 -0.0502
  481loPI   C4A 7690  15.329  17.717   7.932  0.0975  0.0506 -0.1941
  481loPI   C5A 7691  15.498  17.925   7.659 -0.1024 -0.3386  0.0003
  481loPI   C6A 7692  15.293  17.843   7.292  0.0907  0.0918 -0.1351
  481loPI   C1B 7693  15.178  18.150   9.152  0.0037 -0.0300 -0.0221
  481loPI   C2B 7694  15.145  18.096   8.761 -0.0428  0.2125  0.4924
  481loPI   C3B 7695  15.196  18.009   8.413 -0.0447  0.2222  0.1937
  481loPI   C4B 7696  15.128  18.247   8.041  0.2482 -0.2744 -0.1034
  482loPI    C1 7697  18.292   8.436  10.253 -0.1158 -0.1151 -0.0017
  482loPI    C2 7698  18.370   8.158  10.530 -0.1794  0.0273  0.1616
  482loPI    C3 7699  18.265   8.527  10.642 -0.0187  0.1400 -0.0525
  482loPI   PO4 7700  18.562   8.416  10.123 -0.0129  0.0500  0.3091
  482loPI   GL1 7701  18.532   8.316   9.680 -0.0997 -0.3001  0.2458
  482loPI   GL2 7702  18.159   8.332   9.710  0.2058 -0.1282  0.0122
  482loPI   C1A 7703  18.433   8.292   9.230  0.0705 -0.1647  0.2967
  482loPI   C2A 7704  18.382   8.713   8.924 -0.0944  0.0176  0.1136
  482loPI   C3A 7705  18.326   8.845   8.452 -0.2918 -0.1804  0.0570
  482loPI   C4A 7706  18.369   9.057   7.965  0.1299 -0.0373 -0.1388
  482loPI   C5A 7707  18.302   9.140   7.516 -0.0091  0.0021 -0.0059
  482loPI   C6A 7708  18.111   9.147   7.218  0.1042  0.1254 -0.1419
  482loPI   C1B 7709  18.333   8.711   9.563 -0.1517 -0.0672  0.2322
  482loPI   C2B 7710  18.670   8.768   9.326 -0.0714 -0.2695  0.0991
  482loPI   C3B 7711  18.897   8.971   9.138 -0.0324  0.0543 -0.0278
  482loPI   C4B 7712  19.110   9.266   9.367 -0.1296  0.0935 -0.0239
  483loPI    C1 7713   6.937   1.193   9.824  0.0261 -0.1320 -0.0065
  483loPI    C2 7714   6.896   1.236  10.220  0.0786  0.2172 -0.0364
  483loPI    C3 7715   7.068   0.907  10.072 -0.3827 -0.1438  0.2036
  483loPI   PO4 7716   6.739   1.353   9.763  0.0475 -0.0762 -0.1572
  483loPI   GL1 7717   6.616   1.328   9.419 -0.0718  0.0438  0.1252
  483loPI   GL2 7718   6.312   1.443   9.582  0.1651  0.1544  0.0672
  483loPI   C1A 7719   6.681   1.305   8.967  0.0207  0.1372  0.1723
  483loPI   C2A 7720   6.645   1.368   8.581  0.3813 -0.1246 -0.0384
  483loPI   C3A 7721   6.724   1.319   8.118 -0.1724 -0.2983 -0.0323
  483loPI   C4A 7722   6.693   1.511   7.631 -0.2175  0.3480  0.1696
  483loPI   C5A 7723   6.490   1.515   7.182  0.2376 -0.1963  0.0174
  483loPI   C6A 7724   6.324   1.258   6.883 -0.0091  0.0202  0.1701
  483loPI   C1B 7725   6.247   1.497   9.153  0.0358  0.1662 -0.0806
  483loPI   C2B 7726   6.225   1.537   8.760  0.1469 -0.0486  0.1207
  483loPI   C3B 7727   6.215   1.572   8.369 -0.0438 -0.1001 -0.2282
  483loPI   C4B 7728   6.287   1.444   7.979  0.2050  0.0215 -0.1048
  484loPI    C1 7729  10.692  17.968  10.631  0.3428 -0.0257  0.0520
  484loPI    C2 7730  10.425  17.733  10.814  0.1626 -0.1112 -0.3100
  484loPI    C3 7731  10.435  18.124  10.895  0.2583 -0.1879  0.0672
  484loPI   PO4 7732  10.696  17.782  10.434 -0.2272 -0.1081  0.2295
  484loPI   GL1 7733  10.779  17.600  10.120  0.1468  0.1636 -0.2711
  484loPI   GL2 7734  11.097  17.848  10.074  0.1673 -0.3266 -0.0220
  484loPI   C1A 7735  10.686  17.405   9.692  0.2940  0.1131  0.0084
  484loPI   C2A 7736  10.770  17.629   9.259  0.2339 -0.0917  0.0003
  484loPI   C3A 7737  10.719  17.669   8.789  0.2418 -0.0455  0.3155
  484loPI   C4A 7738  10.771  17.696   8.319 -0.0693  0.0755 -0.0540
  484loPI   C5A 7739  10.822  17.849   7.951  0.1403  0.0185  0.0763
  484loPI   C6A 7740  10.764  18.033   7.589 -0.1225  0.2577 -0.1503
  484loPI   C1B 7741  10.991  17.934   9.665 -0.1586 -0.1345 -0.0205
  484loPI   C2B 7742  11.116  18.032   9.281  0.0085 -0.1797  0.0355
  484loPI   C3B 7743  11.105  18.096   8.828 -0.0101 -0.0533 -0.3836
  484loPI   C4B 7744  11.097  18.019   8.421  0.2296 -0.1731 -0.1427
  485loPI    C1 7745  15.083   5.429  10.354  0.0210  0.0275  0.0448
  485loPI    C2 7746  14.832   5.740  10.338  0.0502  0.0496  0.0112
  485loPI    C3 7747  14.912   5.565  10.689 -0.2661 -0.1653 -0.0190
  485loPI   PO4 7748  15.275   5.412   9.991 -0.0735  0.2440  0.2664
  485loPI   GL1 7749  15.158   5.379   9.566  0.0414 -0.1272 -0.1113
  485loPI   GL2 7750  15.185   5.158   9.476  0.1199 -0.3167  0.1176
  485loPI   C1A 7751  15.209   5.616   9.192 -0.1598 -0.0636 -0.1070
  485loPI   C2A 7752  15.170   5.641   8.774 -0.2022  0.3397  0.1353
  485loPI   C3A 7753  15.238   5.472   8.438 -0.0204  0.1216  0.0323
  485loPI   C4A 7754  15.242   5.276   8.041 -0.1552 -0.1939  0.0778
  485loPI   C5A 7755  15.480   5.013   7.567  0.1895  0.0041 -0.0130
  485loPI   C6A 7756  15.485   4.629   7.413  0.1424 -0.4377  0.0851
  485loPI   C1B 7757  15.003   5.122   9.007 -0.1056  0.2796  0.3138
  485loPI   C2B 7758  14.925   5.096   8.648  0.1642  0.0838  0.1685
  485loPI   C3B 7759  14.904   4.938   8.236  0.0813  0.0406  0.1395
  485loPI   C4B 7760  14.774   5.217   7.795 -0.1181  0.1268  0.0687
  486loPI    C1 7761   7.265  14.442  10.545  0.3102 -0.0888  0.1364
  486loPI    C2 7762   7.054  14.259  10.832 -0.0778  0.1560  0.0158
  486loPI    C3 7763   6.998  14.649  10.759  0.0777  0.1163 -0.3362
  486loPI   PO4 7764   7.233  14.362  10.325 -0.0140 -0.1057 -0.1794
  486loPI   GL1 7765   7.384  14.405   9.956 -0.3850 -0.1409 -0.3645
  486loPI   GL2 7766   7.107  14.509   9.904  0.0006 -0.1242 -0.0105
  486loPI   C1A 7767   7.363  14.039   9.727 -0.1551  0.1947 -0.0446
  486loPI   C2A 7768   7.499  13.887   9.332 -0.0081 -0.1737 -0.0493
  486loPI   C3A 7769   7.243  13.804   9.003  0.1160  0.2378 -0.0292
  486loPI   C4A 7770   7.193  13.854   8.623 -0.2759 -0.0849 -0.0968
  486loPI   C5A 7771   7.084  13.764   8.194 -0.6115  0.1162 -0.1115
  486loPI   C6A 7772   7.112  13.696   7.737 -0.0504  0.0042 -0.1270
  486loPI   C1B 7773   7.066  14.682   9.392 -0.1674 -0.1332 -0.1563
  486loPI   C2B 7774   6.991  14.691   8.834  0.1409 -0.1949  0.3138
  486loPI   C3B 7775   6.945  14.582   8.434  0.2438  0.1987  0.0347
  486loPI   C4B 7776   7.070  14.633   8.019 -0.3385 -0.1467  0.1290
  487loPI    C1 7777  11.452   2.851  10.796 -0.0399  0.1947  0.0001
  487loPI    C2 7778  11.802   2.944  10.967 -0.2199  0.3102  0.3144
  487loPI    C3 7779  11.500   2.807  11.191 -0.2613 -0.1467 -0.0075
  487loPI   PO4 7780  11.449   3.020  10.586 -0.0666 -0.0528 -0.1546
  487loPI   GL1 7781  11.477   3.107  10.162  0.1740  0.0837 -0.4348
  487loPI   GL2 7782  11.505   2.703  10.161 -0.0468  0.1690 -0.3892
  487loPI   C1A 7783  11.450   3.133   9.712  0.1184  0.0290 -0.0351
  487loPI   C2A 7784  11.447   3.243   9.240  0.0419  0.2683 -0.2227
  487loPI   C3A 7785  11.481   3.326   8.810  0.1122 -0.0007 -0.0915
  487loPI   C4A 7786  11.519   3.195   8.446 -0.3645 -0.0610 -0.0261
  487loPI   C5A 7787  11.355   3.018   8.037  0.1909  0.2215 -0.0444
  487loPI   C6A 7788  11.012   2.803   7.794 -0.1613  0.0426 -0.1698
  487loPI   C1B 7789  11.558   2.626   9.653  0.0144  0.1238 -0.0503
  487loPI   C2B 7790  11.546   2.781   9.320 -0.0922  0.3310 -0.2374
  487loPI   C3B 7791  11.580   2.715   8.808  0.0458 -0.1033  0.1973
  487loPI   C4B 7792  11.573   2.697   8.314 -0.4464  0.0571 -0.1380
  488loPI    C1 7793  18.600  12.503  10.398  0.1569 -0.1718 -0.1063
  488loPI    C2 7794  18.448  12.735  10.686  0.0751 -0.2196 -0.1106
  488loPI    C3 7795  18.793  12.541  10.747  0.0960 -0.1713 -0.0726
  488loPI   PO4 7796  18.555  12.726  10.105 -0.0246  0.1036 -0.1249
  488loPI   GL1 7797  18.239  13.029   9.900 -0.1498 -0.1773  0.0280
  488loPI   GL2 7798  18.114  13.189   9.743  0.0530  0.1487  0.0395
  488loPI   C1A 7799  18.231  12.775   9.489 -0.0070  0.1677 -0.1602
  488loPI   C2A 7800  18.111  12.625   9.037 -0.1097 -0.0883 -0.1950
  488loPI   C3A 7801  18.028  12.490   8.600 -0.1476 -0.0460  0.0461
  488loPI   C4A 7802  18.011  12.556   8.274  0.0061 -0.1001 -0.1709
  488loPI   C5A 7803  17.989  12.575   7.880  0.1092  0.1875 -0.2865
  488loPI   C6A 7804  18.087  12.609   7.527  0.1847 -0.2909 -0.1131
  488loPI   C1B 7805  18.254  13.181   9.218 -0.3632  0.2610 -0.2379
  488loPI   C2B 7806  18.198  13.081   8.756 -0.0602  0.3142  0.0423
  488loPI   C3B 7807  18.049  13.063   8.370 -0.0714 -0.1937  0.1190
  488loPI   C4B 7808  17.953  13.107   7.955  0.3488  0.0489 -0.0657
  489loPI    C1 7809   9.260   6.042  10.203  0.1964  0.0145  0.0360
  489loPI    C2 7810   9.414   6.365  10.023  0.0080 -0.0030 -0.1606
  489loPI    C3 7811   9.227   6.402  10.375  0.4809  0.0139  0.0975
  489loPI   PO4 7812   9.487   5.869  10.004 -0.1634 -0.1324  0.0218
  489loPI   GL1 7813   9.687   5.545   9.777 -0.1312  0.0242  0.0137
  489loPI   GL2 7814   9.521   5.329   9.852 -0.2016  0.1337 -0.0712
  489loPI   C1A 7815   9.869   5.627   9.447 -0.3258 -0.1276 -0.3991
  489loPI   C2A 7816   9.844   5.522   9.052  0.2807 -0.1572  0.0555
  489loPI   C3A 7817   9.878   5.543   8.633  0.0171  0.1536 -0.1066
  489loPI   C4A 7818   9.814   5.972   8.403 -0.2231  0.0256  0.2603
  489loPI   C5A 7819   9.645   5.971   7.957 -0.1952 -0.0158 -0.0094
  489loPI   C6A 7820   9.406   6.281   7.761  0.0060  0.1787 -0.0104
  489loPI   C1B 7821   9.334   5.094   9.517 -0.0853  0.2205  0.0078
  489loPI   C2B 7822   9.393   5.167   9.096 -0.1249 -0.4287 -0.1131
  489loPI   C3B 7823   9.504   5.172   8.677  0.0801 -0.0999  0.0084
  489loPI   C4B 7824   9.738   5.179   8.332  0.0832  0.0046  0.1820
  490loPI    C1 7825  18.408  14.613  10.142  0.3004  0.1680 -0.0460
  490loPI    C2 7826  18.741  14.549  10.355  0.1977  0.1385  0.1070
  490loPI    C3 7827  18.443  14.768  10.509  0.0480 -0.0343  0.0666
  490loPI   PO4 7828  18.546  14.635   9.886 -0.1097 -0.0191  0.1966
  490loPI   GL1 7829  18.472  14.818   9.522 -0.1061 -0.0695 -0.1996
  490loPI   GL2 7830  18.605  15.073   9.640 -0.1119  0.1420  0.0741
  490loPI   C1A 7831  18.458  14.610   9.181 -0.1232 -0.0724  0.0722
  490loPI   C2A 7832  18.358  14.652   8.775  0.0372  0.2355  0.1327
  490loPI   C3A 7833  18.368  14.567   8.283 -0.1995 -0.2087 -0.0515
  490loPI   C4A 7834  18.580  14.515   7.896 -0.0487  0.0436  0.1457
  490loPI   C5A 7835  18.403  14.300   7.553  0.1186  0.0977 -0.2124
  490loPI   C6A 7836  18.170  14.038   7.260 -0.0077  0.0477  0.0304
  490loPI   C1B 7837  18.495  15.179   9.211 -0.1039  0.1799 -0.2377
  490loPI   C2B 7838  18.550  15.103   8.814 -0.1309  0.0232 -0.0150
  490loPI   C3B 7839  18.328  15.041   8.430  0.2866 -0.0449 -0.2091
  490loPI   C4B 7840  18.216  15.072   7.987 -0.0063  0.3019  0.0323
  491loPI    C1 7841  13.192   7.960  10.280 -0.0940  0.0493 -0.2583
  491loPI    C2 7842  13.282   7.598  10.425  0.0728  0.1306 -0.1551
  491loPI    C3 7843  13.124   7.876  10.665  0.1604  0.2006 -0.1781
  491loPI   PO4 7844  13.355   7.985  10.058  0.1878 -0.1318  0.2184
  491loPI   GL1 7845  13.388   7.791   9.690  0.2112  0.0111 -0.0720
  491loPI   GL2 7846  13.079   7.770   9.647  0.3182  0.2356  0.0716
  491loPI   C1A 7847  13.532   7.970   9.291  0.0778  0.2095  0.2736
  491loPI   C2A 7848  13.664   8.126   8.871  0.1424  0.0337  0.1234
  491loPI   C3A 7849  13.565   8.042   8.439  0.1855  0.1512  0.0214
  491loPI   C4A 7850  13.352   8.010   8.026  0.1843  0.2638 -0.3065
  491loPI   C5A 7851  13.245   7.886   7.592  0.2878 -0.1107 -0.3461
  491loPI   C6A 7852  12.977   7.855   7.198 -0.1770  0.0650  0.2601
  491loPI   C1B 7853  13.029   7.808   9.250 -0.2461 -0.1329 -0.0593
  491loPI   C2B 7854  12.666   7.990   9.062  0.0698 -0.1374  0.1299
  491loPI   C3B 7855  12.516   8.310   8.790 -0.1223  0.0826  0.0111
  491loPI   C4B 7856  12.195   8.437   8.642 -0.4358 -0.0482  0.0443
  492loPI    C1 7857   5.880   5.368  10.421  0.0324  0.1780  0.1264
  492loPI    C2 7858   5.964   5.095  10.701  0.1205 -0.0787 -0.1440
  492loPI    C3 7859   5.636   5.322  10.735 -0.0571 -0.3507 -0.0107
  492loPI   PO4 7860   5.869   5.196  10.136 -0.3252 -0.0778 -0.1707
  492loPI   GL1 7861   5.922   5.082   9.710  0.0131  0.2237  0.1054
  492loPI   GL2 7862   6.244   5.056   9.838  0.1081  0.0482  0.1155
  492loPI   C1A 7863   5.985   4.989   9.349 -0.1549 -0.2773  0.0179
  492loPI   C2A 7864   5.983   4.871   8.874 -0.3647  0.0592 -0.0295
  492loPI   C3A 7865   5.889   4.844   8.440  0.0537  0.1038 -0.0696
  492loPI   C4A 7866   5.959   4.850   7.963 -0.1893  0.0915  0.0655
  492loPI   C5A 7867   5.971   5.080   7.541  0.0203 -0.1268  0.0174
  492loPI   C6A 7868   6.199   5.318   7.381  0.0608  0.3353  0.1360
  492loPI   C1B 7869   6.392   4.750   9.541 -0.1219  0.0640  0.1004
  492loPI   C2B 7870   6.440   4.739   9.076 -0.0058  0.0049  0.0029
  492loPI   C3B 7871   6.473   4.748   8.647  0.0548  0.2809  0.1694
  492loPI   C4B 7872   6.487   4.739   8.170 -0.0283 -0.0742 -0.0214
  493loPI    C1 7873   4.641  17.950  10.335  0.1698 -0.1799  0.0259
  493loPI    C2 7874   4.614  17.592  10.512 -0.1564 -0.1108  0.1233
  493loPI    C3 7875   4.613  17.925  10.734  0.0458 -0.0443  0.0269
  493loPI   PO4 7876   4.849  17.917  10.186 -0.2924 -0.0074  0.5556
  493loPI   GL1 7877   4.847  18.046   9.820 -0.0121  0.0114 -0.1311
  493loPI   GL2 7878   5.050  18.130   9.767 -0.1375  0.0772  0.3000
  493loPI   C1A 7879   4.675  18.316   9.524 -0.1275 -0.0603 -0.2372
  493loPI   C2A 7880   4.655  18.338   9.079  0.1130  0.1271 -0.1221
  493loPI   C3A 7881   4.754  18.398   8.661 -0.1105  0.1241  0.2363
  493loPI   C4A 7882   4.756  18.469   8.219  0.2211 -0.1513  0.0052
  493loPI   C5A 7883   4.681  18.453   7.754 -0.3733 -0.1207 -0.1743
  493loPI   C6A 7884   4.820  18.169   7.436 -0.1290 -0.3692  0.1088
  493loPI   C1B 7885   5.121  18.121   9.384 -0.0965 -0.0023 -0.2170
  493loPI   C2B 7886   5.139  18.244   8.874 -0.1305 -0.2697 -0.0511
  493loPI   C3B 7887   5.162  18.273   8.411 -0.0468  0.0184  0.0172
  493loPI   C4B 7888   5.107  18.252   7.999 -0.0838 -0.0356 -0.1783
  494loPI    C1 7889  10.327  11.035  10.129 -0.1236 -0.0449 -0.1134
  494loPI    C2 7890  10.287  11.082  10.524 -0.1289  0.0754 -0.1277
  494loPI    C3 7891  10.158  11.367  10.276 -0.1044  0.0103 -0.2153
  494loPI   PO4 7892  10.615  10.953  10.082  0.1243  0.0400 -0.0060
  494loPI   GL1 7893  10.916  10.795   9.835  0.0479 -0.0811 -0.3603
  494loPI   GL2 7894  11.059  10.934   9.547  0.0064  0.2895  0.1074
  494loPI   C1A 7895  10.595  10.911   9.454  0.2933  0.0474  0.0809
  494loPI   C2A 7896  10.645  11.045   9.064  0.2019  0.1157  0.0753
  494loPI   C3A 7897  10.766  11.034   8.546  0.3551 -0.2987 -0.0557
  494loPI   C4A 7898  10.674  10.842   8.142  0.3063 -0.2380 -0.2203
  494loPI   C5A 7899  10.823  10.781   7.727  0.0870 -0.0183  0.1900
  494loPI   C6A 7900  11.145  10.770   7.453 -0.3075 -0.0886 -0.1061
  494loPI   C1B 7901  10.891  11.321   9.462 -0.0943  0.1201  0.0052
  494loPI   C2B 7902  11.210  11.564   9.291 -0.0913 -0.0223 -0.0977
  494loPI   C3B 7903  11.352  11.757   9.012 -0.0309  0.4394  0.1071
  494loPI   C4B 7904  11.456  11.992   8.603  0.0533 -0.1012  0.4682
  495loPI    C1 7905   5.748   1.293  10.394 -0.0307  0.0975 -0.1286
  495loPI    C2 7906   5.565   1.580  10.605  0.0841  0.0861 -0.0122
  495loPI    C3 7907   5.845   1.353  10.777  0.3395  0.2235 -0.2377
  495loPI   PO4 7908   5.706   1.373  10.172  0.0901  0.0629 -0.2790
  495loPI   GL1 7909   5.717   1.313   9.794  0.1711  0.1834  0.1507
  495loPI   GL2 7910   5.541   1.687   9.787 -0.3209 -0.0625  0.1282
  495loPI   C1A 7911   5.950   1.121   9.392 -0.1003  0.2400  0.3868
  495loPI   C2A 7912   5.952   1.128   8.981  0.1858 -0.0960 -0.0250
  495loPI   C3A 7913   5.848   1.187   8.615 -0.0717  0.1956  0.0133
  495loPI   C4A 7914   5.693   1.089   8.126  0.2058 -0.0421  0.1681
  495loPI   C5A 7915   5.464   1.099   7.776 -0.2219 -0.0113  0.0808
  495loPI   C6A 7916   5.278   0.858   7.458 -0.1819 -0.0572  0.2357
  495loPI   C1B 7917   5.738   1.694   9.362 -0.1463  0.0536  0.4246
  495loPI   C2B 7918   5.644   1.562   8.987  0.3656  0.2098  0.0424
  495loPI   C3B 7919   5.803   1.699   8.604  0.4594 -0.0503 -0.0980
  495loPI   C4B 7920   5.753   1.578   8.236  0.0637  0.0304  0.0106
  496loPI    C1 7921   8.611   5.970  10.823  0.0901  0.3127  0.1928
  496loPI    C2 7922   8.901   5.982  10.547 -0.1093 -0.0896 -0.0441
  496loPI    C3 7923   8.983   5.859  10.919  0.1547  0.4264  0.0776
  496loPI   PO4 7924   8.424   5.897  10.717 -0.1616 -0.1472 -0.0488
  496loPI   GL1 7925   8.300   5.654  10.391  0.0513 -0.2603  0.0842
  496loPI   GL2 7926   8.467   5.865  10.197 -0.2082  0.0375  0.0596
  496loPI   C1A 7927   8.145   5.538   9.977  0.1198  0.1317 -0.0931
  496loPI   C2A 7928   8.133   5.185   9.698 -0.2146 -0.1126 -0.2941
  496loPI   C3A 7929   8.329   5.083   9.332  0.0970 -0.1568  0.0645
  496loPI   C4A 7930   8.602   4.908   9.141 -0.0119  0.3617 -0.0784
  496loPI   C5A 7931   8.667   4.859   8.743 -0.1653 -0.1075  0.1256
  496loPI   C6A 7932   8.835   4.850   8.263  0.1595 -0.3209  0.0764
  496loPI   C1B 7933   8.380   6.105   9.843  0.2399  0.1022 -0.1788
  496loPI   C2B 7934   8.403   5.996   9.443  0.0006 -0.2987  0.2800
  496loPI   C3B 7935   8.424   5.909   9.014 -0.0140 -0.1420  0.0663
  496loPI   C4B 7936   8.389   5.897   8.596 -0.3487 -0.2020  0.4006
  497loPI    C1 7937   5.324   3.161  10.491 -0.0701 -0.0889 -0.1123
  497loPI    C2 7938   5.558   3.113  10.811 -0.3520 -0.1359  0.0906
  497loPI    C3 7939   5.398   3.471  10.732  0.0527 -0.0197 -0.2375
  497loPI   PO4 7940   5.424   2.976  10.381  0.3405 -0.2328 -0.0571
  497loPI   GL1 7941   5.558   2.955   9.955 -0.1118  0.2261 -0.0642
  497loPI   GL2 7942   5.293   2.716   9.966 -0.0726 -0.3146 -0.3921
  497loPI   C1A 7943   5.464   3.172   9.666  0.1461 -0.1354 -0.2181
  497loPI   C2A 7944   5.363   3.119   9.303 -0.2943  0.0444 -0.2478
  497loPI   C3A 7945   5.434   3.161   8.813 -0.0235  0.3263  0.0980
  497loPI   C4A 7946   5.430   3.162   8.378 -0.0620 -0.1515 -0.0876
  497loPI   C5A 7947   5.445   3.088   7.922  0.1541 -0.1288 -0.0370
  497loPI   C6A 7948   5.219   3.041   7.701 -0.3361 -0.0901 -0.1852
  497loPI   C1B 7949   5.464   2.637   9.524 -0.0100 -0.0071  0.1836
  497loPI   C2B 7950   5.503   2.734   9.073 -0.2419  0.1837  0.0329
  497loPI   C3B 7951   5.448   2.711   8.639 -0.0331  0.2282 -0.0942
  497loPI   C4B 7952   5.520   2.709   8.249 -0.3388 -0.2782 -0.0054
  498loPI    C1 7953  12.973  18.428  10.468 -0.2739 -0.0466 -0.1457
  498loPI    C2 7954  12.650  18.242  10.613  0.0132 -0.3546  0.1140
  498loPI    C3 7955  12.849  18.504  10.841 -0.1844  0.0146 -0.1279
  498loPI   PO4 7956  12.899  18.510  10.273 -0.2269 -0.2879 -0.2358
  498loPI   GL1 7957  13.034  18.854  10.073 -0.2956  0.2630 -0.1949
  498loPI   GL2 7958  13.356  18.876  10.041  0.3766  0.2262  0.1622
  498loPI   C1A 7959  12.987  18.778   9.691  0.1424 -0.0912  0.1154
  498loPI   C2A 7960  13.160  18.703   9.281  0.1144  0.0655 -0.1085
  498loPI   C3A 7961  13.221  18.705   8.818  0.1794 -0.1712 -0.0315
  498loPI   C4A 7962  13.126  18.926   8.546 -0.1285  0.1062 -0.1148
  498loPI   C5A 7963  13.115  18.883   8.204 -0.0825  0.0710 -0.0283
  498loPI   C6A 7964  13.240  19.226   7.811 -0.1546  0.0697  0.0995
  498loPI   C1B 7965  13.377  19.087   9.678  0.1821  0.0416 -0.1591
  498loPI   C2B 7966  13.567  19.048   9.249  0.1354 -0.1346 -0.2587
  498loPI   C3B 7967  13.488  19.175   8.778 -0.1422 -0.1685 -0.1949
  498loPI   C4B 7968  13.569  19.145   8.248 -0.0728  0.0903 -0.1860
  499loPI    C1 7969  14.362   2.771  10.392  0.0943  0.1461 -0.1879
  499loPI    C2 7970  14.735   2.664  10.296 -0.0061 -0.3440 -0.0603
  499loPI    C3 7971  14.601   2.610  10.669 -0.1275  0.0679 -0.0392
  499loPI   PO4 7972  14.192   2.708  10.196 -0.3392 -0.0521  0.1077
  499loPI   GL1 7973  14.038   2.838   9.806 -0.1682  0.1433  0.0927
  499loPI   GL2 7974  14.251   2.883   9.529 -0.1228 -0.1437 -0.1000
  499loPI   C1A 7975  13.947   2.438   9.581  0.2872  0.0143  0.0204
  499loPI   C2A 7976  13.878   2.531   9.292  0.1767 -0.1187  0.2358
  499loPI   C3A 7977  13.922   2.468   8.782  0.3677  0.0593  0.0240
  499loPI   C4A 7978  13.886   2.590   8.319  0.2901 -0.1113 -0.2990
  499loPI   C5A 7979  13.861   2.589   7.919  0.0541 -0.1262  0.4024
  499loPI   C6A 7980  13.924   2.785   7.553 -0.4305  0.0208 -0.2374
  499loPI   C1B 7981  14.252   2.814   9.105  0.0503  0.0221  0.2004
  499loPI   C2B 7982  14.186   2.855   8.704 -0.3538  0.1349  0.0369
  499loPI   C3B 7983  14.308   2.885   8.276  0.0683 -0.1047 -0.0105
  499loPI   C4B 7984  14.307   2.841   7.957 -0.1007  0.0035  0.0191
  500loPI    C1 7985   9.914   6.842  10.685  0.2295 -0.2816 -0.0363
  500loPI    C2 7986   9.950   6.632  11.024 -0.2962 -0.1172  0.1309
  500loPI    C3 7987   9.859   7.021  11.038  0.2638  0.0370 -0.1891
  500loPI   PO4 7988  10.107   6.769  10.573 -0.0360 -0.1681  0.4378
  500loPI   GL1 7989  10.197   6.650  10.223 -0.0182 -0.1055  0.1173
  500loPI   GL2 7990  10.481   6.607  10.037 -0.5057 -0.1897 -0.1004
  500loPI   C1A 7991  10.091   6.942   9.931  0.0171  0.0447 -0.1384
  500loPI   C2A 7992   9.924   7.062   9.463 -0.0100  0.1533  0.0301
  500loPI   C3A 7993   9.925   7.212   9.028  0.0622 -0.3516  0.2112
  500loPI   C4A 7994   9.891   7.308   8.618 -0.0680  0.0012 -0.0816
  500loPI   C5A 7995   9.962   7.359   8.255 -0.1518  0.2515  0.0900
  500loPI   C6A 7996  10.079   7.344   7.941 -0.2269 -0.0802 -0.2126
  500loPI   C1B 7997  10.272   6.434   9.690  0.4296  0.0249 -0.0507
  500loPI   C2B 7998  10.126   6.271   9.343  0.0992  0.1762 -0.0431
  500loPI   C3B 7999  10.063   5.977   8.958  0.0283  0.1521 -0.2723
  500loPI   C4B 8000  10.321   5.794   8.641  0.1330  0.2763  0.1094
  501loPI    C1 8001   0.775   4.309  10.281  0.3194 -0.1841  0.0287
  501loPI    C2 8002   0.938   4.494   9.965 -0.0206  0.0017 -0.0424
  501loPI    C3 8003   0.874   4.696  10.305 -0.5159  0.0620 -0.1632
  501loPI   PO4 8004   0.469   4.243  10.236 -0.4177 -0.2334 -0.1369
  501loPI   GL1 8005   0.188   4.116  10.004 -0.1013  0.0329  0.1496
  501loPI   GL2 8006  -0.060   3.934   9.809  0.2647 -0.2653 -0.0916
  501loPI   C1A 8007   0.449   4.074   9.557  0.6257 -0.0511  0.1121
  501loPI   C2A 8008   0.612   4.185   9.125 -0.1769 -0.1601 -0.2048
  501loPI   C3A 8009   0.403   4.295   8.724 -0.2338  0.1851 -0.2206
  501loPI   C4A 8010   0.439   4.568   8.423 -0.1674 -0.2391 -0.0655
  501loPI   C5A 8011   0.479   4.410   8.001  0.2131  0.4036  0.0824
  501loPI   C6A 8012   0.207   4.093   7.903 -0.3769 -0.0765 -0.1486
  501loPI   C1B 8013  -0.054   4.032   9.447 -0.1711 -0.3712  0.0131
  501loPI   C2B 8014   0.002   4.213   9.080  0.0147  0.0085  0.3781
  501loPI   C3B 8015  -0.164   4.345   8.702  0.0600  0.1039  0.0501
  501loPI   C4B 8016   0.034   4.263   8.351 -0.1137  0.3290 -0.0116
  502loPI    C1 8017   4.221   7.024  10.535  0.0704  0.3941 -0.1256
  502loPI    C2 8018   4.205   7.201  10.894 -0.0998 -0.0071  0.0705
  502loPI    C3 8019   4.360   6.834  10.859  0.0533  0.0883 -0.2945
  502loPI   PO4 8020   3.907   7.151  10.423 -0.0161  0.0170  0.3057
  502loPI   GL1 8021   3.855   7.238   9.954  0.3503  0.1139  0.0426
  502loPI   GL2 8022   4.158   7.094   9.968  0.0116 -0.2063  0.2249
  502loPI   C1A 8023   3.786   7.311   9.495 -0.1364 -0.0634 -0.0651
  502loPI   C2A 8024   3.860   7.329   9.057  0.0406  0.0876  0.2907
  502loPI   C3A 8025   3.953   7.427   8.619  0.4140 -0.0741  0.0374
  502loPI   C4A 8026   3.933   7.655   8.258 -0.1545  0.0330  0.2077
  502loPI   C5A 8027   3.961   7.902   7.825 -0.2291  0.0028  0.0344
  502loPI   C6A 8028   3.913   8.324   7.712 -0.2848  0.1122  0.1036
  502loPI   C1B 8029   4.360   7.232   9.590  0.0707  0.0355 -0.3852
  502loPI   C2B 8030   4.394   7.246   9.134  0.1265 -0.1338 -0.1109
  502loPI   C3B 8031   4.521   7.364   8.722  0.1219 -0.0441 -0.1708
  502loPI   C4B 8032   4.860   7.326   8.450  0.0263 -0.1643 -0.1763
  503loPI    C1 8033  17.749   6.184  10.191 -0.2280  0.0898  0.0858
  503loPI    C2 8034  17.542   6.138  10.530 -0.1136 -0.1205  0.1288
  503loPI    C3 8035  17.866   6.371  10.524 -0.2740  0.1046  0.0940
  503loPI   PO4 8036  17.489   6.203   9.968  0.1978 -0.0402  0.2308
  503loPI   GL1 8037  17.178   6.143   9.611  0.0740 -0.1890  0.2260
  503loPI   GL2 8038  17.271   5.826   9.759 -0.1608 -0.0156 -0.0586
  503loPI   C1A 8039  16.958   6.419   9.388 -0.2971 -0.0504  0.2901
  503loPI   C2A 8040  16.939   6.630   9.061 -0.2213  0.1630  0.2873
  503loPI   C3A 8041  17.023   6.639   8.605  0.0057  0.1987  0.1283
  503loPI   C4A 8042  17.061   6.454   8.137  0.0992 -0.1029 -0.2590
  503loPI   C5A 8043  17.015   6.285   7.784  0.0825 -0.0862  0.1513
  503loPI   C6A 8044  17.172   5.920   7.703  0.0457  0.1552  0.2005
  503loPI   C1B 8045  17.146   5.764   9.297 -0.2785  0.1325 -0.1866
  503loPI   C2B 8046  17.124   5.679   8.860  0.0765 -0.1285  0.1360
  503loPI   C3B 8047  17.135   5.602   8.410  0.2376 -0.0310  0.1508
  503loPI   C4B 8048  17.190   5.164   8.179  0.1978  0.0940  0.0383
  504loPI    C1 8049   8.858   8.390  10.405 -0.0542  0.0177  0.0545
  504loPI    C2 8050   9.240   8.434  10.293 -0.1209  0.1291 -0.1339
  504loPI    C3 8051   9.104   8.623  10.618  0.0789 -0.2119  0.1557
  504loPI   PO4 8052   8.725   8.247  10.182 -0.1616 -0.0732  0.1718
  504loPI   GL1 8053   8.677   7.966   9.768 -0.4809 -0.0692  0.0154
  504loPI   GL2 8054   8.717   7.751   9.941  0.0902  0.2679 -0.1292
  504loPI   C1A 8055   8.696   7.842   9.385  0.2920  0.3940 -0.0017
  504loPI   C2A 8056   9.046   7.733   9.090  0.2995  0.2259  0.2089
  504loPI   C3A 8057   9.233   7.981   8.797 -0.1334  0.0464 -0.3613
  504loPI   C4A 8058   9.085   8.056   8.357 -0.0753  0.0566 -0.1542
  504loPI   C5A 8059   8.972   8.146   8.037  0.1878 -0.0349  0.0646
  504loPI   C6A 8060   8.944   8.524   7.708  0.2145  0.2954 -0.1333
  504loPI   C1B 8061   8.347   7.557   9.679 -0.1413 -0.0194 -0.2728
  504loPI   C2B 8062   8.126   7.374   9.362 -0.4289  0.5955  0.1478
  504loPI   C3B 8063   8.176   7.026   8.996  0.0300  0.2554  0.0663
  504loPI   C4B 8064   8.239   6.887   8.621 -0.1458 -0.1991 -0.1418
  505loPI    C1 8065  11.881  12.106   9.971 -0.1716 -0.1305 -0.0532
  505loPI    C2 8066  11.885  12.090  10.370 -0.0174 -0.1552 -0.0553
  505loPI    C3 8067  11.840  12.442  10.184  0.2070 -0.1038 -0.0159
  505loPI   PO4 8068  12.086  11.927   9.921 -0.0269 -0.1980  0.1713
  505loPI   GL1 8069  12.139  11.650   9.606 -0.0686  0.1118  0.2993
  505loPI   GL2 8070  12.119  11.253   9.480  0.1035 -0.0946 -0.1785
  505loPI   C1A 8071  12.337  11.720   9.261  0.2371 -0.1395 -0.0649
  505loPI   C2A 8072  12.328  11.690   8.852 -0.1703 -0.3436  0.2107
  505loPI   C3A 8073  12.371  11.850   8.477  0.0567 -0.2055  0.4394
  505loPI   C4A 8074  12.281  11.723   8.009  0.0230  0.2345 -0.3538
  505loPI   C5A 8075  12.194  11.616   7.577  0.1583  0.0641 -0.2408
  505loPI   C6A 8076  12.033  11.632   7.232  0.0555  0.2977  0.0165
  505loPI   C1B 8077  12.267  11.286   9.063  0.0762  0.1619 -0.1397
  505loPI   C2B 8078  12.251  11.313   8.485  0.1675 -0.3545 -0.1296
  505loPI   C3B 8079  12.612  11.455   8.247 -0.1309  0.2789  0.2110
  505loPI   C4B 8080  12.881  11.384   7.937  0.3228 -0.1030  0.0257
  506loPI    C1 8081   6.939  14.865  10.261  0.1277  0.0682  0.0071
  506loPI    C2 8082   6.882  15.115  10.568  0.0100  0.0364  0.0117
  506loPI    C3 8083   6.623  14.817  10.503  0.1803 -0.1195  0.0404
  506loPI   PO4 8084   7.195  14.915  10.149  0.0067  0.0389  0.2011
  506loPI   GL1 8085   7.193  15.062   9.773 -0.0438  0.1124  0.0085
  506loPI   GL2 8086   7.478  14.898   9.681  0.2693 -0.0258  0.1023
  506loPI   C1A 8087   6.948  15.210   9.506  0.0443 -0.2552  0.0628
  506loPI   C2A 8088   6.700  15.026   9.247 -0.1262  0.0991 -0.1025
  506loPI   C3A 8089   6.569  15.002   8.798  0.1676 -0.1546 -0.0635
  506loPI   C4A 8090   6.491  14.937   8.356 -0.0002 -0.0211  0.3052
  506loPI   C5A 8091   6.583  14.651   7.985  0.1949 -0.0249 -0.2190
  506loPI   C6A 8092   6.217  14.600   7.764 -0.2519  0.0974 -0.1853
  506loPI   C1B 8093   7.549  14.823   9.242  0.1730 -0.4333  0.1006
  506loPI   C2B 8094   7.504  14.860   8.808  0.3135  0.0694  0.0088
  506loPI   C3B 8095   7.438  14.784   8.356  0.0108  0.1559 -0.1410
  506loPI   C4B 8096   7.593  14.589   7.977 -0.2441  0.1707  0.3199
  507loPI    C1 8097   7.169  15.764  10.260  0.0737 -0.0027 -0.1026
  507loPI    C2 8098   6.977  15.683  10.601  0.0855 -0.0542 -0.1081
  507loPI    C3 8099   7.323  15.883  10.609 -0.0173  0.1254 -0.1055
  507loPI   PO4 8100   7.043  15.912  10.011  0.1943  0.1790 -0.0662
  507loPI   GL1 8101   6.696  15.744   9.688  0.1393  0.2671  0.0418
  507loPI   GL2 8102   6.567  15.407   9.697 -0.1751  0.0138 -0.1418
  507loPI   C1A 8103   6.542  15.942   9.401 -0.3279 -0.1376  0.0688
  507loPI   C2A 8104   6.634  15.956   8.981  0.1013  0.1463 -0.2201
  507loPI   C3A 8105   6.942  16.066   8.656 -0.0408  0.0263  0.1701
  507loPI   C4A 8106   7.397  16.152   8.563  0.3991  0.0044 -0.0090
  507loPI   C5A 8107   7.630  16.189   8.160 -0.2807 -0.3120 -0.1410
  507loPI   C6A 8108   7.545  16.258   7.711  0.0096  0.0142  0.4368
  507loPI   C1B 8109   6.506  15.472   9.235  0.1583  0.3236  0.1870
  507loPI   C2B 8110   6.325  15.479   8.888  0.1341  0.0072  0.1068
  507loPI   C3B 8111   6.101  15.224   8.634 -0.2919 -0.2462 -0.2947
  507loPI   C4B 8112   5.967  15.037   8.309  0.4210  0.2171 -0.2527
  508loPI    C1 8113   0.495   5.948  10.165 -0.0864 -0.2324  0.2041
  508loPI    C2 8114   0.324   6.282  10.305  0.2619  0.0263  0.0303
  508loPI    C3 8115   0.702   6.195  10.403  0.2466 -0.2030 -0.1078
  508loPI   PO4 8116   0.287   6.003   9.886 -0.0132 -0.2009 -0.1685
  508loPI   GL1 8117   0.193   6.306   9.562 -0.0918  0.1059 -0.1519
  508loPI   GL2 8118   0.514   6.178   9.429  0.3386  0.3062 -0.0269
  508loPI   C1A 8119   0.113   6.416   9.117 -0.2861  0.2564 -0.1216
  508loPI   C2A 8120   0.072   6.270   8.766  0.1693 -0.0169  0.1562
  508loPI   C3A 8121  -0.153   6.224   8.353 -0.0520  0.0020  0.2235
  508loPI   C4A 8122  -0.472   6.279   8.065 -0.0846 -0.3155 -0.1817
  508loPI   C5A 8123  -0.430   5.965   7.761 -0.0601  0.5768  0.1610
  508loPI   C6A 8124  -0.344   5.729   7.352 -0.2726  0.2598 -0.1273
  508loPI   C1B 8125   0.563   6.181   8.948  0.0130 -0.0454  0.2500
  508loPI   C2B 8126   0.656   6.132   8.468  0.1905 -0.0982 -0.4236
  508loPI   C3B 8127   0.355   6.144   8.176  0.0768 -0.1440 -0.1762
  508loPI   C4B 8128  -0.017   6.271   7.913 -0.0897  0.3989  0.1717
  509loPI    C1 8129   2.558   7.782  10.160 -0.0094 -0.0043 -0.1766
  509loPI    C2 8130   2.478   8.064  10.433 -0.0508  0.0886 -0.2841
  509loPI    C3 8131   2.639   7.716  10.546 -0.1870  0.0763 -0.1244
  509loPI   PO4 8132   2.491   7.966   9.952  0.0979  0.0573 -0.1097
  509loPI   GL1 8133   2.649   8.263   9.583 -0.0941 -0.1512  0.0758
  509loPI   GL2 8134   2.282   8.292   9.614 -0.1217 -0.0026 -0.0735
  509loPI   C1A 8135   2.806   8.565   9.243  0.1004 -0.2373 -0.1571
  509loPI   C2A 8136   2.804   8.436   8.921 -0.0590 -0.0851  0.2647
  509loPI   C3A 8137   2.744   8.543   8.454  0.1113  0.1648  0.0991
  509loPI   C4A 8138   2.596   8.676   8.063 -0.2464 -0.3420  0.0950
  509loPI   C5A 8139   2.663   8.742   7.613 -0.0197 -0.0393  0.1052
  509loPI   C6A 8140   2.603   9.152   7.453 -0.1141  0.3508 -0.1811
  509loPI   C1B 8141   2.343   8.273   9.154 -0.1563  0.1292  0.0098
  509loPI   C2B 8142   2.263   8.314   8.714 -0.0185 -0.0659 -0.0611
  509loPI   C3B 8143   2.243   8.354   8.269  0.1156 -0.0203  0.2549
  509loPI   C4B 8144   2.252   8.424   7.865 -0.0054 -0.2972 -0.1104
  510loPI    C1 8145   9.472  12.009  10.042  0.2331 -0.1950  0.0516
  510loPI    C2 8146   9.409  11.978  10.436 -0.0498 -0.1382  0.0129
  510loPI    C3 8147   9.416  12.338  10.262 -0.0350 -0.1694 -0.0517
  510loPI   PO4 8148   9.705  11.912   9.940  0.2890  0.1980  0.0853
  510loPI   GL1 8149   9.918  12.138   9.612  0.0822 -0.0235 -0.0947
  510loPI   GL2 8150   9.657  12.437   9.803 -0.0172 -0.1208 -0.1548
  510loPI   C1A 8151   9.879  12.180   9.129 -0.0491 -0.1305  0.1222
  510loPI   C2A 8152   9.882  12.271   8.781  0.2051 -0.0656 -0.2687
  510loPI   C3A 8153   9.824  12.171   8.428  0.0684  0.2397 -0.1409
  510loPI   C4A 8154   9.776  12.006   8.006 -0.1306 -0.1197 -0.3420
  510loPI   C5A 8155   9.957  11.831   7.579 -0.3916 -0.1834  0.3902
  510loPI   C6A 8156  10.309  11.539   7.521  0.1136  0.1627 -0.0232
  510loPI   C1B 8157   9.507  12.473   9.374  0.3178  0.0084 -0.0667
  510loPI   C2B 8158   9.310  12.390   8.990  0.3103 -0.4150  0.1925
  510loPI   C3B 8159   9.406  12.346   8.659  0.2100  0.1628  0.3078
  510loPI   C4B 8160   9.389  12.385   8.233  0.0649  0.0510  0.1179
  511loPI    C1 8161   5.629  10.482  10.452 -0.0852 -0.1360 -0.0966
  511loPI    C2 8162   5.953  10.248  10.473 -0.0106 -0.0225  0.0295
  511loPI    C3 8163   5.592  10.096  10.552  0.0349 -0.1011  0.0881
  511loPI   PO4 8164   5.597  10.597  10.222  0.1386  0.2771 -0.1580
  511loPI   GL1 8165   5.508  10.573   9.826 -0.0241 -0.0145  0.0916
  511loPI   GL2 8166   5.251  10.544   9.711  0.0813  0.0179  0.2098
  511loPI   C1A 8167   5.753  10.572   9.437  0.1659  0.3123 -0.0937
  511loPI   C2A 8168   5.824  10.680   8.986  0.0526 -0.0984 -0.1590
  511loPI   C3A 8169   5.955  10.829   8.569  0.5109 -0.1420  0.0870
  511loPI   C4A 8170   5.769  10.637   8.276 -0.0422 -0.0735 -0.0405
  511loPI   C5A 8171   5.714  10.722   7.905 -0.0686  0.1335  0.0021
  511loPI   C6A 8172   5.689  11.017   7.539  0.0516  0.0430  0.2686
  511loPI   C1B 8173   5.226  10.508   9.285  0.2573  0.1377  0.2273
  511loPI   C2B 8174   5.397  10.445   8.847  0.4241  0.0018 -0.2216
  511loPI   C3B 8175   5.387  10.478   8.548 -0.1266  0.2261 -0.1307
  511loPI   C4B 8176   5.376  10.455   8.058  0.2364 -0.2182 -0.1724
  512loPI    C1 8177  17.166  13.119  10.400  0.1401 -0.1135 -0.1154
  512loPI    C2 8178  17.225  12.890  10.077  0.0090 -0.0153 -0.2103
  512loPI    C3 8179  17.037  12.740  10.397 -0.0177 -0.0600 -0.2467
  512loPI   PO4 8180  17.168  13.432  10.170  0.0605  0.0582 -0.0222
  512loPI   GL1 8181  17.007  13.539   9.753  0.1101 -0.1803 -0.1023
  512loPI   GL2 8182  17.254  13.397   9.670  0.1026 -0.1107  0.4110
  512loPI   C1A 8183  16.943  13.679   9.385 -0.1706  0.2414  0.4097
  512loPI   C2A 8184  16.914  13.678   8.847 -0.0430 -0.0770  0.0125
  512loPI   C3A 8185  16.822  13.604   8.455 -0.0677  0.1022 -0.0698
  512loPI   C4A 8186  16.786  13.496   8.144 -0.1416  0.1678  0.1698
  512loPI   C5A 8187  16.656  13.173   7.849  0.2465 -0.1910  0.2557
  512loPI   C6A 8188  16.711  12.823   7.643  0.1638 -0.0520 -0.0152
  512loPI   C1B 8189  17.401  13.276   9.255  0.2876  0.2014  0.0436
  512loPI   C2B 8190  17.232  13.324   8.786  0.1592  0.2179  0.2981
  512loPI   C3B 8191  17.209  13.284   8.278 -0.0025 -0.0445 -0.3040
  512loPI   C4B 8192  17.184  13.305   7.800 -0.0603 -0.1957  0.0255
  513loPI    C1 8193  14.232  16.947  10.118  0.0727  0.0689  0.0366
  513loPI    C2 8194  14.603  16.958   9.969  0.1466 -0.1697  0.1980
  513loPI    C3 8195  14.534  17.085  10.341  0.0187  0.1208  0.0778
  513loPI   PO4 8196  14.140  17.153   9.933  0.2214 -0.1914  0.2582
  513loPI   GL1 8197  14.065  17.169   9.471 -0.1283  0.2635 -0.1839
  513loPI   GL2 8198  13.710  17.062   9.545  0.1307 -0.1640 -0.1387
  513loPI   C1A 8199  13.980  17.495   9.142  0.0930 -0.1829  0.1078
  513loPI   C2A 8200  13.790  17.736   8.697  0.0138 -0.0134 -0.2414
  513loPI   C3A 8201  13.915  17.576   8.358 -0.2395 -0.2393  0.1228
  513loPI   C4A 8202  14.013  17.365   7.873 -0.0932  0.0614 -0.0856
  513loPI   C5A 8203  14.107  17.282   7.473 -0.1150 -0.0505 -0.1703
  513loPI   C6A 8204  14.100  16.781   7.282 -0.0674  0.0513 -0.1949
  513loPI   C1B 8205  13.506  17.116   9.219  0.1136 -0.3196  0.0397
  513loPI   C2B 8206  13.478  17.282   8.821  0.1710 -0.0792  0.2808
  513loPI   C3B 8207  13.484  17.260   8.450  0.5351 -0.1583 -0.2699
  513loPI   C4B 8208  13.524  17.278   8.021  0.2107 -0.0540 -0.1117
  514loPI    C1 8209   0.637  12.018  10.187  0.0156 -0.0417 -0.1306
  514loPI    C2 8210   0.693  11.681  10.395 -0.0854 -0.1141 -0.2198
  514loPI    C3 8211   0.338  11.865  10.403  0.0712  0.1854  0.1124
  514loPI   PO4 8212   0.796  12.135  10.168 -0.4766  0.0311 -0.0298
  514loPI   GL1 8213   0.733  12.305   9.805  0.3554  0.1161 -0.1190
  514loPI   GL2 8214   0.614  12.569   9.588  0.0577  0.0817 -0.0146
  514loPI   C1A 8215   0.969  12.266   9.372  0.1567 -0.0187  0.0942
  514loPI   C2A 8216   1.057  12.357   8.895 -0.0177  0.3467  0.1182
  514loPI   C3A 8217   0.967  12.330   8.531  0.0749 -0.1506 -0.0884
  514loPI   C4A 8218   0.941  12.380   8.158  0.1124 -0.1451  0.1327
  514loPI   C5A 8219   1.137  12.302   7.783 -0.0444  0.2605 -0.3252
  514loPI   C6A 8220   1.113  11.943   7.530 -0.0717  0.0139 -0.2206
  514loPI   C1B 8221   0.636  12.611   9.164 -0.1682 -0.3481 -0.0483
  514loPI   C2B 8222   0.605  12.650   8.625 -0.2188  0.1875  0.0024
  514loPI   C3B 8223   0.522  12.644   8.120 -0.0464 -0.0876 -0.4698
  514loPI   C4B 8224   0.534  12.799   7.639 -0.2279 -0.0570 -0.2425
  515loPI    C1 8225   3.455   9.870  10.520  0.1729  0.0908 -0.2361
  515loPI    C2 8226   3.214  10.066  10.267 -0.0003  0.0871 -0.0763
  515loPI    C3 8227   3.521  10.256  10.440  0.2103  0.0506 -0.4022
  515loPI   PO4 8228   3.459   9.645  10.256 -0.0204  0.1691 -0.1791
  515loPI   GL1 8229   3.370   9.631   9.890 -0.0318 -0.2895  0.0042
  515loPI   GL2 8230   3.645   9.434   9.781  0.0475 -0.1403  0.0564
  515loPI   C1A 8231   3.236   9.796   9.558  0.3253  0.0770  0.2999
  515loPI   C2A 8232   3.326   9.806   9.163  0.2135  0.0972 -0.0922
  515loPI   C3A 8233   3.289   9.797   8.715  0.0886 -0.0885  0.0554
  515loPI   C4A 8234   3.257   9.792   8.255 -0.0935  0.1847  0.1287
  515loPI   C5A 8235   3.321   9.867   7.861  0.0413 -0.2386 -0.1623
  515loPI   C6A 8236   2.998   9.971   7.575 -0.1839  0.4685 -0.0195
  515loPI   C1B 8237   3.718   9.465   9.313  0.1712 -0.0746  0.3761
  515loPI   C2B 8238   3.715   9.493   8.794  0.0675 -0.1418 -0.2577
  515loPI   C3B 8239   3.718   9.525   8.375  0.1448  0.1550 -0.0028
  515loPI   C4B 8240   3.733   9.482   7.899  0.0083 -0.0276 -0.1915
  516loPI    C1 8241   4.470   6.002  10.442  0.0495 -0.1078  0.2342
  516loPI    C2 8242   4.235   5.738  10.254  0.0717 -0.1149  0.2164
  516loPI    C3 8243   4.092   5.950  10.561 -0.0396  0.0738  0.0370
  516loPI   PO4 8244   4.573   6.145  10.218  0.0242 -0.0328 -0.1251
  516loPI   GL1 8245   4.504   6.218   9.789  0.0825 -0.0666 -0.2530
  516loPI   GL2 8246   4.257   6.105   9.784 -0.0161 -0.0555  0.2688
  516loPI   C1A 8247   4.649   6.253   9.363  0.0800 -0.3523 -0.3050
  516loPI   C2A 8248   4.753   6.253   8.879 -0.1097 -0.2055  0.2884
  516loPI   C3A 8249   4.797   6.267   8.347  0.1424 -0.3572 -0.1524
  516loPI   C4A 8250   4.840   6.541   8.015 -0.0850 -0.0684  0.3523
  516loPI   C5A 8251   4.880   6.478   7.575 -0.0293  0.1212  0.0072
  516loPI   C6A 8252   4.749   6.246   7.343 -0.0112  0.0421 -0.3783
  516loPI   C1B 8253   4.300   5.775   9.571 -0.3247  0.1168  0.0537
  516loPI   C2B 8254   4.405   5.778   9.234  0.1605  0.3446 -0.0413
  516loPI   C3B 8255   4.431   5.864   8.810 -0.2718  0.0297 -0.2083
  516loPI   C4B 8256   4.340   6.062   8.435  0.0435  0.1170  0.3276
  517loPI    C1 8257   5.118   4.087  10.500 -0.0328  0.3445 -0.0657
  517loPI    C2 8258   4.731   4.167  10.562 -0.0247  0.4183 -0.1094
  517loPI    C3 8259   4.994   4.211  10.860 -0.1093 -0.0176  0.0366
  517loPI   PO4 8260   5.157   4.103  10.257 -0.0821 -0.1105  0.0308
  517loPI   GL1 8261   5.317   3.897   9.978 -0.3086 -0.0595 -0.3867
  517loPI   GL2 8262   5.632   3.868   9.869  0.0518  0.0099  0.1149
  517loPI   C1A 8263   5.283   3.629   9.592 -0.2139  0.1591 -0.2087
  517loPI   C2A 8264   5.411   3.666   9.222  0.0046  0.1024  0.4141
  517loPI   C3A 8265   5.280   3.710   8.819 -0.0020 -0.2455  0.1360
  517loPI   C4A 8266   5.307   3.647   8.324  0.3109 -0.4732  0.1484
  517loPI   C5A 8267   5.269   3.617   7.917  0.1216 -0.4693 -0.1048
  517loPI   C6A 8268   5.119   3.516   7.446 -0.1212 -0.1829  0.1500
  517loPI   C1B 8269   5.721   4.115   9.393 -0.0074  0.2157 -0.2141
  517loPI   C2B 8270   5.680   4.008   8.879 -0.0798 -0.2449  0.1733
  517loPI   C3B 8271   5.681   3.950   8.417 -0.1525  0.0786 -0.0271
  517loPI   C4B 8272   5.715   3.905   7.988  0.1974  0.1859  0.2148
  518loPI    C1 8273   6.808   0.519  10.415  0.1378  0.2131 -0.1761
  518loPI    C2 8274   6.923   0.840  10.624 -0.0595  0.0613  0.1755
  518loPI    C3 8275   6.996   0.473  10.765 -0.0385 -0.0483 -0.1125
  518loPI   PO4 8276   6.925   0.422  10.092 -0.2899 -0.1796  0.2473
  518loPI   GL1 8277   6.933   0.613   9.614  0.0302  0.0931 -0.0059
  518loPI   GL2 8278   6.872   0.854   9.433  0.1756 -0.0188 -0.1160
  518loPI   C1A 8279   7.212   0.557   9.281  0.2036 -0.0447  0.1198
  518loPI   C2A 8280   7.214   0.454   8.806  0.0561 -0.1653  0.0505
  518loPI   C3A 8281   7.265   0.551   8.367 -0.2628  0.1281 -0.0202
  518loPI   C4A 8282   7.397   0.289   7.973 -0.2513  0.2361  0.1401
  518loPI   C5A 8283   7.306   0.205   7.604  0.1191  0.1640 -0.0698
  518loPI   C6A 8284   7.152   0.463   7.267  0.3171 -0.2928  0.2496
  518loPI   C1B 8285   6.770   0.824   8.969 -0.3019  0.0805 -0.1464
  518loPI   C2B 8286   6.840   0.892   8.557 -0.1038  0.0804  0.0401
  518loPI   C3B 8287   6.962   0.827   8.072 -0.0225 -0.0292  0.0328
  518loPI   C4B 8288   7.235   0.682   7.749 -0.3465 -0.0136  0.0289
  519loPI    C1 8289   9.217  17.065  10.143 -0.0626 -0.3629 -0.1488
  519loPI    C2 8290   9.560  16.919  10.289  0.0924  0.1209 -0.0116
  519loPI    C3 8291   9.237  16.945  10.524  0.0075 -0.1767 -0.0924
  519loPI   PO4 8292   9.229  16.973   9.883 -0.0422  0.1346 -0.0984
  519loPI   GL1 8293   9.162  16.742   9.489 -0.0704 -0.0186  0.1891
  519loPI   GL2 8294   8.858  16.733   9.419 -0.1268 -0.1034  0.1298
  519loPI   C1A 8295   9.444  16.531   9.064 -0.1171 -0.0209 -0.1233
  519loPI   C2A 8296   9.609  16.532   8.707 -0.0109 -0.0162 -0.1132
  519loPI   C3A 8297   9.690  16.775   8.450  0.4289  0.0506 -0.2446
  519loPI   C4A 8298   9.941  16.823   8.150 -0.1083 -0.1450 -0.1232
  519loPI   C5A 8299  10.066  16.825   7.755  0.2045  0.2514  0.2608
  519loPI   C6A 8300  10.225  16.575   7.441  0.1993 -0.2863 -0.1639
  519loPI   C1B 8301   8.971  16.722   8.967  0.0510  0.0946  0.0194
  519loPI   C2B 8302   9.158  16.785   8.521 -0.1306 -0.0702 -0.0160
  519loPI   C3B 8303   9.281  16.624   8.118 -0.2661 -0.0582  0.0603
  519loPI   C4B 8304   9.667  16.485   7.933  0.1896  0.0650  0.0861
  520loPI    C1 8305   3.811   0.638  10.082  0.0521  0.1465 -0.1775
  520loPI    C2 8306   3.872   0.322   9.844 -0.1026 -0.0086 -0.0147
  520loPI    C3 8307   3.910   0.284  10.241  0.0228  0.2153 -0.0039
  520loPI   PO4 8308   3.951   0.821   9.975 -0.1854 -0.1558  0.2743
  520loPI   GL1 8309   3.808   0.760   9.576 -0.3856 -0.1131 -0.0428
  520loPI   GL2 8310   3.886   1.132   9.545 -0.0289  0.3022 -0.0074
  520loPI   C1A 8311   3.987   0.738   9.184  0.0623  0.1853  0.1074
  520loPI   C2A 8312   3.993   0.786   8.711  0.1729  0.0775 -0.3037
  520loPI   C3A 8313   4.096   0.861   8.326  0.1226  0.1986 -0.1214
  520loPI   C4A 8314   4.136   0.919   7.917 -0.3231 -0.1030 -0.2113
  520loPI   C5A 8315   4.171   1.301   7.569 -0.2028 -0.1545  0.0553
  520loPI   C6A 8316   3.980   1.497   7.222 -0.1863 -0.0683  0.2777
  520loPI   C1B 8317   3.865   1.227   9.191  0.1835  0.2889  0.1388
  520loPI   C2B 8318   3.899   1.324   8.764 -0.2428  0.0773 -0.2196
  520loPI   C3B 8319   3.978   1.370   8.337  0.0644  0.1170 -0.3791
  520loPI   C4B 8320   4.028   1.395   8.016 -0.1168 -0.0972  0.4170
  521loPI    C1 8321   7.471   2.562  10.569  0.0691  0.0671  0.0602
  521loPI    C2 8322   7.208   2.284  10.684  0.2093 -0.0292  0.1509
  521loPI    C3 8323   7.267   2.608  10.910 -0.0394  0.1340 -0.0130
  521loPI   PO4 8324   7.488   2.616  10.332 -0.0770 -0.1468  0.2018
  521loPI   GL1 8325   7.312   2.820   9.984 -0.3024  0.1414  0.0492
  521loPI   GL2 8326   7.341   2.593   9.861  0.0563  0.2440 -0.0897
  521loPI   C1A 8327   7.162   3.013   9.618  0.1119  0.2333  0.0965
  521loPI   C2A 8328   7.260   3.075   9.183  0.1450 -0.0330  0.1631
  521loPI   C3A 8329   7.215   3.012   8.719 -0.3544  0.0509 -0.2245
  521loPI   C4A 8330   7.238   2.949   8.266 -0.2503  0.1780  0.0089
  521loPI   C5A 8331   7.210   3.093   7.823 -0.0424  0.0071 -0.0013
  521loPI   C6A 8332   7.250   3.097   7.390  0.0044 -0.0255  0.1363
  521loPI   C1B 8333   7.466   2.517   9.519 -0.2830 -0.2190 -0.0611
  521loPI   C2B 8334   7.354   2.563   9.174 -0.0762 -0.1346  0.1053
  521loPI   C3B 8335   7.397   2.483   8.821  0.1213  0.0777 -0.0329
  521loPI   C4B 8336   7.290   2.553   8.560 -0.5119 -0.0548  0.1485
  522loPI    C1 8337  18.106   4.822  10.161 -0.2140 -0.2253 -0.1253
  522loPI    C2 8338  18.120   4.953  10.539 -0.1471  0.0477 -0.2195
  522loPI    C3 8339  17.807   4.738  10.412 -0.2308  0.0652 -0.0446
  522loPI   PO4 8340  18.346   4.790  10.108 -0.0881  0.0045  0.2604
  522loPI   GL1 8341  18.422   4.347   9.821 -0.1598 -0.1130 -0.1620
  522loPI   GL2 8342  18.813   4.523   9.804 -0.2246 -0.0158  0.1764
  522loPI   C1A 8343  18.428   4.461   9.396 -0.2171 -0.3771  0.3750
  522loPI   C2A 8344  18.228   4.353   9.084 -0.0749 -0.1490  0.2780
  522loPI   C3A 8345  18.309   4.720   8.762 -0.0841 -0.0464 -0.1100
  522loPI   C4A 8346  18.389   4.892   8.363  0.0319 -0.2221 -0.1716
  522loPI   C5A 8347  18.546   4.979   7.984 -0.0558 -0.0003  0.0649
  522loPI   C6A 8348  18.701   4.545   7.834  0.0415 -0.1315  0.0283
  522loPI   C1B 8349  19.035   4.563   9.402  0.3588 -0.1316  0.5470
  522loPI   C2B 8350  19.307   4.727   9.005  0.0764 -0.2769  0.0872
  522loPI   C3B 8351  19.461   4.970   8.656 -0.0748 -0.0303 -0.1384
  522loPI   C4B 8352  19.704   5.339   8.414  0.1135  0.3208 -0.0852
  523loPI    C1 8353   3.613   7.722  10.390 -0.1320 -0.3026 -0.3680
  523loPI    C2 8354   3.792   7.562  10.710 -0.1079  0.3830 -0.0202
  523loPI    C3 8355   3.454   7.402  10.570  0.0329 -0.0966  0.1667
  523loPI   PO4 8356   3.762   7.742  10.185 -0.2433 -0.0726 -0.1365
  523loPI   GL1 8357   3.788   8.213   9.876  0.5195 -0.1238  0.2507
  523loPI   GL2 8358   3.521   7.919   9.809  0.0628  0.1201  0.1470
  523loPI   C1A 8359   3.737   8.348   9.416  0.2738 -0.1798  0.1422
  523loPI   C2A 8360   3.807   8.272   9.015 -0.1564 -0.0134  0.1415
  523loPI   C3A 8361   3.592   8.533   8.633  0.2136  0.3001 -0.1200
  523loPI   C4A 8362   3.537   8.553   8.237  0.0047  0.3447 -0.0378
  523loPI   C5A 8363   3.546   8.714   7.866 -0.3807  0.1958 -0.1276
  523loPI   C6A 8364   3.586   9.066   7.556  0.0322  0.2316 -0.4044
  523loPI   C1B 8365   3.454   7.899   9.314 -0.0248  0.2400  0.0381
  523loPI   C2B 8366   3.416   7.694   8.971 -0.3683  0.0595 -0.0672
  523loPI   C3B 8367   3.446   7.574   8.522  0.1681  0.2023  0.0184
  523loPI   C4B 8368   3.701   7.202   8.214  0.0801 -0.0345  0.2866
  524loPI    C1 8369  14.054   6.606  10.169  0.0106  0.3036  0.0745
  524loPI    C2 8370  13.709   6.758  10.301 -0.2232 -0.2234  0.0931
  524loPI    C3 8371  14.016   6.710  10.553 -0.2294 -0.0199  0.1416
  524loPI   PO4 8372  14.146   6.727   9.953 -0.3314  0.0918  0.3227
  524loPI   GL1 8373  14.304   7.039   9.635  0.5023 -0.0780 -0.1487
  524loPI   GL2 8374  13.922   6.975   9.567  0.0268 -0.0808  0.1586
  524loPI   C1A 8375  14.444   6.940   9.207 -0.0612  0.0670 -0.2306
  524loPI   C2A 8376  14.599   6.930   8.834 -0.0447 -0.1463 -0.1331
  524loPI   C3A 8377  14.621   7.001   8.431  0.0122  0.2308  0.0951
  524loPI   C4A 8378  14.521   6.882   7.997  0.1277 -0.0758  0.0712
  524loPI   C5A 8379  14.583   6.499   7.722  0.1107  0.2489  0.1811
  524loPI   C6A 8380  14.479   6.063   7.594 -0.5190 -0.4300  0.1497
  524loPI   C1B 8381  13.962   6.731   9.193  0.0693 -0.0140  0.3261
  524loPI   C2B 8382  14.053   6.672   8.765 -0.0307  0.1153 -0.0947
  524loPI   C3B 8383  14.222   6.623   8.331 -0.3312  0.0168 -0.0796
  524loPI   C4B 8384  14.247   6.268   8.061  0.0941  0.2509 -0.2445
  525loPI    C1 8385   1.582   2.182  10.020  0.0855  0.1862 -0.1795
  525loPI    C2 8386   1.967   2.238  10.115  0.0063  0.0855  0.2221
  525loPI    C3 8387   1.684   2.276  10.395 -0.2419 -0.2263  0.0215
  525loPI   PO4 8388   1.602   2.143   9.744 -0.1600 -0.0118  0.1595
  525loPI   GL1 8389   1.464   2.170   9.340  0.2195 -0.3173 -0.1875
  525loPI   GL2 8390   1.239   2.045   9.262 -0.2306 -0.0790  0.2471
  525loPI   C1A 8391   1.499   2.268   8.921 -0.0925  0.1999  0.0338
  525loPI   C2A 8392   1.575   2.263   8.369 -0.3729 -0.0552 -0.2515
  525loPI   C3A 8393   1.411   2.117   7.955  0.1461 -0.0222  0.2683
  525loPI   C4A 8394   1.450   2.410   7.599  0.0109 -0.2455  0.1122
  525loPI   C5A 8395   1.791   2.706   7.365 -0.3090 -0.4107 -0.3855
  525loPI   C6A 8396   1.832   2.935   7.125 -0.2078  0.1744  0.1869
  525loPI   C1B 8397   1.155   1.778   8.805 -0.3090 -0.0343 -0.0754
  525loPI   C2B 8398   1.149   1.946   8.393 -0.1960  0.0979 -0.4111
  525loPI   C3B 8399   1.035   2.359   8.293 -0.0181 -0.0865 -0.1680
  525loPI   C4B 8400   0.630   2.545   8.222  0.0878 -0.3358  0.2610
  526loPI    C1 8401  13.364   1.858  10.776  0.0531  0.0569 -0.0826
  526loPI    C2 8402  13.686   1.623  10.814  0.0422  0.0026 -0.3102
  526loPI    C3 8403  13.663   1.966  11.019  0.1712 -0.0720 -0.1688
  526loPI   PO4 8404  13.096   1.714  10.785 -0.2492  0.2695  0.0289
  526loPI   GL1 8405  13.006   1.561  10.354 -0.1879  0.1043 -0.0161
  526loPI   GL2 8406  13.089   1.429  10.176 -0.1104  0.0475  0.1423
  526loPI   C1A 8407  12.933   1.937   9.994 -0.0326 -0.0793  0.1119
  526loPI   C2A 8408  12.979   2.170   9.573  0.2387  0.0736  0.1514
  526loPI   C3A 8409  13.100   2.273   9.180  0.0031  0.0063  0.0740
  526loPI   C4A 8410  13.102   2.271   8.696  0.0701 -0.0290 -0.2873
  526loPI   C5A 8411  12.971   2.282   8.247  0.2386  0.0110  0.2534
  526loPI   C6A 8412  12.861   1.904   8.015 -0.1606  0.2685 -0.1187
  526loPI   C1B 8413  12.917   1.463   9.757  0.3195  0.1296 -0.1342
  526loPI   C2B 8414  12.852   1.445   9.331 -0.2439  0.1601 -0.1625
  526loPI   C3B 8415  12.765   1.411   8.925  0.1471 -0.1874 -0.2401
  526loPI   C4B 8416  12.767   1.551   8.493 -0.0383  0.2199  0.0521
  527loPI    C1 8417   9.156   6.875  10.473  0.0352 -0.1038  0.0168
  527loPI    C2 8418   9.082   7.207  10.683 -0.3027 -0.2330  0.1090
  527loPI    C3 8419   9.352   6.943  10.815  0.0704  0.0656 -0.0363
  527loPI   PO4 8420   9.130   6.948  10.232 -0.1894 -0.1075 -0.0180
  527loPI   GL1 8421   9.376   6.865   9.858  0.3367 -0.2508 -0.5031
  527loPI   GL2 8422   9.607   7.076   9.851  0.1405  0.0488  0.1694
  527loPI   C1A 8423   9.335   6.653   9.511  0.1089  0.1749  0.1444
  527loPI   C2A 8424   9.201   6.248   9.407 -0.1887 -0.1884  0.0037
  527loPI   C3A 8425   9.229   6.082   8.967 -0.1827  0.1517  0.0311
  527loPI   C4A 8426   9.330   6.135   8.580  0.0765  0.2512 -0.1362
  527loPI   C5A 8427   9.243   6.313   8.264 -0.2583  0.1823  0.1022
  527loPI   C6A 8428   9.361   6.640   8.038  0.0505  0.2710 -0.1931
  527loPI   C1B 8429   9.401   7.162   9.411 -0.0107 -0.0655  0.2569
  527loPI   C2B 8430   9.175   7.185   9.168 -0.1256  0.2258 -0.2898
  527loPI   C3B 8431   9.070   7.212   8.798  0.0763  0.1313  0.1053
  527loPI   C4B 8432   9.041   7.051   8.329  0.1145 -0.0292 -0.1149
  528loPI    C1 8433   0.727  16.551   9.731  0.0948 -0.2058 -0.0559
  528loPI    C2 8434   0.344  16.650   9.671  0.1624  0.1733  0.1073
  528loPI    C3 8435   0.435  16.311   9.861 -0.0933  0.1224  0.1430
  528loPI   PO4 8436   0.837  16.723   9.542 -0.0706 -0.0236 -0.0320
  528loPI   GL1 8437   0.778  16.580   9.039 -0.0761  0.1302  0.2005
  528loPI   GL2 8438   1.139  16.470   9.195  0.2564 -0.0314 -0.0809
  528loPI   C1A 8439   0.634  16.645   8.612 -0.1632  0.2779  0.0715
  528loPI   C2A 8440   0.479  16.485   8.302  0.2942  0.0621 -0.1041
  528loPI   C3A 8441   0.483  16.395   7.910  0.0421 -0.2642 -0.0456
  528loPI   C4A 8442   0.555  16.494   7.549 -0.1888  0.2567  0.0077
  528loPI   C5A 8443   0.230  16.321   7.101  0.0059  0.0903 -0.0764
  528loPI   C6A 8444  -0.127  16.425   7.043  0.1758 -0.0291  0.0398
  528loPI   C1B 8445   1.415  16.388   8.858 -0.0542 -0.0489  0.4669
  528loPI   C2B 8446   1.472  16.299   8.408  0.3611 -0.0502  0.7063
  528loPI   C3B 8447   1.567  15.914   8.124 -0.0459 -0.1514  0.3352
  528loPI   C4B 8448   1.932  15.563   8.029 -0.1560 -0.0004  0.2342
  529loPI    C1 8449   3.168  10.468  10.706  0.0510 -0.0751  0.1337
  529loPI    C2 8450   3.253  10.685  11.030  0.1101 -0.1104  0.1421
  529loPI    C3 8451   3.456  10.348  10.957  0.3300  0.0723 -0.1090
  529loPI   PO4 8452   3.165  10.677  10.530  0.1495 -0.3484 -0.0575
  529loPI   GL1 8453   3.309  10.947  10.183  0.1989 -0.0294 -0.1537
  529loPI   GL2 8454   3.089  11.047  10.005 -0.0747  0.1129 -0.0693
  529loPI   C1A 8455   3.447  10.888   9.768 -0.3903  0.4347 -0.2262
  529loPI   C2A 8456   3.489  10.740   9.490  0.2159  0.2433 -0.0894
  529loPI   C3A 8457   3.576  10.777   9.070 -0.0456 -0.3061 -0.0025
  529loPI   C4A 8458   3.554  10.756   8.578 -0.2771  0.1016 -0.0352
  529loPI   C5A 8459   3.564  10.777   8.164 -0.0854 -0.0868  0.0109
  529loPI   C6A 8460   3.622  10.906   7.813 -0.5203 -0.1159 -0.2953
  529loPI   C1B 8461   3.070  11.165   9.657  0.1482  0.1284  0.1529
  529loPI   C2B 8462   3.183  11.206   9.277 -0.1073  0.0145 -0.0953
  529loPI   C3B 8463   3.202  11.051   8.877  0.3993  0.0237  0.2970
  529loPI   C4B 8464   3.128  11.090   8.415  0.1693  0.3522 -0.1499
  530loPI    C1 8465  10.971   5.764  10.312  0.1379  0.0121  0.1385
  530loPI    C2 8466  11.350   5.869  10.384  0.1790  0.0442 -0.1165
  530loPI    C3 8467  11.103   5.791  10.689  0.3250  0.2521  0.0578
  530loPI   PO4 8468  10.977   5.624  10.088 -0.0607  0.3834 -0.0806
  530loPI   GL1 8469  10.896   5.614   9.687  0.2173  0.0686  0.0084
  530loPI   GL2 8470  10.740   5.372   9.709  0.0407  0.0172 -0.0795
  530loPI   C1A 8471  11.150   5.993   9.540 -0.1294 -0.0536 -0.1786
  530loPI   C2A 8472  11.141   6.235   9.144  0.1459  0.3939 -0.1862
  530loPI   C3A 8473  11.350   6.360   8.711  0.0437 -0.3645  0.3479
  530loPI   C4A 8474  11.232   6.238   8.422  0.3032  0.1354 -0.2418
  530loPI   C5A 8475  11.222   6.151   8.063  0.0738  0.2182  0.0693
  530loPI   C6A 8476  10.796   6.012   7.886 -0.1225 -0.2571 -0.0298
  530loPI   C1B 8477  10.717   5.027   9.533  0.1773  0.0395 -0.2209
  530loPI   C2B 8478  10.587   4.918   9.061  0.2042 -0.0905 -0.3263
  530loPI   C3B 8479  10.586   4.843   8.596  0.3255 -0.0017 -0.1228
  530loPI   C4B 8480  10.605   4.788   8.055  0.0185  0.1412  0.1165
  531loPI    C1 8481  11.021   4.759  10.606  0.0148 -0.0800 -0.1069
  531loPI    C2 8482  11.407   4.776  10.708 -0.0016 -0.0983 -0.0419
  531loPI    C3 8483  11.125   4.870  10.975 -0.0447 -0.1530 -0.0679
  531loPI   PO4 8484  10.926   4.792  10.352  0.2294 -0.0049  0.1712
  531loPI   GL1 8485  11.039   5.032  10.030  0.2643  0.2437  0.0138
  531loPI   GL2 8486  11.228   5.219   9.858 -0.2236 -0.2032 -0.0707
  531loPI   C1A 8487  11.097   4.702   9.627 -0.1361  0.2358 -0.1503
  531loPI   C2A 8488  11.105   4.674   9.201 -0.1064  0.0460  0.3372
  531loPI   C3A 8489  11.096   4.875   8.762 -0.2983  0.1979 -0.0650
  531loPI   C4A 8490  11.112   4.886   8.320 -0.4118 -0.1026  0.2345
  531loPI   C5A 8491  11.608   4.933   8.017  0.2850  0.0461 -0.1890
  531loPI   C6A 8492  11.935   4.752   7.831  0.3157 -0.1528  0.3390
  531loPI   C1B 8493  11.203   5.165   9.460  0.2528 -0.1400  0.5152
  531loPI   C2B 8494  11.022   5.297   9.090  0.0599  0.1791  0.0246
  531loPI   C3B 8495  10.863   5.364   8.576  0.1288  0.2480 -0.0383
  531loPI   C4B 8496  10.684   5.664   8.253 -0.0951  0.3051  0.0606
  532loPI    C1 8497   0.411  18.370   9.988 -0.0997  0.0731  0.0562
  532loPI    C2 8498   0.543  17.994   9.957  0.1449  0.1565  0.0663
  532loPI    C3 8499   0.619  18.206  10.287  0.1847  0.2820 -0.0227
  532loPI   PO4 8500   0.406  18.404   9.687 -0.1371  0.2274  0.2251
  532loPI   GL1 8501   0.565  18.292   9.323 -0.1167 -0.2389 -0.0017
  532loPI   GL2 8502   0.791  18.187   9.453  0.0671  0.0698 -0.0110
  532loPI   C1A 8503   0.582  18.345   8.845 -0.1365 -0.2574  0.1326
  532loPI   C2A 8504   0.874  18.170   8.515 -0.0306 -0.3757 -0.1195
  532loPI   C3A 8505   0.741  18.066   8.083 -0.1251  0.0215 -0.2014
  532loPI   C4A 8506   0.651  17.981   7.664 -0.0405  0.2531 -0.0772
  532loPI   C5A 8507   0.676  17.589   7.401 -0.1434  0.1530  0.0025
  532loPI   C6A 8508   0.905  17.178   7.422 -0.0749  0.2860  0.0920
  532loPI   C1B 8509   0.783  17.929   9.069 -0.0158  0.1827  0.2262
  532loPI   C2B 8510   0.726  17.685   8.691  0.0772  0.0511  0.0551
  532loPI   C3B 8511   0.727  17.582   8.309  0.1754  0.0368  0.0405
  532loPI   C4B 8512   0.481  17.526   7.832 -0.2839  0.0933 -0.1748
  533loPI    C1 8513   4.479   2.687  10.612  0.0634  0.0194  0.1732
  533loPI    C2 8514   4.157   2.643  10.845 -0.1492 -0.2804 -0.1666
  533loPI    C3 8515   4.479   2.413  10.903 -0.0140 -0.0240  0.1325
  533loPI   PO4 8516   4.456   2.692  10.327 -0.0423 -0.0673 -0.3363
  533loPI   GL1 8517   4.366   2.815   9.927  0.2443  0.0187 -0.2224
  533loPI   GL2 8518   4.331   3.143   9.927 -0.5495  0.0569  0.3362
  533loPI   C1A 8519   4.173   2.677   9.550 -0.3033  0.0644 -0.6523
  533loPI   C2A 8520   4.133   2.597   9.142 -0.2737 -0.0859  0.2931
  533loPI   C3A 8521   4.156   2.614   8.744 -0.1626 -0.0149  0.2090
  533loPI   C4A 8522   4.073   2.696   8.257  0.2976  0.0498  0.2246
  533loPI   C5A 8523   4.025   3.038   7.914 -0.1688  0.1700 -0.0310
  533loPI   C6A 8524   3.755   3.242   7.931  0.3658 -0.0593  0.3482
  533loPI   C1B 8525   4.503   3.097   9.583 -0.2834  0.0687  0.0206
  533loPI   C2B 8526   4.527   2.954   9.228  0.2676  0.0448 -0.0509
  533loPI   C3B 8527   4.534   2.980   8.790 -0.2957  0.0233 -0.0632
  533loPI   C4B 8528   4.532   3.011   8.286  0.0168  0.0009  0.2665
  534loPI    C1 8529   5.066  17.517  10.023 -0.2108  0.2160  0.0940
  534loPI    C2 8530   5.377  17.372  10.229  0.0801  0.2943 -0.2783
  534loPI    C3 8531   5.077  17.553  10.422  0.1442  0.0039  0.1083
  534loPI   PO4 8532   5.130  17.484   9.774 -0.0719 -0.3489  0.2043
  534loPI   GL1 8533   5.444  17.510   9.493 -0.1504 -0.3312 -0.3071
  534loPI   GL2 8534   5.497  17.868   9.531  0.1330 -0.0368  0.0899
  534loPI   C1A 8535   5.633  17.551   9.118 -0.1512 -0.0189  0.2607
  534loPI   C2A 8536   5.735  17.562   8.693  0.0737  0.0074 -0.2328
  534loPI   C3A 8537   5.824  17.591   8.187 -0.1777  0.0223  0.0252
  534loPI   C4A 8538   6.129  17.492   7.805 -0.1813  0.0382 -0.0974
  534loPI   C5A 8539   6.221  17.426   7.330  0.1525 -0.1157 -0.0566
  534loPI   C6A 8540   6.194  17.283   6.897 -0.4268 -0.2520  0.0859
  534loPI   C1B 8541   5.571  18.103   9.083 -0.0683  0.2202  0.1460
  534loPI   C2B 8542   5.624  18.124   8.657 -0.1187  0.1901 -0.0448
  534loPI   C3B 8543   5.553  17.984   8.304 -0.0495 -0.1900  0.2984
  534loPI   C4B 8544   5.469  17.891   7.935  0.3066  0.0004  0.1400
  535loPI    C1 8545  15.157  13.133  10.172 -0.1076  0.3020 -0.0864
  535loPI    C2 8546  15.025  13.200  10.544 -0.1269  0.2759 -0.0885
  535loPI    C3 8547  15.404  13.287  10.447 -0.0643  0.0972 -0.0089
  535loPI   PO4 8548  15.124  12.880  10.177  0.1860 -0.2072 -0.3247
  535loPI   GL1 8549  15.240  12.655   9.931 -0.0201  0.1291  0.4155
  535loPI   GL2 8550  15.095  12.917   9.706  0.2995  0.0476 -0.1821
  535loPI   C1A 8551  15.311  12.476   9.584 -0.2279 -0.0824  0.0165
  535loPI   C2A 8552  15.219  12.565   9.183 -0.0595 -0.0872 -0.1465
  535loPI   C3A 8553  15.251  12.643   8.751  0.2020  0.0614 -0.1558
  535loPI   C4A 8554  15.405  12.622   8.311  0.2811  0.2356 -0.2325
  535loPI   C5A 8555  15.689  12.715   8.030 -0.1193  0.1050 -0.2896
  535loPI   C6A 8556  15.881  13.097   7.937  0.1305 -0.1814 -0.4021
  535loPI   C1B 8557  14.853  12.875   9.311  0.1793  0.2799 -0.0771
  535loPI   C2B 8558  14.856  13.015   9.042  0.0098  0.0366 -0.2301
  535loPI   C3B 8559  14.619  13.174   8.739  0.1587  0.1203  0.0037
  535loPI   C4B 8560  14.590  13.401   8.478  0.0346  0.1126  0.2529
  536loPI    C1 8561  10.231  12.554  10.063 -0.1192  0.0460 -0.0989
  536loPI    C2 8562  10.166  12.725  10.419 -0.0392  0.2457 -0.1789
  536loPI    C3 8563  10.541  12.670  10.289 -0.0702  0.3206 -0.3017
  536loPI   PO4 8564  10.147  12.760   9.893 -0.1826 -0.3798  0.0872
  536loPI   GL1 8565  10.207  13.081   9.547 -0.0039 -0.1165  0.0633
  536loPI   GL2 8566  10.080  13.464   9.650 -0.1335  0.0080 -0.0997
  536loPI   C1A 8567  10.357  12.869   9.152 -0.2590 -0.2103 -0.1814
  536loPI   C2A 8568  10.195  12.656   8.848 -0.1219 -0.0794  0.1126
  536loPI   C3A 8569   9.981  12.606   8.454  0.0221  0.0874 -0.2017
  536loPI   C4A 8570   9.886  12.560   8.042 -0.2037  0.1082  0.1701
  536loPI   C5A 8571   9.586  12.467   7.766 -0.6587  0.2717 -0.0978
  536loPI   C6A 8572   9.223  12.405   7.775  0.0889 -0.1374  0.0737
  536loPI   C1B 8573  10.039  13.762   9.258  0.0359 -0.0546 -0.4034
  536loPI   C2B 8574   9.903  13.880   8.918  0.0642 -0.0102 -0.3040
  536loPI   C3B 8575   9.891  13.820   8.461 -0.1811 -0.0910  0.1969
  536loPI   C4B 8576   9.726  13.831   8.065 -0.2716 -0.0793  0.0809
  537loPI    C1 8577  14.880   4.425  10.513  0.0657 -0.0099  0.3123
  537loPI    C2 8578  14.897   4.030  10.448  0.0106  0.0505 -0.0915
  537loPI    C3 8579  15.234   4.247  10.455  0.0513 -0.0183  0.2500
  537loPI   PO4 8580  14.666   4.496  10.359  0.2513 -0.0060  0.2499
  537loPI   GL1 8581  14.529   4.366   9.898 -0.1718  0.1679  0.0731
  537loPI   GL2 8582  14.730   4.143   9.978  0.2046  0.1198 -0.2223
  537loPI   C1A 8583  14.485   4.427   9.474 -0.2965  0.0593  0.0523
  537loPI   C2A 8584  14.397   4.382   9.025  0.1520  0.2243  0.0483
  537loPI   C3A 8585  14.425   4.162   8.728 -0.1037  0.0977  0.3212
  537loPI   C4A 8586  14.366   4.309   8.365 -0.1625  0.3733  0.3645
  537loPI   C5A 8587  14.481   4.261   7.891  0.1290  0.1295  0.1276
  537loPI   C6A 8588  14.436   4.243   7.446 -0.2080  0.0712 -0.3307
  537loPI   C1B 8589  14.826   4.097   9.604 -0.0285 -0.0639 -0.2153
  537loPI   C2B 8590  14.819   4.123   9.206 -0.1202  0.1256  0.1844
  537loPI   C3B 8591  14.937   4.042   8.776  0.3797 -0.1237  0.0440
  537loPI   C4B 8592  14.834   4.074   8.326 -0.4001 -0.0832  0.0755
  538loPI    C1 8593   6.082   3.841  10.870  0.2184  0.0762  0.1287
  538loPI    C2 8594   5.881   3.500  10.927  0.3080  0.0207  0.1146
  538loPI    C3 8595   5.843   3.800  11.188  0.1387  0.0440  0.0651
  538loPI   PO4 8596   6.152   3.783  10.539  0.1820  0.1202  0.0737
  538loPI   GL1 8597   6.154   3.622  10.078  0.3723  0.0663 -0.0759
  538loPI   GL2 8598   5.892   3.379   9.851  0.2927  0.0458 -0.0740
  538loPI   C1A 8599   6.147   3.846   9.714 -0.0355  0.2324 -0.2474
  538loPI   C2A 8600   6.097   3.850   9.262 -0.4124  0.1604 -0.2109
  538loPI   C3A 8601   6.173   3.841   8.816  0.2713  0.3627 -0.0711
  538loPI   C4A 8602   6.261   3.872   8.315  0.0156  0.0266  0.4550
  538loPI   C5A 8603   6.169   3.795   7.880  0.4203  0.1175 -0.2322
  538loPI   C6A 8604   6.058   3.606   7.523 -0.2496  0.5935  0.1071
  538loPI   C1B 8605   5.816   3.459   9.418 -0.0983  0.0821  0.0317
  538loPI   C2B 8606   5.843   3.482   8.960 -0.0209 -0.1295 -0.1504
  538loPI   C3B 8607   5.774   3.477   8.541  0.1161 -0.1703 -0.0831
  538loPI   C4B 8608   5.747   3.397   8.038 -0.1047 -0.1630  0.0786
  539loPI    C1 8609   1.960  18.220  10.116 -0.1346  0.0469 -0.0459
  539loPI    C2 8610   1.593  18.085  10.032 -0.1416 -0.0611  0.1531
  539loPI    C3 8611   1.808  17.913  10.322  0.0704 -0.0039  0.0318
  539loPI   PO4 8612   2.039  18.266   9.980  0.3299  0.1284  0.0631
  539loPI   GL1 8613   2.280  18.368   9.554 -0.0399 -0.0893 -0.1238
  539loPI   GL2 8614   2.112  18.162   9.388  0.1358  0.1921 -0.3576
  539loPI   C1A 8615   2.497  18.670   9.313 -0.0927  0.1584 -0.0363
  539loPI   C2A 8616   2.774  18.690   8.954  0.2419 -0.1036  0.1187
  539loPI   C3A 8617   2.802  18.621   8.576  0.1766  0.0555  0.4183
  539loPI   C4A 8618   2.853  18.637   8.095 -0.1583  0.0309 -0.0456
  539loPI   C5A 8619   3.019  18.731   7.714 -0.0414 -0.1693  0.0471
  539loPI   C6A 8620   3.271  18.616   7.268  0.2169  0.1020 -0.1835
  539loPI   C1B 8621   2.183  18.306   9.022  0.1269  0.1233 -0.0277
  539loPI   C2B 8622   2.383  18.328   8.649 -0.1428  0.1107  0.0940
  539loPI   C3B 8623   2.488  18.379   8.208 -0.0144 -0.3608 -0.0738
  539loPI   C4B 8624   2.458  18.376   7.749  0.0310  0.1280  0.1616
  540loPI    C1 8625  13.500  18.065  10.436  0.0234 -0.2529 -0.0433
  540loPI    C2 8626  13.647  17.694  10.461  0.0384 -0.2338  0.1771
  540loPI    C3 8627  13.573  17.902  10.794 -0.0340 -0.0635  0.0561
  540loPI   PO4 8628  13.462  18.019  10.136  0.4173  0.0333  0.2069
  540loPI   GL1 8629  13.239  18.329   9.977 -0.0081  0.4458 -0.2784
  540loPI   GL2 8630  12.880  18.273   9.827 -0.1894  0.0962  0.1416
  540loPI   C1A 8631  13.583  18.548   9.713 -0.0732  0.1306  0.0029
  540loPI   C2A 8632  13.647  18.533   9.298  0.1479  0.0839  0.0536
  540loPI   C3A 8633  13.668  18.681   8.911 -0.1373  0.1954  0.1196
  540loPI   C4A 8634  13.613  18.686   8.485 -0.2346 -0.2336  0.1409
  540loPI   C5A 8635  13.611  18.689   8.081 -0.3120 -0.1766  0.0585
  540loPI   C6A 8636  13.785  18.417   7.827 -0.0994  0.1114  0.2245
  540loPI   C1B 8637  12.698  18.327   9.393  0.2856  0.2458 -0.2944
  540loPI   C2B 8638  12.787  18.378   8.898 -0.1115 -0.1062  0.1977
  540loPI   C3B 8639  12.836  18.525   8.509  0.1655 -0.0866  0.2096
  540loPI   C4B 8640  12.857  18.513   8.153  0.2351  0.0398  0.2710
  541loPI    C1 8641   9.841  14.915  10.140  0.1260 -0.0125 -0.1261
  541loPI    C2 8642   9.775  14.619  10.401 -0.2226  0.1803  0.0112
  541loPI    C3 8643  10.009  14.927  10.503 -0.0322  0.0586 -0.0540
  541loPI   PO4 8644   9.963  14.828   9.984  0.0991 -0.2703 -0.2064
  541loPI   GL1 8645   9.830  14.695   9.627  0.0926  0.1826  0.0036
  541loPI   GL2 8646  10.099  14.695   9.460  0.0586 -0.3612  0.0082
  541loPI   C1A 8647   9.624  14.579   9.290  0.0473 -0.0794 -0.0659
  541loPI   C2A 8648   9.417  14.641   8.859  0.1790 -0.1158  0.2477
  541loPI   C3A 8649   9.237  14.507   8.443  0.0461  0.0311  0.0149
  541loPI   C4A 8650   9.233  14.324   8.101 -0.2371 -0.0717  0.0208
  541loPI   C5A 8651   9.497  14.191   7.835 -0.0159 -0.1027  0.0855
  541loPI   C6A 8652   9.999  14.138   7.735  0.1769  0.4267 -0.1519
  541loPI   C1B 8653  10.027  14.788   8.996  0.1932  0.0032 -0.2251
  541loPI   C2B 8654   9.896  14.809   8.599 -0.0558  0.0656  0.2070
  541loPI   C3B 8655   9.973  15.044   8.232  0.1283 -0.1983  0.1063
  541loPI   C4B 8656  10.103  15.454   8.186  0.3451 -0.0455 -0.1213
  542loPI    C1 8657   7.961  10.222  10.110 -0.0415 -0.1949 -0.0610
  542loPI    C2 8658   7.866  10.029  10.447 -0.0244  0.2057  0.1801
  542loPI    C3 8659   7.767  10.414  10.403 -0.0643  0.1469 -0.2938
  542loPI   PO4 8660   7.952  10.040   9.935  0.1092 -0.0916 -0.1069
  542loPI   GL1 8661   8.119  10.080   9.572  0.0310 -0.0758 -0.1333
  542loPI   GL2 8662   8.148  10.178   9.332 -0.1481  0.3320  0.1138
  542loPI   C1A 8663   7.961   9.693   9.302 -0.0464 -0.4272 -0.2041
  542loPI   C2A 8664   7.961   9.547   8.870  0.0147  0.0219 -0.0613
  542loPI   C3A 8665   7.917   9.307   8.536 -0.1315  0.0655 -0.0827
  542loPI   C4A 8666   7.992   9.051   8.092  0.0914  0.0338 -0.0104
  542loPI   C5A 8667   8.021   8.795   7.725 -0.0786  0.1972 -0.0787
  542loPI   C6A 8668   8.054   8.981   7.337  0.1617 -0.0582  0.1276
  542loPI   C1B 8669   8.153  10.007   8.943 -0.1432  0.0290  0.2399
  542loPI   C2B 8670   8.246   9.950   8.458  0.0511 -0.2371  0.1658
  542loPI   C3B 8671   8.245  10.081   8.077  0.0395 -0.1017  0.1365
  542loPI   C4B 8672   8.360  10.256   7.657  0.0308 -0.4419  0.0184
  543loPI    C1 8673   6.478  15.419  10.602  0.0936 -0.0422  0.1743
  543loPI    C2 8674   6.374  15.111  10.836  0.0602 -0.1142  0.0655
  543loPI    C3 8675   6.428  15.474  10.995 -0.0298 -0.1479  0.1742
  543loPI   PO4 8676   6.441  15.313  10.429  0.1556 -0.1281 -0.1948
  543loPI   GL1 8677   6.513  15.034  10.044 -0.3783  0.1377 -0.1277
  543loPI   GL2 8678   6.222  14.936   9.879  0.0825 -0.1982  0.2454
  543loPI   C1A 8679   6.675  14.786   9.691  0.0430  0.2749 -0.1649
  543loPI   C2A 8680   6.654  14.522   9.264  0.0816 -0.0018 -0.1748
  543loPI   C3A 8681   6.447  14.478   8.771 -0.2415 -0.4596  0.0141
  543loPI   C4A 8682   6.274  14.432   8.316  0.0052 -0.1725 -0.1496
  543loPI   C5A 8683   5.974  14.189   7.997 -0.0309 -0.0890  0.0825
  543loPI   C6A 8684   5.868  14.208   7.594 -0.0276  0.0766 -0.0056
  543loPI   C1B 8685   6.260  15.052   9.439 -0.0278 -0.2043 -0.1449
  543loPI   C2B 8686   6.221  14.794   9.128 -0.2412 -0.0696 -0.3516
  543loPI   C3B 8687   5.971  14.690   8.716 -0.0981  0.1569  0.2256
  543loPI   C4B 8688   5.831  14.289   8.535  0.1505  0.1587 -0.1190
  544loPI    C1 8689   8.926   2.729  10.509  0.0646  0.0930 -0.0575
  544loPI    C2 8690   9.310   2.631  10.562  0.0565 -0.0358 -0.2282
  544loPI    C3 8691   9.082   2.726  10.877  0.2162 -0.0027 -0.1217
  544loPI   PO4 8692   8.845   2.548  10.288 -0.4445  0.0759  0.1004
  544loPI   GL1 8693   8.653   2.751   9.880  0.1007 -0.0278 -0.1414
  544loPI   GL2 8694   8.841   2.495   9.757  0.0556 -0.3234  0.0226
  544loPI   C1A 8695   8.595   2.939   9.463  0.0580 -0.1289 -0.0775
  544loPI   C2A 8696   8.731   3.039   9.097 -0.0029  0.3021  0.0132
  544loPI   C3A 8697   8.710   3.034   8.588  0.1268 -0.1555 -0.1312
  544loPI   C4A 8698   8.692   3.109   8.113 -0.2492  0.1692 -0.1503
  544loPI   C5A 8699   8.855   2.940   7.695  0.1851  0.2715 -0.0613
  544loPI   C6A 8700   8.746   2.840   7.188  0.2276  0.1873  0.2020
  544loPI   C1B 8701   8.774   2.541   9.267  0.3076  0.3108 -0.1000
  544loPI   C2B 8702   8.865   2.633   8.876  0.4033  0.1144 -0.0270
  544loPI   C3B 8703   8.828   2.589   8.434 -0.0477  0.1829  0.0708
  544loPI   C4B 8704   8.657   2.651   8.040  0.4130 -0.1126  0.1291
  545loPI    C1 8705  13.071   2.213  10.938  0.1419 -0.1502 -0.0789
  545loPI    C2 8706  13.334   2.358  11.202  0.0793  0.1063 -0.1540
  545loPI    C3 8707  12.943   2.365  11.285  0.0762 -0.0355 -0.1527
  545loPI   PO4 8708  13.099   2.316  10.754 -0.1728 -0.1163 -0.4046
  545loPI   GL1 8709  13.275   2.127  10.336 -0.2483 -0.2276 -0.0625
  545loPI   GL2 8710  13.393   1.903  10.272 -0.2080 -0.1034  0.1557
  545loPI   C1A 8711  13.325   2.271   9.890 -0.0420 -0.2450 -0.0803
  545loPI   C2A 8712  13.528   2.117   9.505 -0.0759 -0.0281  0.1331
  545loPI   C3A 8713  13.557   2.109   8.980  0.2337  0.0358 -0.2487
  545loPI   C4A 8714  13.537   2.227   8.492  0.0642 -0.1892  0.0756
  545loPI   C5A 8715  13.499   2.275   8.027 -0.1885 -0.2109 -0.0595
  545loPI   C6A 8716  13.147   2.243   7.782 -0.1346  0.0153 -0.2047
  545loPI   C1B 8717  13.345   1.770   9.796  0.2107  0.0693 -0.1755
  545loPI   C2B 8718  13.270   1.760   9.353 -0.0774 -0.1517  0.2762
  545loPI   C3B 8719  13.135   1.800   8.835 -0.1588  0.0633 -0.2019
  545loPI   C4B 8720  13.162   1.850   8.426  0.2170  0.1933  0.2125
  546loPI    C1 8721   6.684   6.901  10.157 -0.2211 -0.0141  0.0766
  546loPI    C2 8722   6.618   7.235  10.368  0.0996  0.0697  0.0494
  546loPI    C3 8723   6.790   7.257  10.007  0.0041 -0.1153 -0.0089
  546loPI   PO4 8724   6.450   6.752  10.197 -0.1591 -0.1961  0.2619
  546loPI   GL1 8725   6.123   6.629   9.864 -0.0737  0.0999  0.1287
  546loPI   GL2 8726   6.071   6.307   9.616 -0.1260 -0.0521 -0.2840
  546loPI   C1A 8727   5.921   6.799   9.503  0.0889  0.1501 -0.2859
  546loPI   C2A 8728   5.989   6.812   9.100  0.0780  0.0683 -0.0759
  546loPI   C3A 8729   6.083   6.723   8.697 -0.1091  0.0128  0.2602
  546loPI   C4A 8730   6.108   6.764   8.192  0.1004 -0.1035 -0.2242
  546loPI   C5A 8731   6.057   7.125   7.814  0.0620 -0.0875 -0.2214
  546loPI   C6A 8732   6.358   7.391   7.672 -0.3026 -0.0305 -0.3131
  546loPI   C1B 8733   6.014   6.361   9.215  0.1991  0.3631 -0.1530
  546loPI   C2B 8734   6.106   6.219   8.809  0.2286  0.0889  0.0518
  546loPI   C3B 8735   6.138   6.161   8.279  0.1521 -0.0244 -0.0522
  546loPI   C4B 8736   5.977   6.411   7.881 -0.0066 -0.2758 -0.1005
  547loPI    C1 8737  17.698   5.184  10.146 -0.0689 -0.1965  0.2974
  547loPI    C2 8738  17.424   5.284  10.420 -0.2831  0.1142 -0.0214
  547loPI    C3 8739  17.327   5.281  10.032  0.0327 -0.2627 -0.1034
  547loPI   PO4 8740  17.896   5.272  10.113  0.0186 -0.3220 -0.1492
  547loPI   GL1 8741  17.981   5.494   9.745  0.0568 -0.1627 -0.0634
  547loPI   GL2 8742  17.878   5.777   9.754 -0.2570 -0.0167 -0.1877
  547loPI   C1A 8743  17.554   5.427   9.560 -0.0609 -0.1138  0.1312
  547loPI   C2A 8744  17.530   5.477   9.147  0.2520 -0.0369  0.0489
  547loPI   C3A 8745  17.443   5.336   8.763 -0.0883  0.2769  0.0255
  547loPI   C4A 8746  17.596   5.134   8.484  0.1045  0.2039  0.1527
  547loPI   C5A 8747  17.715   5.044   8.028  0.0289  0.1533  0.1723
  547loPI   C6A 8748  17.660   4.600   7.827 -0.1768 -0.1090  0.2407
  547loPI   C1B 8749  17.781   5.898   9.381 -0.2048  0.0331  0.1238
  547loPI   C2B 8750  17.796   6.070   8.934  0.4712  0.0397 -0.0148
  547loPI   C3B 8751  17.497   6.012   8.557 -0.0901 -0.3253  0.3068
  547loPI   C4B 8752  17.343   6.019   8.145 -0.1763  0.3207 -0.2089
  548loPI    C1 8753   1.277  10.040  10.520  0.1967 -0.0870  0.1160
  548loPI    C2 8754   1.466   9.697  10.439 -0.0854 -0.1602 -0.2622
  548loPI    C3 8755   1.281   9.746  10.791  0.3133 -0.2282 -0.0372
  548loPI   PO4 8756   1.297  10.225  10.249 -0.2606 -0.0245 -0.0355
  548loPI   GL1 8757   1.156  10.303   9.868 -0.0777 -0.0409 -0.3274
  548loPI   GL2 8758   0.877  10.512   9.815  0.3084  0.0445  0.2913
  548loPI   C1A 8759   1.249  10.304   9.424  0.0576  0.4166  0.2650
  548loPI   C2A 8760   1.084  10.437   8.996 -0.2042  0.0425  0.1872
  548loPI   C3A 8761   1.172  10.491   8.545  0.0039  0.1377  0.1044
  548loPI   C4A 8762   0.969  10.445   8.074 -0.4286  0.1487  0.3641
  548loPI   C5A 8763   0.536  10.388   7.845 -0.1094  0.2666 -0.0207
  548loPI   C6A 8764   0.204  10.169   7.687 -0.2591 -0.5339 -0.1125
  548loPI   C1B 8765   0.751  10.675   9.502 -0.0209  0.2808 -0.2048
  548loPI   C2B 8766   0.686  10.766   9.159  0.0569 -0.1129  0.0132
  548loPI   C3B 8767   0.898  10.802   8.798  0.0279  0.3938 -0.1493
  548loPI   C4B 8768   0.744  10.806   8.372 -0.2988  0.1380  0.1566
  549loPI    C1 8769   8.564   5.262  10.271 -0.0447  0.0883  0.0521
  549loPI    C2 8770   8.436   5.153  10.634 -0.1556  0.2628  0.0663
  549loPI    C3 8771   8.688   5.461  10.595 -0.0390  0.1601  0.0060
  549loPI   PO4 8772   8.589   4.968  10.156 -0.2890 -0.1785  0.0856
  549loPI   GL1 8773   8.844   4.808   9.889  0.1021 -0.1614  0.1324
  549loPI   GL2 8774   9.002   5.137   9.876  0.2273  0.0559 -0.1947
  549loPI   C1A 8775   9.110   4.636   9.586 -0.1294 -0.2842 -0.1118
  549loPI   C2A 8776   9.106   4.773   9.087  0.1608  0.1151  0.3126
  549loPI   C3A 8777   9.136   4.819   8.619  0.0876  0.0258  0.0066
  549loPI   C4A 8778   9.303   4.770   8.153  0.0316  0.0873  0.0833
  549loPI   C5A 8779   9.063   5.020   7.890 -0.1637 -0.0507  0.0135
  549loPI   C6A 8780   8.594   5.245   7.984 -0.0407 -0.1558  0.2700
  549loPI   C1B 8781   8.812   5.139   9.523 -0.0208  0.1959  0.2962
  549loPI   C2B 8782   8.906   5.330   9.242  0.1647 -0.1807  0.0614
  549loPI   C3B 8783   9.045   5.299   8.793 -0.2610 -0.0142 -0.2847
  549loPI   C4B 8784   9.087   5.252   8.377 -0.2469  0.0239 -0.2814
  550loPI    C1 8785  16.148   4.826  10.666 -0.0469 -0.2093  0.0841
  550loPI    C2 8786  16.361   4.516  10.800  0.1056  0.0262  0.4015
  550loPI    C3 8787  15.998   4.589  10.951 -0.0408 -0.1459  0.1405
  550loPI   PO4 8788  16.074   4.841  10.463 -0.3559  0.1241  0.1919
  550loPI   GL1 8789  15.769   4.782   9.992 -0.1755  0.1046 -0.0261
  550loPI   GL2 8790  16.065   4.610  10.008  0.0396  0.0267 -0.1698
  550loPI   C1A 8791  15.521   4.858   9.615  0.0234  0.0307 -0.0086
  550loPI   C2A 8792  15.445   4.815   9.181 -0.0213  0.2073  0.1069
  550loPI   C3A 8793  15.367   4.627   8.787  0.2730  0.1771  0.1251
  550loPI   C4A 8794  15.310   4.454   8.366 -0.0817  0.1814 -0.0500
  550loPI   C5A 8795  15.229   4.164   7.930 -0.0036  0.1950  0.2765
  550loPI   C6A 8796  14.957   3.808   7.686 -0.0086  0.0280  0.1512
  550loPI   C1B 8797  16.053   4.733   9.473  0.3764  0.1342  0.2468
  550loPI   C2B 8798  16.131   4.640   9.122 -0.2141 -0.0420  0.0659
  550loPI   C3B 8799  15.886   4.595   8.712  0.0753 -0.1862  0.2444
  550loPI   C4B 8800  15.775   4.457   8.308  0.0511 -0.2765  0.4070
  551loPI    C1 8801   2.238   5.186  10.322  0.0251 -0.3028  0.0398
  551loPI    C2 8802   2.006   5.289  10.631  0.1394 -0.0338  0.0386
  551loPI    C3 8803   2.335   5.069  10.692 -0.0073 -0.2483  0.0656
  551loPI   PO4 8804   2.251   5.499  10.105 -0.1313  0.1443 -0.1244
  551loPI   GL1 8805   2.069   5.742   9.777 -0.2545 -0.0727 -0.0388
  551loPI   GL2 8806   2.374   5.973   9.684  0.1210 -0.0646  0.2745
  551loPI   C1A 8807   2.099   5.622   9.341 -0.0949 -0.0621 -0.3390
  551loPI   C2A 8808   2.171   5.642   8.873  0.2111  0.1139 -0.0696
  551loPI   C3A 8809   2.059   5.777   8.434 -0.0983 -0.1514 -0.1468
  551loPI   C4A 8810   1.873   5.844   7.992  0.2707  0.0672 -0.0358
  551loPI   C5A 8811   1.574   6.131   7.817 -0.1834 -0.0050 -0.2766
  551loPI   C6A 8812   1.328   6.578   7.668 -0.1976  0.1643  0.3263
  551loPI   C1B 8813   2.611   6.269   9.575 -0.0097 -0.1028  0.2634
  551loPI   C2B 8814   2.780   6.380   9.197 -0.0022 -0.0075  0.2758
  551loPI   C3B 8815   2.973   6.330   8.796  0.2577  0.1275 -0.0478
  551loPI   C4B 8816   3.072   5.975   8.583  0.2945  0.0463  0.2279
  552loPI    C1 8817  14.687   0.218  10.614  0.0760 -0.1344 -0.0006
  552loPI    C2 8818  14.487   0.464  10.858 -0.2918 -0.1402 -0.2866
  552loPI    C3 8819  14.690   0.154  11.009 -0.0904  0.1472  0.0493
  552loPI   PO4 8820  14.607   0.152  10.418  0.1646  0.1685  0.3684
  552loPI   GL1 8821  14.449   0.166  10.067  0.0608 -0.1148  0.0855
  552loPI   GL2 8822  14.361   0.449  10.062  0.4111  0.4500 -0.2896
  552loPI   C1A 8823  14.506  -0.094   9.652 -0.2646  0.0989 -0.0702
  552loPI   C2A 8824  14.609  -0.190   9.200  0.1399  0.0515 -0.0494
  552loPI   C3A 8825  14.597  -0.024   8.761 -0.1458  0.0363 -0.1511
  552loPI   C4A 8826  14.480   0.104   8.319 -0.0409  0.1877 -0.3500
  552loPI   C5A 8827  14.462   0.307   7.884 -0.1151 -0.0813 -0.0207
  552loPI   C6A 8828  14.139   0.374   7.536  0.1133 -0.0859 -0.2553
  552loPI   C1B 8829  14.366   0.443   9.597  0.0062 -0.1153 -0.2610
  552loPI   C2B 8830  14.417   0.430   9.249 -0.0876 -0.4995 -0.1612
  552loPI   C3B 8831  14.422   0.482   8.802  0.0618  0.1031 -0.2832
  552loPI   C4B 8832  14.418   0.601   8.378 -0.2634  0.1298  0.0640
  553loPI    C1 8833  14.366  10.982  10.425 -0.0472  0.3006 -0.0565
  553loPI    C2 8834  14.417  10.859  10.803 -0.1255 -0.0173 -0.1466
  553loPI    C3 8835  14.115  11.104  10.712 -0.3018 -0.1980 -0.0558
  553loPI   PO4 8836  14.565  11.142  10.363 -0.0948  0.1492 -0.1284
  553loPI   GL1 8837  14.462  11.440   9.978  0.2336  0.1016 -0.1392
  553loPI   GL2 8838  14.323  11.105   9.950  0.3311 -0.0958 -0.0871
  553loPI   C1A 8839  14.763  11.342   9.669  0.1121  0.2299  0.1698
  553loPI   C2A 8840  14.854  11.186   9.333  0.2447 -0.1215 -0.1125
  553loPI   C3A 8841  15.015  11.054   8.974 -0.0893  0.2472 -0.1054
  553loPI   C4A 8842  15.060  11.135   8.648 -0.1394  0.0265 -0.1055
  553loPI   C5A 8843  15.041  11.093   8.276  0.1420 -0.0185 -0.1179
  553loPI   C6A 8844  14.918  10.961   7.921  0.2592  0.0018 -0.1819
  553loPI   C1B 8845  14.462  10.863   9.572  0.0561 -0.2969 -0.0050
  553loPI   C2B 8846  14.472  10.893   9.028 -0.1216 -0.1354  0.1652
  553loPI   C3B 8847  14.575  10.959   8.552  0.1709  0.2601 -0.2428
  553loPI   C4B 8848  14.399  11.102   8.138 -0.0179  0.1460 -0.0157
  554loPI    C1 8849  10.872  13.078   9.969 -0.1239  0.0019  0.1059
  554loPI    C2 8850  11.086  13.342  10.181  0.0167 -0.2179  0.2419
  554loPI    C3 8851  10.832  13.094  10.367 -0.1783 -0.1234  0.1061
  554loPI   PO4 8852  11.085  12.932   9.829  0.1019  0.1034  0.1986
  554loPI   GL1 8853  11.072  12.510   9.592  0.4172 -0.1372  0.1051
  554loPI   GL2 8854  10.893  12.226   9.674  0.2601 -0.2763 -0.1571
  554loPI   C1A 8855  10.981  12.659   9.198 -0.1417  0.2272 -0.2127
  554loPI   C2A 8856  10.754  12.641   8.869  0.0791  0.0700  0.2104
  554loPI   C3A 8857  10.902  12.773   8.451  0.0783 -0.2623  0.2843
  554loPI   C4A 8858  10.876  12.592   8.140 -0.0413  0.1258 -0.0609
  554loPI   C5A 8859  11.132  12.488   7.737 -0.2993 -0.0475 -0.1165
  554loPI   C6A 8860  11.371  12.284   7.433 -0.0634 -0.0475  0.1543
  554loPI   C1B 8861  10.723  12.281   9.305  0.1127 -0.1703  0.0472
  554loPI   C2B 8862  10.436  12.216   8.927  0.1591  0.1579 -0.1286
  554loPI   C3B 8863  10.493  12.361   8.531 -0.2241 -0.1621 -0.2901
  554loPI   C4B 8864  10.398  12.508   8.125 -0.1754  0.0322 -0.4939
  555loPI    C1 8865  17.803   7.639   9.999  0.0386  0.0353  0.0583
  555loPI    C2 8866  17.409   7.665  10.058  0.0017 -0.1535 -0.0961
  555loPI    C3 8867  17.662   7.757  10.354 -0.1573 -0.0260  0.0018
  555loPI   PO4 8868  17.905   7.717   9.797 -0.1127 -0.0201  0.0376
  555loPI   GL1 8869  18.343   7.768   9.539  0.0537  0.1529  0.0853
  555loPI   GL2 8870  18.078   7.978   9.418 -0.2040  0.1469  0.0888
  555loPI   C1A 8871  18.510   7.443   9.295  0.1083  0.0013 -0.3944
  555loPI   C2A 8872  18.696   7.380   8.894  0.0719 -0.1234  0.3912
  555loPI   C3A 8873  18.821   7.214   8.461  0.2558 -0.2350  0.1647
  555loPI   C4A 8874  18.870   7.118   7.968  0.0943 -0.0232 -0.1620
  555loPI   C5A 8875  18.822   7.179   7.452 -0.0900 -0.2142 -0.5285
  555loPI   C6A 8876  18.492   7.292   7.190  0.0005  0.0215 -0.5263
  555loPI   C1B 8877  18.282   7.836   9.075  0.1423 -0.1295  0.0282
  555loPI   C2B 8878  18.409   7.701   8.651 -0.2159  0.0638 -0.0025
  555loPI   C3B 8879  18.622   7.685   8.214  0.0140  0.4189 -0.1888
  555loPI   C4B 8880  18.590   7.591   7.677  0.2330 -0.0563  0.2543
  556loPI    C1 8881   0.498   0.212  10.105 -0.0942  0.1708 -0.1826
  556loPI    C2 8882   0.551  -0.076  10.377 -0.1053  0.0773 -0.2790
  556loPI    C3 8883   0.682   0.295  10.450  0.0558  0.0100 -0.2230
  556loPI   PO4 8884   0.618   0.043   9.903 -0.2317  0.1460  0.2181
  556loPI   GL1 8885   0.687  -0.032   9.493 -0.1240  0.0976  0.2017
  556loPI   GL2 8886   0.339   0.119   9.437 -0.0525  0.2911  0.1657
  556loPI   C1A 8887   0.847  -0.195   9.130  0.1100  0.5815 -0.1622
  556loPI   C2A 8888   1.148  -0.178   8.737 -0.0239  0.1288  0.1247
  556loPI   C3A 8889   1.417  -0.095   8.426  0.1092  0.2114  0.1620
  556loPI   C4A 8890   1.573  -0.029   8.016 -0.2414  0.1929 -0.2772
  556loPI   C5A 8891   1.728  -0.120   7.682 -0.0525 -0.0796  0.3408
  556loPI   C6A 8892   2.114  -0.273   7.465  0.1159  0.2144  0.0799
  556loPI   C1B 8893   0.444   0.145   9.025  0.1872 -0.1804 -0.1679
  556loPI   C2B 8894   0.538  -0.042   8.616  0.2825 -0.3859 -0.1388
  556loPI   C3B 8895   0.751  -0.061   8.325  0.0766 -0.1268  0.0828
  556loPI   C4B 8896   1.045  -0.008   8.078  0.0052  0.1047  0.3988
  557loPI    C1 8897   5.777   9.735  10.254 -0.0756  0.0631 -0.1904
  557loPI    C2 8898   6.143   9.894  10.223 -0.1286  0.1747 -0.2467
  557loPI    C3 8899   6.031   9.718  10.564 -0.0889  0.3084 -0.1638
  557loPI   PO4 8900   5.715   9.679   9.961 -0.1391  0.1705 -0.3490
  557loPI   GL1 8901   5.491   9.514   9.508  0.1726 -0.0850  0.2404
  557loPI   GL2 8902   5.420   9.241   9.545  0.0400 -0.1130 -0.0434
  557loPI   C1A 8903   5.168   9.510   9.116 -0.2725  0.2910  0.0504
  557loPI   C2A 8904   4.980   9.493   8.695  0.1194  0.1748  0.1538
  557loPI   C3A 8905   5.179   9.447   8.282 -0.1080  0.0915  0.2409
  557loPI   C4A 8906   5.381   9.440   7.955 -0.1777  0.0345  0.1270
  557loPI   C5A 8907   5.579   9.560   7.577  0.0740  0.3223  0.1719
  557loPI   C6A 8908   5.816   9.858   7.540 -0.0777  0.1594  0.1191
  557loPI   C1B 8909   5.372   9.057   9.120 -0.0450  0.2192  0.1515
  557loPI   C2B 8910   5.546   9.101   8.685  0.0347 -0.0546  0.1221
  557loPI   C3B 8911   5.584   9.087   8.250  0.3000  0.1009 -0.2475
  557loPI   C4B 8912   5.622   9.019   7.809 -0.2663  0.3439 -0.0077
  558loPI    C1 8913   6.394   9.130   9.965  0.0677  0.1048 -0.0773
  558loPI    C2 8914   6.245   9.329  10.278  0.1174  0.0289 -0.0052
  558loPI    C3 8915   6.273   9.509   9.922  0.1627  0.1513  0.0594
  558loPI   PO4 8916   6.188   8.919   9.856  0.2806 -0.1395 -0.2452
  558loPI   GL1 8917   6.111   8.633   9.506 -0.1100  0.1621 -0.0938
  558loPI   GL2 8918   6.353   8.445   9.532 -0.2413 -0.1017 -0.0998
  558loPI   C1A 8919   5.975   8.866   9.204  0.1871  0.1777 -0.1382
  558loPI   C2A 8920   5.961   9.181   9.015  0.0265  0.4347 -0.0073
  558loPI   C3A 8921   6.034   9.215   8.538  0.2054 -0.0512 -0.0161
  558loPI   C4A 8922   6.110   9.259   8.048  0.2618  0.0975  0.2009
  558loPI   C5A 8923   6.518   9.402   7.728  0.0307  0.3992 -0.0235
  558loPI   C6A 8924   6.713   9.482   7.256  0.1580 -0.0419  0.1164
  558loPI   C1B 8925   6.338   8.473   9.006 -0.3295 -0.2940  0.1532
  558loPI   C2B 8926   6.379   8.417   8.500 -0.2231 -0.1945 -0.0759
  558loPI   C3B 8927   6.320   8.401   8.085 -0.0280 -0.1297  0.2472
  558loPI   C4B 8928   5.985   8.606   7.811  0.3114 -0.1555  0.1198
  559loPI    C1 8929   8.543  11.750   9.909 -0.1120 -0.0002  0.0973
  559loPI    C2 8930   8.638  12.117   9.783 -0.1863 -0.0131  0.0027
  559loPI    C3 8931   8.470  12.066  10.142  0.2297  0.0028  0.2054
  559loPI   PO4 8932   8.703  11.581   9.895  0.0613 -0.1971 -0.1091
  559loPI   GL1 8933   8.983  11.588   9.506  0.0754  0.1394  0.1406
  559loPI   GL2 8934   8.734  11.780   9.429  0.2207 -0.1109 -0.4006
  559loPI   C1A 8935   9.158  11.397   9.154  0.0209 -0.2321  0.1730
  559loPI   C2A 8936   9.435  11.389   8.856  0.0219  0.1966 -0.2138
  559loPI   C3A 8937   9.557  11.440   8.462 -0.1018  0.0750  0.0624
  559loPI   C4A 8938   9.591  11.531   7.964 -0.2766  0.0178 -0.0374
  559loPI   C5A 8939   9.531  11.385   7.526  0.0970 -0.1485 -0.1553
  559loPI   C6A 8940   9.522  11.565   7.084 -0.3674  0.0318 -0.1270
  559loPI   C1B 8941   8.620  11.727   9.045  0.0669  0.0573  0.0118
  559loPI   C2B 8942   8.580  11.849   8.559 -0.2904  0.4137  0.1555
  559loPI   C3B 8943   8.543  11.932   8.168 -0.0757  0.1849 -0.0560
  559loPI   C4B 8944   8.641  11.824   7.739  0.2645 -0.0544  0.1785
  560loPI    C1 8945  15.642  14.570  10.554  0.0867  0.0427  0.0746
  560loPI    C2 8946  15.611  14.195  10.691 -0.3096  0.1377  0.2602
  560loPI    C3 8947  15.368  14.480  10.831 -0.0473  0.4560  0.0829
  560loPI   PO4 8948  15.646  14.532  10.306 -0.0844 -0.3769 -0.0356
  560loPI   GL1 8949  15.616  14.263   9.881  0.0081 -0.2709  0.0786
  560loPI   GL2 8950  15.606  13.951   9.949 -0.0004  0.2874  0.0861
  560loPI   C1A 8951  15.914  14.360   9.617  0.1681  0.0298 -0.5876
  560loPI   C2A 8952  16.176  14.279   9.210 -0.2318 -0.1783 -0.2036
  560loPI   C3A 8953  16.346  14.316   8.863  0.1086 -0.0767  0.1875
  560loPI   C4A 8954  16.386  14.412   8.408 -0.0630 -0.1453 -0.1156
  560loPI   C5A 8955  16.487  14.795   8.217  0.0813 -0.4058  0.0529
  560loPI   C6A 8956  16.940  15.007   8.077 -0.0800 -0.3165  0.0339
  560loPI   C1B 8957  15.629  13.612   9.677 -0.1090  0.0055 -0.1193
  560loPI   C2B 8958  15.875  13.369   9.560  0.0438 -0.2290  0.0050
  560loPI   C3B 8959  16.019  13.167   9.090 -0.1699  0.0391  0.0481
  560loPI   C4B 8960  16.337  12.989   8.795 -0.1545 -0.0973 -0.2059
  561loPI    C1 8961   6.833  16.599  10.308 -0.1935 -0.1760  0.1470
  561loPI    C2 8962   7.087  16.903  10.253  0.0492 -0.4419 -0.2493
  561loPI    C3 8963   6.987  16.792  10.623  0.1099 -0.0088 -0.0972
  561loPI   PO4 8964   6.776  16.548  10.009 -0.2562 -0.0230  0.0680
  561loPI   GL1 8965   6.680  16.566   9.559 -0.0344  0.0465 -0.0423
  561loPI   GL2 8966   6.989  16.285   9.653 -0.4128 -0.2359  0.0256
  561loPI   C1A 8967   6.463  16.450   9.272  0.0178  0.4219  0.2506
  561loPI   C2A 8968   6.427  16.398   8.942 -0.0665 -0.0647  0.0519
  561loPI   C3A 8969   6.445  16.428   8.554  0.0995  0.1387 -0.2103
  561loPI   C4A 8970   6.428  16.466   8.172 -0.0160 -0.0437 -0.1562
  561loPI   C5A 8971   6.338  16.496   7.780 -0.2391 -0.2139 -0.0149
  561loPI   C6A 8972   6.296  16.825   7.364  0.2292  0.1497 -0.0206
  561loPI   C1B 8973   6.974  16.290   9.166  0.1513 -0.1322  0.0450
  561loPI   C2B 8974   7.212  16.502   8.808 -0.1108  0.1947  0.0882
  561loPI   C3B 8975   7.386  16.850   9.010  0.0407 -0.0542  0.1236
  561loPI   C4B 8976   7.661  17.192   9.382 -0.0846 -0.3338 -0.3058
  562loPI    C1 8977  12.418  12.893  10.067 -0.1651  0.0331 -0.1021
  562loPI    C2 8978  12.536  13.118  10.376  0.3452 -0.1449 -0.1590
  562loPI    C3 8979  12.423  12.739  10.436 -0.3730  0.0658 -0.0841
  562loPI   PO4 8980  12.362  13.090   9.879 -0.2499 -0.3287  0.0512
  562loPI   GL1 8981  12.125  13.083   9.484  0.1550 -0.0426  0.3383
  562loPI   GL2 8982  12.163  13.367   9.319  0.0407 -0.1905  0.0957
  562loPI   C1A 8983  12.176  12.753   9.277  0.0263 -0.1870 -0.0428
  562loPI   C2A 8984  11.920  12.605   8.892  0.1694 -0.1732  0.2690
  562loPI   C3A 8985  11.789  12.394   8.565 -0.0401  0.3957  0.0220
  562loPI   C4A 8986  11.903  12.150   8.326  0.1569 -0.0138 -0.0043
  562loPI   C5A 8987  12.316  12.247   8.084 -0.4314  0.0632  0.0826
  562loPI   C6A 8988  12.729  12.298   7.815 -0.0728  0.1178  0.0548
  562loPI   C1B 8989  12.227  13.604   8.987  0.1325  0.1757  0.1654
  562loPI   C2B 8990  12.206  13.584   8.549  0.1238 -0.0113  0.0084
  562loPI   C3B 8991  12.303  13.314   8.137 -0.0163 -0.0873  0.2993
  562loPI   C4B 8992  12.013  13.044   7.914  0.2652 -0.2056 -0.0964
  563loPI    C1 8993  18.329  10.298  10.801  0.0826 -0.3689  0.0373
  563loPI    C2 8994  18.198   9.980  11.005  0.0039 -0.2611  0.1563
  563loPI    C3 8995  18.501  10.198  11.148 -0.0212 -0.2124  0.1351
  563loPI   PO4 8996  18.422  10.284  10.542  0.0277 -0.1387  0.0575
  563loPI   GL1 8997  18.416  10.457  10.136 -0.1183 -0.1122 -0.0172
  563loPI   GL2 8998  18.683  10.343   9.947 -0.2657 -0.0441 -0.3511
  563loPI   C1A 8999  18.222  10.296   9.692 -0.4151 -0.0081 -0.0358
  563loPI   C2A 9000  18.196  10.236   9.234  0.5491  0.0139  0.1123
  563loPI   C3A 9001  18.142  10.217   8.873  0.0395 -0.0713  0.1476
  563loPI   C4A 9002  18.208  10.207   8.402 -0.2234  0.1168  0.0496
  563loPI   C5A 9003  18.508   9.936   8.239 -0.1133  0.0077  0.1795
  563loPI   C6A 9004  18.938   9.715   8.275  0.2644 -0.1994 -0.1265
  563loPI   C1B 9005  18.674  10.468   9.455 -0.0648  0.0252 -0.0450
  563loPI   C2B 9006  18.663  10.383   8.968  0.1458 -0.1933 -0.1745
  563loPI   C3B 9007  18.768  10.425   8.532  0.1021  0.1025 -0.1054
  563loPI   C4B 9008  18.966  10.190   8.212  0.0022  0.2927 -0.0619
  564loPI    C1 9009   7.269   0.052  10.253 -0.3422  0.0782 -0.2018
  564loPI    C2 9010   7.351  -0.199  10.554  0.1790  0.2044 -0.2300
  564loPI    C3 9011   7.004  -0.001  10.549  0.0779  0.0477  0.1794
  564loPI   PO4 9012   7.314  -0.104   9.956  0.1809 -0.0063 -0.1380
  564loPI   GL1 9013   7.250  -0.149   9.506 -0.2401  0.0895 -0.1022
  564loPI   GL2 9014   7.107   0.134   9.461 -0.1218 -0.1509  0.2278
  564loPI   C1A 9015   7.033  -0.230   9.124  0.1850  0.1135 -0.0154
  564loPI   C2A 9016   6.875  -0.146   8.713  0.0542 -0.1474 -0.0066
  564loPI   C3A 9017   7.084   0.017   8.360  0.2962 -0.0534 -0.0498
  564loPI   C4A 9018   6.901   0.285   7.956 -0.0276 -0.0645 -0.1467
  564loPI   C5A 9019   6.755   0.551   7.740  0.1643 -0.2406  0.0218
  564loPI   C6A 9020   6.840   0.979   7.514  0.0501 -0.3515  0.1948
  564loPI   C1B 9021   6.860   0.248   9.085 -0.0099 -0.1559 -0.0650
  564loPI   C2B 9022   6.739   0.365   8.597  0.0785  0.1050  0.3473
  564loPI   C3B 9023   6.506   0.567   8.204 -0.1443 -0.0209 -0.1652
  564loPI   C4B 9024   6.189   0.438   7.788 -0.0242  0.1209 -0.1390
  565loPI    C1 9025  16.017  18.475  10.075  0.1044  0.1094 -0.0302
  565loPI    C2 9026  16.381  18.340   9.979  0.0587 -0.1918  0.2073
  565loPI    C3 9027  16.320  18.515  10.334 -0.0078 -0.0536  0.1283
  565loPI   PO4 9028  15.892  18.246   9.950  0.1270  0.1087 -0.1903
  565loPI   GL1 9029  15.923  18.029   9.438  0.1521 -0.0411 -0.4284
  565loPI   GL2 9030  16.169  18.243   9.551  0.0850  0.0030  0.0632
  565loPI   C1A 9031  15.701  17.943   9.002 -0.3939 -0.3349  0.4320
  565loPI   C2A 9032  15.643  17.982   8.586  0.0482 -0.1623  0.0147
  565loPI   C3A 9033  15.689  17.670   8.261  0.1190  0.0312  0.0814
  565loPI   C4A 9034  15.656  17.330   8.069  0.1543  0.1635  0.2640
  565loPI   C5A 9035  15.274  17.160   7.818  0.0198  0.0048  0.2671
  565loPI   C6A 9036  15.017  17.542   7.598 -0.1216 -0.1250  0.0526
  565loPI   C1B 9037  16.074  18.406   9.169 -0.0668  0.1554 -0.1195
  565loPI   C2B 9038  16.111  18.370   8.695  0.3774  0.3233  0.1469
  565loPI   C3B 9039  15.940  18.328   8.372  0.4716  0.1841  0.3366
  565loPI   C4B 9040  15.700  18.127   8.081  0.0700  0.0642 -0.3431
  566loPI    C1 9041  16.580   1.358  10.620  0.1581  0.0202  0.1179
  566loPI    C2 9042  16.508   1.744  10.695 -0.2565 -0.0254 -0.0188
  566loPI    C3 9043  16.485   1.476  10.990  0.0497  0.0523  0.0800
  566loPI   PO4 9044  16.630   1.378  10.329 -0.0311  0.0580  0.1787
  566loPI   GL1 9045  16.380   1.356   9.917 -0.0293  0.1981 -0.1176
  566loPI   GL2 9046  16.739   1.240   9.756 -0.0865 -0.2695 -0.1007
  566loPI   C1A 9047  16.485   1.708   9.583  0.0730 -0.2286  0.0716
  566loPI   C2A 9048  16.594   1.825   9.149 -0.0307 -0.2548  0.0080
  566loPI   C3A 9049  16.337   1.720   8.741 -0.2760 -0.1063  0.1872
  566loPI   C4A 9050  16.484   1.622   8.277  0.2427  0.0189  0.2517
  566loPI   C5A 9051  16.833   1.728   7.998  0.4133 -0.0118  0.3092
  566loPI   C6A 9052  17.029   2.157   7.912 -0.1317 -0.0502  0.0155
  566loPI   C1B 9053  16.510   1.227   9.358 -0.1283  0.0280  0.0763
  566loPI   C2B 9054  16.501   1.167   8.899 -0.0910 -0.0095 -0.2178
  566loPI   C3B 9055  16.677   1.146   8.529  0.1525 -0.2501 -0.3036
  566loPI   C4B 9056  16.692   1.169   8.114  0.3239  0.4160 -0.1215
  567loPI    C1 9057  11.293  14.362   9.982  0.1577 -0.2815 -0.3309
  567loPI    C2 9058  11.501  14.187  10.276  0.1229  0.0979 -0.0732
  567loPI    C3 9059  11.138  14.338  10.350  0.0043 -0.0293 -0.3769
  567loPI   PO4 9060  11.486  14.478   9.771  0.0634  0.0105  0.2302
  567loPI   GL1 9061  11.364  14.638   9.366 -0.1960 -0.1743 -0.4082
  567loPI   GL2 9062  11.217  14.320   9.403  0.1192 -0.0876  0.1005
  567loPI   C1A 9063  11.425  14.648   8.976  0.0542  0.3197 -0.3767
  567loPI   C2A 9064  11.175  14.560   8.504  0.0195 -0.2303  0.0883
  567loPI   C3A 9065  11.263  14.630   8.057  0.1544 -0.2767 -0.0703
  567loPI   C4A 9066  11.520  14.427   7.682  0.3255  0.2996  0.4273
  567loPI   C5A 9067  11.936  14.540   7.474 -0.0453 -0.0595 -0.3347
  567loPI   C6A 9068  12.258  14.917   7.468  0.2902  0.0519 -0.2921
  567loPI   C1B 9069  11.315  14.165   9.086  0.1264 -0.1372  0.1106
  567loPI   C2B 9070  11.364  14.121   8.641 -0.1489  0.1591 -0.0071
  567loPI   C3B 9071  11.459  14.057   8.319 -0.0873 -0.2367 -0.0600
  567loPI   C4B 9072  11.508  13.843   7.900  0.6340  0.1782  0.0187
  568loPI    C1 9073  14.764   2.178  10.423  0.1295 -0.1844 -0.1370
  568loPI    C2 9074  14.763   1.873  10.682  0.3300 -0.0836 -0.0147
  568loPI    C3 9075  14.451   2.124  10.667  0.3369 -0.0633  0.1614
  568loPI   PO4 9076  14.823   2.073  10.132 -0.1222 -0.2756 -0.0966
  568loPI   GL1 9077  14.810   2.350   9.824  0.1030  0.2627 -0.1435
  568loPI   GL2 9078  14.448   2.473   9.772 -0.1953 -0.1162 -0.0919
  568loPI   C1A 9079  14.960   2.230   9.432  0.1158  0.0710  0.0736
  568loPI   C2A 9080  14.843   2.285   9.033 -0.2596  0.0661 -0.2072
  568loPI   C3A 9081  14.849   2.240   8.582 -0.2576  0.0503  0.1035
  568loPI   C4A 9082  14.913   2.280   8.208  0.0588  0.1140 -0.1172
  568loPI   C5A 9083  15.266   2.365   7.847  0.0363  0.0991  0.1784
  568loPI   C6A 9084  15.295   2.466   7.324  0.1799  0.0241 -0.3332
  568loPI   C1B 9085  14.439   2.337   9.314 -0.1198  0.0478  0.3274
  568loPI   C2B 9086  14.399   2.420   8.826  0.1679  0.0559  0.2784
  568loPI   C3B 9087  14.381   2.353   8.320 -0.0720 -0.0216 -0.3098
  568loPI   C4B 9088  14.545   2.386   7.894 -0.0775  0.0228 -0.2645
  569loPI    C1 9089   6.828   9.559   9.964 -0.0431 -0.1608 -0.0956
  569loPI    C2 9090   6.952   9.473  10.334  0.2824 -0.2003 -0.2100
  569loPI    C3 9091   6.607   9.668  10.278  0.2908 -0.0851  0.1185
  569loPI   PO4 9092   6.852   9.305   9.790  0.0631  0.0159  0.2908
  569loPI   GL1 9093   6.486   9.274   9.478 -0.0080 -0.0145 -0.1468
  569loPI   GL2 9094   6.375   9.006   9.333 -0.0692 -0.1333  0.0391
  569loPI   C1A 9095   6.560   9.425   9.043  0.1278 -0.0688  0.0560
  569loPI   C2A 9096   6.723   9.503   8.622 -0.3606  0.0181  0.0418
  569loPI   C3A 9097   7.107   9.585   8.498  0.3173 -0.1849 -0.2043
  569loPI   C4A 9098   7.396   9.456   8.299  0.1572  0.0581  0.1031
  569loPI   C5A 9099   7.495   9.436   7.960 -0.0943  0.0464  0.1301
  569loPI   C6A 9100   7.834   9.363   7.624  0.0668 -0.2309 -0.0741
  569loPI   C1B 9101   6.432   8.943   8.899 -0.0781  0.0309 -0.1883
  569loPI   C2B 9102   6.510   8.939   8.435  0.0682 -0.0788  0.3664
  569loPI   C3B 9103   6.478   8.915   8.015 -0.2459 -0.2386 -0.3402
  569loPI   C4B 9104   6.613   8.943   7.564 -0.1559  0.2600 -0.3331
  570loPI    C1 9105   9.198   9.134  10.750  0.1559 -0.3479 -0.1316
  570loPI    C2 9106   9.137   9.327  11.095  0.2053 -0.1047 -0.2573
  570loPI    C3 9107   8.883   9.041  10.979  0.0602 -0.0295 -0.1291
  570loPI   PO4 9108   9.290   9.311  10.596  0.0407 -0.2952 -0.0880
  570loPI   GL1 9109   9.431   9.392  10.127  0.0859  0.3938  0.1599
  570loPI   GL2 9110   9.245   9.530   9.791  0.1179  0.0718  0.0036
  570loPI   C1A 9111   9.737   9.533   9.748  0.2182 -0.1439  0.2185
  570loPI   C2A 9112   9.907   9.595   9.315 -0.3307 -0.2544 -0.1633
  570loPI   C3A 9113   9.818   9.507   8.852  0.1214 -0.1190  0.0236
  570loPI   C4A 9114   9.937   9.716   8.440  0.0655  0.0177  0.5878
  570loPI   C5A 9115  10.402   9.903   8.322 -0.2425  0.0736  0.1572
  570loPI   C6A 9116  10.656   9.886   7.847 -0.2862  0.2788 -0.2256
  570loPI   C1B 9117   9.385   9.447   9.401  0.1114  0.1362  0.4541
  570loPI   C2B 9118   9.328   9.505   8.966 -0.2080 -0.1695 -0.3423
  570loPI   C3B 9119   8.953   9.557   8.674 -0.3761  0.0178 -0.0795
  570loPI   C4B 9120   8.760   9.708   8.359 -0.1150  0.0174  0.3421
  571loPI    C1 9121   2.359  17.912   9.784 -0.1077  0.3330  0.0408
  571loPI    C2 9122   2.601  18.211   9.894  0.2714  0.0419  0.0184
  571loPI    C3 9123   2.478  17.944  10.165 -0.0883  0.2265  0.0438
  571loPI   PO4 9124   2.433  17.789   9.609  0.0181  0.2660 -0.0546
  571loPI   GL1 9125   2.401  17.636   9.249  0.0082 -0.0389  0.0311
  571loPI   GL2 9126   2.012  17.698   9.195  0.0313  0.3990 -0.0362
  571loPI   C1A 9127   2.400  17.832   8.903 -0.0865 -0.3404  0.1543
  571loPI   C2A 9128   2.416  17.834   8.476  0.3100 -0.1576  0.1047
  571loPI   C3A 9129   2.421  17.887   7.968  0.0154 -0.4774  0.2953
  571loPI   C4A 9130   2.565  17.911   7.562 -0.0741 -0.3221 -0.1128
  571loPI   C5A 9131   2.863  17.981   7.251 -0.0057 -0.1079  0.2010
  571loPI   C6A 9132   3.181  18.206   7.013 -0.1137 -0.2363 -0.1262
  571loPI   C1B 9133   1.722  17.530   8.960 -0.1541 -0.1562  0.0718
  571loPI   C2B 9134   1.540  17.527   8.474 -0.1183  0.1521  0.0375
  571loPI   C3B 9135   1.467  17.293   8.069 -0.1628 -0.0563  0.1554
  571loPI   C4B 9136   1.375  16.996   7.765 -0.2283  0.0419 -0.1833
  572loPI    C1 9137   2.383   1.670  10.410 -0.1781  0.0752 -0.0495
  572loPI    C2 9138   2.574   1.411  10.648 -0.0928  0.1635 -0.0209
  572loPI    C3 9139   2.191   1.503  10.719 -0.2049 -0.1564 -0.1891
  572loPI   PO4 9140   2.341   1.661  10.075  0.1297  0.2347  0.1060
  572loPI   GL1 9141   2.091   1.427   9.640 -0.0526 -0.0250 -0.3254
  572loPI   GL2 9142   2.001   1.235   9.820  0.2896 -0.1877  0.0552
  572loPI   C1A 9143   2.075   1.475   9.225  0.1021 -0.1131 -0.0308
  572loPI   C2A 9144   2.067   1.466   8.831  0.0088  0.0117 -0.1984
  572loPI   C3A 9145   2.094   1.561   8.414  0.1287 -0.2198 -0.0670
  572loPI   C4A 9146   2.359   1.822   8.079  0.0667 -0.0690 -0.0871
  572loPI   C5A 9147   2.300   1.995   7.663 -0.2416 -0.0090  0.2935
  572loPI   C6A 9148   2.015   2.194   7.507 -0.1687 -0.0208  0.1025
  572loPI   C1B 9149   1.905   1.021   9.427 -0.0364  0.2755 -0.0098
  572loPI   C2B 9150   2.061   0.892   9.026  0.2018  0.0671 -0.0856
  572loPI   C3B 9151   2.194   0.980   8.642 -0.1254  0.2986 -0.0877
  572loPI   C4B 9152   2.140   1.110   8.266 -0.1237  0.0462 -0.1460
  573loPI    C1 9153   2.809   7.291  10.150  0.0773  0.0736 -0.0093
  573loPI    C2 9154   2.810   6.960  10.374 -0.0507 -0.0850 -0.2389
  573loPI    C3 9155   2.889   7.315  10.541 -0.0011 -0.2184  0.0265
  573loPI   PO4 9156   2.982   7.127   9.964 -0.1871  0.4595  0.1313
  573loPI   GL1 9157   3.211   7.107   9.624 -0.2662 -0.0210 -0.0778
  573loPI   GL2 9158   3.458   6.872   9.539  0.1332  0.1079  0.2186
  573loPI   C1A 9159   3.330   7.275   9.229 -0.0225 -0.0912  0.2653
  573loPI   C2A 9160   3.514   7.094   8.786 -0.0528  0.4976  0.1266
  573loPI   C3A 9161   3.809   6.874   8.576 -0.0439  0.2320 -0.2640
  573loPI   C4A 9162   3.980   6.706   8.242 -0.0249 -0.1075  0.3157
  573loPI   C5A 9163   4.161   6.398   8.046 -0.1516  0.0247 -0.3728
  573loPI   C6A 9164   4.452   5.993   7.938  0.1706  0.0937 -0.3198
  573loPI   C1B 9165   3.659   6.545   9.169  0.2692  0.0148  0.1419
  573loPI   C2B 9166   3.962   6.389   8.665  0.0564 -0.3447 -0.1978
  573loPI   C3B 9167   4.394   6.536   8.503 -0.0609  0.0482  0.3248
  573loPI   C4B 9168   4.648   6.906   8.272 -0.1281  0.5173 -0.0251
  574loPI    C1 9169  14.589   4.973  10.491  0.2322 -0.1179 -0.1344
  574loPI    C2 9170  14.665   5.080  10.869 -0.2710 -0.1876 -0.0066
  574loPI    C3 9171  14.586   4.698  10.781  0.0414 -0.2065 -0.2185
  574loPI   PO4 9172  14.603   5.237  10.358  0.1993 -0.0775  0.0383
  574loPI   GL1 9173  14.668   5.422  10.025  0.2598 -0.0942  0.1062
  574loPI   GL2 9174  14.812   5.678   9.789 -0.2112 -0.0591 -0.0851
  574loPI   C1A 9175  14.492   5.259   9.581 -0.0920 -0.1843 -0.0134
  574loPI   C2A 9176  14.285   5.337   9.204  0.1311  0.3790  0.0605
  574loPI   C3A 9177  14.134   5.210   8.796 -0.0566 -0.1175 -0.0136
  574loPI   C4A 9178  13.926   5.373   8.539  0.0271 -0.1669 -0.1398
  574loPI   C5A 9179  13.880   5.432   8.220  0.2640 -0.2267 -0.2035
  574loPI   C6A 9180  14.037   5.624   7.838  0.1286  0.0047  0.0912
  574loPI   C1B 9181  14.759   5.618   9.335  0.1395 -0.1417  0.3782
  574loPI   C2B 9182  14.643   5.420   8.896  0.2495 -0.0344  0.0912
  574loPI   C3B 9183  14.551   5.405   8.490 -0.1139 -0.1181 -0.2744
  574loPI   C4B 9184  14.428   5.223   8.147 -0.2270 -0.1266  0.1357
  575loPI    C1 9185  18.664  11.399  10.478 -0.2380  0.0412 -0.1113
  575loPI    C2 9186  18.597  11.610  10.811 -0.0458  0.1815 -0.1598
  575loPI    C3 9187  18.305  11.385  10.655 -0.2348  0.3631 -0.0735
  575loPI   PO4 9188  18.771  11.610  10.297  0.1400  0.2051  0.1096
  575loPI   GL1 9189  18.941  11.754   9.966 -0.1667  0.2076  0.1056
  575loPI   GL2 9190  19.123  11.882   9.814 -0.4533 -0.1268  0.0009
  575loPI   C1A 9191  18.765  11.500   9.540 -0.5591  0.0842  0.0543
  575loPI   C2A 9192  18.739  11.445   9.061 -0.0441  0.0368  0.0211
  575loPI   C3A 9193  18.830  11.389   8.641 -0.0256  0.3127 -0.0508
  575loPI   C4A 9194  18.825  11.413   8.248  0.1627 -0.2128 -0.0239
  575loPI   C5A 9195  18.907  11.193   7.830 -0.1168 -0.0242  0.2847
  575loPI   C6A 9196  18.713  11.176   7.383  0.0779 -0.0135 -0.0143
  575loPI   C1B 9197  19.216  11.989   9.432  0.1856  0.1443 -0.0538
  575loPI   C2B 9198  19.377  12.157   9.031  0.0207 -0.3737  0.1074
  575loPI   C3B 9199  19.293  12.087   8.666 -0.1659 -0.3519 -0.1672
  575loPI   C4B 9200  19.362  12.115   8.249  0.1611  0.0814 -0.1004
  576loPI    C1 9201   2.127   8.414  10.475  0.0288  0.0294  0.0509
  576loPI    C2 9202   2.017   8.121  10.724 -0.2162  0.1789  0.1227
  576loPI    C3 9203   2.330   8.353  10.813  0.0301 -0.1096  0.0256
  576loPI   PO4 9204   2.070   8.329  10.260  0.0565  0.2689  0.2877
  576loPI   GL1 9205   2.040   8.543   9.980 -0.0110 -0.3445  0.2320
  576loPI   GL2 9206   2.221   8.702   9.860  0.0448 -0.0793  0.2296
  576loPI   C1A 9207   1.796   8.532   9.622  0.0677  0.0071 -0.0549
  576loPI   C2A 9208   1.919   8.560   9.121  0.1277 -0.2814  0.0554
  576loPI   C3A 9209   1.891   8.725   8.711  0.0265  0.5190  0.0925
  576loPI   C4A 9210   1.769   8.741   8.209  0.2808 -0.2289  0.1460
  576loPI   C5A 9211   1.658   8.870   7.875  0.1359 -0.1456 -0.2511
  576loPI   C6A 9212   1.730   9.190   7.573 -0.1045 -0.0079  0.1356
  576loPI   C1B 9213   2.303   8.804   9.465 -0.1521  0.3922  0.1279
  576loPI   C2B 9214   2.388   8.869   9.024 -0.2027  0.1268  0.1996
  576loPI   C3B 9215   2.314   8.924   8.590 -0.0712  0.1640 -0.0032
  576loPI   C4B 9216   2.195   8.949   8.236 -0.3773  0.0374  0.1175
  577loPI    C1 9217   1.265   8.738  10.384 -0.0433 -0.0926  0.0263
  577loPI    C2 9218   0.927   8.806  10.586 -0.0785 -0.0890 -0.0337
  577loPI    C3 9219   1.185   8.530  10.716 -0.0721 -0.0440  0.0498
  577loPI   PO4 9220   1.206   8.747  10.179  0.0036 -0.4294  0.0853
  577loPI   GL1 9221   1.599   8.961   9.933  0.2497 -0.3015 -0.2639
  577loPI   GL2 9222   1.692   9.384  10.061 -0.0511  0.4188  0.1165
  577loPI   C1A 9223   1.871   9.076   9.586 -0.2887 -0.3013  0.2023
  577loPI   C2A 9224   1.952   9.151   9.126  0.0598  0.2728  0.2538
  577loPI   C3A 9225   1.872   9.228   8.543 -0.0903  0.0773  0.2470
  577loPI   C4A 9226   1.854   9.252   8.124 -0.0223  0.0594  0.0327
  577loPI   C5A 9227   2.112   9.281   7.863  0.0852 -0.3155 -0.1803
  577loPI   C6A 9228   2.357   9.573   7.674  0.0385 -0.0882  0.1114
  577loPI   C1B 9229   1.511   9.469   9.635 -0.1841 -0.0188  0.0611
  577loPI   C2B 9230   1.517   9.472   9.184  0.2889 -0.1860  0.1220
  577loPI   C3B 9231   1.529   9.564   8.799  0.0823 -0.0611 -0.2618
  577loPI   C4B 9232   1.458   9.550   8.393  0.0557  0.0305  0.0811
  578loPI    C1 9233  14.421   3.675   9.982  0.0910  0.0507 -0.1621
  578loPI    C2 9234  14.522   3.746  10.362  0.1408  0.1025 -0.1850
  578loPI    C3 9235  14.798   3.618  10.103  0.1119  0.0888 -0.2090
  578loPI   PO4 9236  14.202   3.784   9.962  0.6447  0.0678  0.0598
  578loPI   GL1 9237  14.074   4.097   9.766 -0.4854 -0.5017 -0.2002
  578loPI   GL2 9238  13.869   4.035   9.586 -0.0054  0.0881  0.0033
  578loPI   C1A 9239  14.291   4.005   9.319 -0.0906  0.0798 -0.3161
  578loPI   C2A 9240  14.015   3.888   9.054  0.0223  0.0117 -0.1875
  578loPI   C3A 9241  13.980   3.873   8.609 -0.1113 -0.0868 -0.0081
  578loPI   C4A 9242  13.991   3.980   8.189  0.1728  0.1301 -0.1517
  578loPI   C5A 9243  13.817   3.933   7.737  0.0333 -0.0982  0.2424
  578loPI   C6A 9244  13.938   4.353   7.473  0.1875  0.2439  0.1328
  578loPI   C1B 9245  13.920   4.381   9.304 -0.2843  0.0515  0.2128
  578loPI   C2B 9246  13.923   4.303   8.765 -0.0236 -0.1677 -0.0926
  578loPI   C3B 9247  13.928   4.412   8.385  0.3400  0.0967  0.4435
  578loPI   C4B 9248  13.955   4.451   7.972  0.0835 -0.2705 -0.1830
  579loPI    C1 9249  11.463   1.875  10.457  0.0420  0.1015 -0.0927
  579loPI    C2 9250  11.504   1.508  10.305  0.1747  0.1336 -0.1360
  579loPI    C3 9251  11.169   1.607  10.500  0.2500 -0.0971  0.1170
  579loPI   PO4 9252  11.624   1.967  10.420 -0.2285  0.1082 -0.0474
  579loPI   GL1 9253  11.928   2.084  10.126 -0.1049  0.2009 -0.1276
  579loPI   GL2 9254  11.572   2.197   9.944  0.0320 -0.1001  0.3554
  579loPI   C1A 9255  12.056   1.962   9.774 -0.1987  0.1417  0.2159
  579loPI   C2A 9256  12.129   2.078   9.332  0.2108 -0.3548 -0.1103
  579loPI   C3A 9257  12.175   2.150   8.873  0.0263  0.0135  0.1174
  579loPI   C4A 9258  12.152   2.206   8.457  0.2320 -0.1371 -0.0990
  579loPI   C5A 9259  12.207   2.099   8.034  0.3969 -0.2600  0.1397
  579loPI   C6A 9260  11.886   2.219   7.572 -0.1815 -0.1960  0.0279
  579loPI   C1B 9261  11.591   2.129   9.495  0.0237  0.0808  0.0944
  579loPI   C2B 9262  11.668   2.156   9.066 -0.1439  0.1746 -0.0554
  579loPI   C3B 9263  11.687   2.238   8.689 -0.0775  0.3163 -0.0669
  579loPI   C4B 9264  11.761   2.247   8.229 -0.0027  0.3765  0.5091
  580loPI    C1 9265  13.470   9.182  10.231 -0.1558  0.0689  0.0228
  580loPI    C2 9266  13.179   8.971  10.056 -0.0725 -0.0435  0.0193
  580loPI    C3 9267  13.342   8.842  10.398 -0.0940  0.0701  0.0729
  580loPI   PO4 9268  13.326   9.518  10.170  0.1683 -0.0133 -0.1153
  580loPI   GL1 9269  13.195   9.689   9.775 -0.0393  0.1245 -0.1275
  580loPI   GL2 9270  13.357   9.329   9.737  0.0181  0.2506 -0.0758
  580loPI   C1A 9271  13.015   9.731   9.324  0.0253 -0.0049  0.5289
  580loPI   C2A 9272  13.037   9.636   8.850  0.2119 -0.0497  0.1198
  580loPI   C3A 9273  13.005   9.675   8.439  0.0624  0.0546  0.1242
  580loPI   C4A 9274  12.876   9.583   8.022 -0.0080  0.0204 -0.0037
  580loPI   C5A 9275  12.658   9.572   7.578 -0.3092 -0.0045  0.2207
  580loPI   C6A 9276  12.781   9.223   7.468 -0.2482 -0.0732 -0.0950
  580loPI   C1B 9277  13.363   9.400   9.319  0.1846 -0.1062  0.0977
  580loPI   C2B 9278  13.460   9.347   8.919  0.1415  0.0737  0.1742
  580loPI   C3B 9279  13.465   9.448   8.477  0.1437  0.1626  0.0938
  580loPI   C4B 9280  13.420   9.622   8.161 -0.1532 -0.1807 -0.2339
  581loPI    C1 9281   1.337   2.605  10.287  0.0901 -0.0134 -0.0859
  581loPI    C2 9282   1.163   2.251  10.353 -0.0852  0.0744 -0.0709
  581loPI    C3 9283   1.076   2.564  10.587  0.3936  0.0237  0.1883
  581loPI   PO4 9284   1.212   2.621   9.999  0.2936  0.2810  0.0199
  581loPI   GL1 9285   1.295   2.548   9.565  0.1784 -0.5578  0.0460
  581loPI   GL2 9286   1.074   2.513   9.364 -0.0348  0.1069 -0.5404
  581loPI   C1A 9287   1.483   2.701   9.168  0.2066  0.1684 -0.1028
  581loPI   C2A 9288   1.411   2.732   8.765  0.2331 -0.3585  0.2057
  581loPI   C3A 9289   1.384   2.741   8.375 -0.1553  0.2364  0.1528
  581loPI   C4A 9290   1.394   2.752   7.990  0.1064 -0.3018 -0.0411
  581loPI   C5A 9291   1.492   2.963   7.637 -0.0618  0.3027  0.1429
  581loPI   C6A 9292   1.909   3.191   7.664  0.2513  0.1188  0.3138
  581loPI   C1B 9293   0.938   2.758   9.115  0.0568  0.1263  0.0130
  581loPI   C2B 9294   0.825   3.127   8.912  0.0760  0.2398  0.2316
  581loPI   C3B 9295   0.843   3.430   8.543  0.0561  0.2051  0.1628
  581loPI   C4B 9296   0.820   3.632   8.118 -0.1971 -0.1233 -0.1681
  582loPI    C1 9297   0.852  15.967   9.732 -0.0385 -0.0230  0.0284
  582loPI    C2 9298   0.639  15.835  10.044  0.0683 -0.0092  0.1081
  582loPI    C3 9299   0.915  16.120  10.097  0.0634  0.0171 -0.0054
  582loPI   PO4 9300   0.730  15.959   9.533  0.1927 -0.0628 -0.3055
  582loPI   GL1 9301   0.688  16.118   9.118  0.1124  0.2333  0.4003
  582loPI   GL2 9302   0.427  16.308   9.322 -0.0714 -0.0410 -0.2307
  582loPI   C1A 9303   0.789  16.147   8.674 -0.1170 -0.0733 -0.0764
  582loPI   C2A 9304   0.718  16.025   8.189  0.2577 -0.2130  0.0280
  582loPI   C3A 9305   0.772  16.038   7.681  0.4600 -0.2050 -0.0429
  582loPI   C4A 9306   0.604  16.052   7.284 -0.4024 -0.1245  0.2849
  582loPI   C5A 9307   0.816  16.030   6.842  0.0744  0.3257 -0.0166
  582loPI   C6A 9308   1.257  16.069   6.995  0.1168  0.0348  0.0935
  582loPI   C1B 9309   0.272  16.335   8.871 -0.0697 -0.3199 -0.0960
  582loPI   C2B 9310   0.029  16.282   8.467 -0.0782  0.1521  0.0062
  582loPI   C3B 9311  -0.273  16.428   8.177 -0.1333 -0.1469  0.1732
  582loPI   C4B 9312  -0.638  16.372   7.986 -0.0448 -0.0626 -0.1196
  583loPI    C1 9313   3.402  16.512   9.502 -0.0094  0.0363  0.1746
  583loPI    C2 9314   3.230  16.829   9.330  0.0896  0.0067  0.0190
  583loPI    C3 9315   3.176  16.760   9.721  0.0916  0.2312  0.0606
  583loPI   PO4 9316   3.329  16.353   9.323 -0.4042 -0.0458 -0.2216
  583loPI   GL1 9317   3.378  16.428   8.975 -0.1888 -0.0336 -0.0865
  583loPI   GL2 9318   3.215  16.157   8.833  0.0443  0.0387  0.0766
  583loPI   C1A 9319   3.350  16.576   8.571  0.0128  0.3404 -0.0358
  583loPI   C2A 9320   3.193  16.765   8.163  0.4683 -0.1558 -0.1238
  583loPI   C3A 9321   3.186  16.495   7.880  0.2775 -0.1622 -0.1645
  583loPI   C4A 9322   3.183  16.002   7.813  0.2784 -0.2597 -0.2026
  583loPI   C5A 9323   2.983  15.593   7.725 -0.1286  0.0568 -0.2002
  583loPI   C6A 9324   2.515  15.361   7.710  0.1915 -0.0830 -0.2618
  583loPI   C1B 9325   3.084  15.771   8.720  0.0750  0.0192  0.2312
  583loPI   C2B 9326   3.026  15.603   8.394 -0.0648 -0.2153  0.2122
  583loPI   C3B 9327   2.767  15.289   8.266  0.0059  0.0862  0.1832
  583loPI   C4B 9328   2.739  14.972   8.463 -0.0580  0.0113  0.1830
  584loPI    C1 9329  16.853  18.734  10.358 -0.1350  0.1873 -0.1157
  584loPI    C2 9330  16.587  18.984  10.521 -0.1378  0.0705  0.0612
  584loPI    C3 9331  16.973  19.008  10.623 -0.1573 -0.0753  0.1717
  584loPI   PO4 9332  16.659  18.784  10.002  0.1470 -0.2449 -0.2154
  584loPI   GL1 9333  16.423  18.935   9.618  0.2350  0.2160 -0.3790
  584loPI   GL2 9334  16.367  18.673   9.586  0.0612  0.0210  0.1179
  584loPI   C1A 9335  16.232  19.060   9.282  0.0053 -0.1216 -0.2960
  584loPI   C2A 9336  16.252  19.152   8.852 -0.3512 -0.0815  0.0748
  584loPI   C3A 9337  16.298  19.150   8.362  0.1449 -0.5449 -0.0215
  584loPI   C4A 9338  16.319  19.451   7.888 -0.2769  0.1018  0.2105
  584loPI   C5A 9339  16.577  19.739   7.724 -0.0802 -0.0433 -0.1481
  584loPI   C6A 9340  16.993  19.724   7.466  0.2590 -0.2299  0.3725
  584loPI   C1B 9341  16.529  18.617   9.205  0.1205  0.1757  0.0758
  584loPI   C2B 9342  16.474  18.690   8.772  0.0724 -0.0717 -0.0168
  584loPI   C3B 9343  16.311  18.660   8.356  0.3180 -0.2328 -0.2598
  584loPI   C4B 9344  16.382  18.939   7.904  0.0903 -0.0281  0.0321
  585loPI    C1 9345  12.874   9.362  10.132 -0.0507 -0.1706  0.1433
  585loPI    C2 9346  12.734   9.097  10.397  0.0385 -0.3208  0.0419
  585loPI    C3 9347  12.992   9.379  10.513  0.1224 -0.4223  0.1036
  585loPI   PO4 9348  12.719   9.268   9.942 -0.5891 -0.0440  0.0212
  585loPI   GL1 9349  12.830   9.301   9.563 -0.3588 -0.1492 -0.2387
  585loPI   GL2 9350  12.472   9.221   9.505 -0.2020 -0.0090 -0.2356
  585loPI   C1A 9351  12.851   9.217   9.189  0.0483  0.3361  0.1105
  585loPI   C2A 9352  12.715   9.330   8.651 -0.3607  0.0658 -0.1011
  585loPI   C3A 9353  12.704   9.199   8.242  0.3275 -0.0847 -0.1554
  585loPI   C4A 9354  12.355   9.088   7.950 -0.1601  0.1038  0.1903
  585loPI   C5A 9355  12.005   8.904   8.005 -0.1654  0.0396  0.0221
  585loPI   C6A 9356  11.628   9.071   8.183  0.2595 -0.2119 -0.2998
  585loPI   C1B 9357  12.399   9.250   9.037  0.0328  0.1651 -0.0875
  585loPI   C2B 9358  12.259   9.476   8.765 -0.0904 -0.1991 -0.0658
  585loPI   C3B 9359  12.218   9.416   8.378 -0.1897 -0.2667 -0.0518
  585loPI   C4B 9360  12.378   9.568   8.021 -0.0304 -0.1540 -0.0821
  586loPI    C1 9361  12.782   5.362  10.626 -0.0756  0.0303  0.0856
  586loPI    C2 9362  13.158   5.228  10.645  0.0001  0.2247 -0.0176
  586loPI    C3 9363  12.970   5.345  10.978  0.0094  0.0705  0.0425
  586loPI   PO4 9364  12.684   5.178  10.396  0.0052  0.0669 -0.0650
  586loPI   GL1 9365  12.525   4.891  10.037  0.1746  0.0696  0.0917
  586loPI   GL2 9366  12.823   4.998   9.911 -0.0263 -0.2005  0.1510
  586loPI   C1A 9367  12.525   4.841   9.503 -0.1209 -0.4593 -0.2881
  586loPI   C2A 9368  12.518   4.812   9.023  0.0122  0.2491 -0.2369
  586loPI   C3A 9369  12.448   4.918   8.563 -0.2289  0.2806  0.0580
  586loPI   C4A 9370  12.245   5.022   8.189  0.0357 -0.0961  0.0140
  586loPI   C5A 9371  12.281   5.091   7.729 -0.2822 -0.2215 -0.0227
  586loPI   C6A 9372  12.553   4.927   7.410 -0.1792  0.2346  0.1910
  586loPI   C1B 9373  12.835   5.251   9.674  0.0802  0.0264  0.2171
  586loPI   C2B 9374  12.740   5.243   9.227 -0.2655 -0.0677  0.0800
  586loPI   C3B 9375  12.521   5.331   8.869  0.0627 -0.0202  0.1850
  586loPI   C4B 9376  12.427   5.419   8.370 -0.1341  0.1888  0.1605
  587loPI    C1 9377  17.712  12.511  10.269  0.1435  0.0334 -0.0520
  587loPI    C2 9378  17.490  12.502  10.601 -0.1542  0.0430 -0.2470
  587loPI    C3 9379  17.629  12.851  10.463  0.1903  0.0121  0.0061
  587loPI   PO4 9380  17.480  12.429  10.092 -0.1814  0.0744  0.2404
  587loPI   GL1 9381  17.396  12.394   9.709  0.0206  0.1685 -0.0185
  587loPI   GL2 9382  17.351  12.109   9.742  0.4705 -0.0122  0.0433
  587loPI   C1A 9383  17.564  12.444   9.353 -0.1895  0.0749  0.2005
  587loPI   C2A 9384  17.612  12.394   8.897  0.3268 -0.1683 -0.0999
  587loPI   C3A 9385  17.553  12.419   8.504 -0.0138 -0.1428  0.0809
  587loPI   C4A 9386  17.481  12.439   8.128  0.1535  0.2848 -0.1546
  587loPI   C5A 9387  17.469  12.404   7.720  0.0559 -0.1370 -0.1452
  587loPI   C6A 9388  17.398  12.230   7.355  0.2035 -0.0326  0.1057
  587loPI   C1B 9389  17.453  11.949   9.313  0.1328 -0.0718 -0.2211
  587loPI   C2B 9390  17.507  11.883   8.833  0.0826 -0.1453  0.1481
  587loPI   C3B 9391  17.555  11.918   8.403 -0.0126  0.0267  0.1356
  587loPI   C4B 9392  17.546  11.991   7.930  0.3316 -0.1097 -0.2641
  588loPI    C1 9393   7.856  12.011   9.509 -0.1944 -0.0018  0.1190
  588loPI    C2 9394   7.757  12.339   9.715 -0.1452  0.0122  0.1203
  588loPI    C3 9395   8.110  12.162   9.778 -0.0550  0.1186 -0.0781
  588loPI   PO4 9396   7.642  11.897   9.462 -0.1022  0.1752  0.1195
  588loPI   GL1 9397   7.418  12.018   9.115  0.3005 -0.2050  0.2425
  588loPI   GL2 9398   7.660  11.740   9.023 -0.1272  0.0865 -0.0130
  588loPI   C1A 9399   7.340  12.325   8.801  0.2145  0.1421  0.1207
  588loPI   C2A 9400   7.442  12.417   8.386  0.0947 -0.2028  0.1950
  588loPI   C3A 9401   7.233  12.443   7.959  0.2804  0.2332  0.2011
  588loPI   C4A 9402   7.206  12.151   7.725 -0.1597  0.1061 -0.0460
  588loPI   C5A 9403   7.062  11.769   7.847 -0.1416  0.2591 -0.2431
  588loPI   C6A 9404   6.930  11.432   7.920 -0.1057  0.1237 -0.2551
  588loPI   C1B 9405   7.498  11.848   8.624 -0.1617  0.2615  0.0954
  588loPI   C2B 9406   7.527  11.849   8.140  0.2943 -0.1242  0.0798
  588loPI   C3B 9407   7.729  12.091   7.898 -0.1398  0.0927 -0.1238
  588loPI   C4B 9408   7.841  12.503   7.855  0.2213 -0.0056  0.1255
  589loPI    C1 9409  13.674   6.366  10.022 -0.1795  0.0089 -0.0221
  589loPI    C2 9410  13.802   5.997  10.109 -0.0343  0.0085 -0.2284
  589loPI    C3 9411  13.756   6.267  10.400  0.2379 -0.0545 -0.1242
  589loPI   PO4 9412  13.672   6.499   9.810 -0.1195  0.3066 -0.0092
  589loPI   GL1 9413  13.528   6.483   9.325 -0.1217 -0.1552 -0.0771
  589loPI   GL2 9414  13.471   6.858   9.467  0.1845  0.0265  0.1295
  589loPI   C1A 9415  13.599   6.467   8.825  0.2586 -0.0995 -0.0304
  589loPI   C2A 9416  13.737   6.436   8.391  0.0518  0.2752  0.1308
  589loPI   C3A 9417  13.486   6.357   7.994  0.2353 -0.0744 -0.1222
  589loPI   C4A 9418  13.180   6.102   7.714 -0.2098 -0.1814  0.0823
  589loPI   C5A 9419  12.897   6.229   7.396 -0.1193  0.0988 -0.1777
  589loPI   C6A 9420  12.547   6.479   7.308  0.2187  0.1034  0.2276
  589loPI   C1B 9421  13.376   6.870   9.017  0.3225  0.3333 -0.2690
  589loPI   C2B 9422  13.609   6.914   8.627  0.0193  0.0455  0.1324
  589loPI   C3B 9423  13.692   6.843   8.188  0.0042 -0.1810  0.0180
  589loPI   C4B 9424  13.460   6.886   7.790  0.2379  0.0278 -0.1734
  590loPI    C1 9425  15.068  18.413  10.379 -0.1060  0.3013  0.1674
  590loPI    C2 9426  15.248  18.404  10.736 -0.0113  0.0096  0.1145
  590loPI    C3 9427  14.961  18.140  10.650  0.1361 -0.0805 -0.1116
  590loPI   PO4 9428  15.048  18.704  10.353  0.1208  0.0585 -0.1421
  590loPI   GL1 9429  14.898  18.893   9.967 -0.0294 -0.2775  0.0640
  590loPI   GL2 9430  14.994  18.620   9.793  0.2252 -0.0313 -0.0661
  590loPI   C1A 9431  14.900  19.143   9.542 -0.0349 -0.1460 -0.2122
  590loPI   C2A 9432  14.946  19.151   9.081  0.0164  0.2009 -0.1850
  590loPI   C3A 9433  14.948  19.311   8.669  0.0615  0.5070  0.0688
  590loPI   C4A 9434  14.944  19.205   8.229 -0.2896  0.0558  0.0823
  590loPI   C5A 9435  14.999  19.117   7.818 -0.0306  0.3563  0.1747
  590loPI   C6A 9436  14.803  19.337   7.526 -0.2074  0.3795  0.1989
  590loPI   C1B 9437  15.092  18.645   9.394 -0.1058  0.0287 -0.2278
  590loPI   C2B 9438  15.066  18.631   8.937 -0.0188 -0.0131 -0.1643
  590loPI   C3B 9439  14.965  18.698   8.493  0.0844  0.0192  0.0810
  590loPI   C4B 9440  14.807  18.657   8.090  0.0618  0.1899  0.1217
  591loPI    C1 9441   0.221   5.532  10.036 -0.0412  0.1960 -0.1560
  591loPI    C2 9442   0.118   5.714  10.377 -0.1363  0.1258 -0.1467
  591loPI    C3 9443   0.427   5.460  10.372 -0.1172  0.1483 -0.1192
  591loPI   PO4 9444  -0.041   5.537   9.939  0.0996  0.0631  0.2098
  591loPI   GL1 9445  -0.019   5.503   9.526  0.3243 -0.1887  0.1173
  591loPI   GL2 9446   0.374   5.627   9.445 -0.0845  0.2211 -0.1846
  591loPI   C1A 9447   0.003   5.357   9.153 -0.0270 -0.1109 -0.0957
  591loPI   C2A 9448   0.179   5.284   8.818 -0.0864  0.1108 -0.1095
  591loPI   C3A 9449   0.358   5.317   8.385  0.0675  0.3361 -0.2932
  591loPI   C4A 9450   0.184   5.360   8.034  0.0071  0.2895  0.1963
  591loPI   C5A 9451   0.228   5.344   7.574 -0.0132 -0.0277  0.0015
  591loPI   C6A 9452   0.287   5.274   7.186  0.4520  0.0198 -0.1546
  591loPI   C1B 9453   0.488   5.664   9.008 -0.0229  0.0887  0.1222
  591loPI   C2B 9454   0.484   5.693   8.651 -0.1283  0.2198 -0.0846
  591loPI   C3B 9455   0.567   5.680   8.168  0.1890  0.3126  0.0758
  591loPI   C4B 9456   0.532   5.841   7.750 -0.0455  0.3762  0.0254
  592loPI    C1 9457   2.645  12.590  10.331  0.2798  0.1244 -0.0499
  592loPI    C2 9458   3.032  12.680  10.379  0.2844 -0.0816  0.3384
  592loPI    C3 9459   2.808  12.583  10.696 -0.0380 -0.1619  0.0922
  592loPI   PO4 9460   2.541  12.722  10.219  0.1033  0.1174 -0.2349
  592loPI   GL1 9461   2.217  12.846   9.913  0.1485 -0.2896  0.0200
  592loPI   GL2 9462   2.239  13.125   9.714 -0.1968  0.0290  0.0015
  592loPI   C1A 9463   2.466  12.869   9.425 -0.1182  0.1254 -0.3058
  592loPI   C2A 9464   2.485  12.814   9.030 -0.0423 -0.0494  0.1741
  592loPI   C3A 9465   2.444  12.776   8.677  0.3429  0.1524  0.0627
  592loPI   C4A 9466   2.384  12.800   8.234 -0.0752  0.1460 -0.1550
  592loPI   C5A 9467   2.609  12.688   7.971  0.0453  0.0688  0.1097
  592loPI   C6A 9468   2.912  13.039   7.771 -0.0931 -0.0208  0.0802
  592loPI   C1B 9469   2.002  13.211   9.338  0.1496  0.2763 -0.0528
  592loPI   C2B 9470   2.071  13.225   8.941  0.3654 -0.2088  0.1234
  592loPI   C3B 9471   2.075  13.121   8.568  0.0665 -0.4149 -0.2177
  592loPI   C4B 9472   2.033  13.191   8.176 -0.0891 -0.0679 -0.0695
  593loPI    C1 9473   0.387  17.501   9.816 -0.0106  0.0594  0.2807
  593loPI    C2 9474   0.450  17.529  10.210  0.1548 -0.0817  0.2655
  593loPI    C3 9475   0.761  17.510   9.958  0.0500 -0.1506  0.1398
  593loPI   PO4 9476   0.122  17.561   9.788 -0.4408  0.0411  0.1401
  593loPI   GL1 9477  -0.120  17.506   9.457 -0.1917 -0.3526 -0.2011
  593loPI   GL2 9478  -0.058  17.256   9.181  0.0137 -0.1234 -0.0068
  593loPI   C1A 9479   0.052  17.710   9.127  0.1771  0.1481  0.2753
  593loPI   C2A 9480   0.291  17.926   8.847  0.0289  0.0365  0.1025
  593loPI   C3A 9481   0.397  17.959   8.441 -0.1500  0.1906  0.1122
  593loPI   C4A 9482   0.258  17.870   8.119  0.3863 -0.1857  0.0012
  593loPI   C5A 9483   0.166  18.199   7.866 -0.0396 -0.0592 -0.0228
  593loPI   C6A 9484   0.089  18.559   7.658  0.1780 -0.0505  0.0116
  593loPI   C1B 9485  -0.230  17.152   8.771 -0.0009  0.0918 -0.1993
  593loPI   C2B 9486  -0.299  17.074   8.311  0.2997 -0.1315 -0.0826
  593loPI   C3B 9487  -0.438  16.848   7.938  0.2345 -0.1362 -0.7727
  593loPI   C4B 9488  -0.557  16.959   7.559 -0.1145 -0.0148  0.0259
  594loPI    C1 9489  15.460   3.656  10.568  0.2312 -0.0700 -0.0648
  594loPI    C2 9490  15.305   3.937  10.807  0.0576 -0.0075 -0.2482
  594loPI    C3 9491  15.620   3.722  10.929 -0.1504 -0.1134  0.1170
  594loPI   PO4 9492  15.300   3.769  10.278  0.0984 -0.1689 -0.1772
  594loPI   GL1 9493  15.278   3.942   9.901 -0.1053 -0.4511  0.2207
  594loPI   GL2 9494  15.534   4.234  10.072 -0.1150  0.1697 -0.2140
  594loPI   C1A 9495  15.434   3.895   9.461 -0.1121 -0.2664 -0.0729
  594loPI   C2A 9496  15.242   3.746   9.096  0.1726  0.1135  0.1412
  594loPI   C3A 9497  15.095   3.575   8.666  0.1980 -0.1224 -0.0433
  594loPI   C4A 9498  14.942   3.600   8.305 -0.0693  0.1084 -0.4460
  594loPI   C5A 9499  15.067   3.306   7.977 -0.3626 -0.0569  0.0182
  594loPI   C6A 9500  15.254   3.399   7.617  0.1302 -0.1309  0.2890
  594loPI   C1B 9501  15.646   4.335   9.621  0.1151  0.0436  0.0947
  594loPI   C2B 9502  15.694   4.393   9.217  0.0671 -0.1838  0.3303
  594loPI   C3B 9503  15.536   4.130   8.879  0.2494 -0.0322 -0.1182
  594loPI   C4B 9504  15.374   3.993   8.418 -0.0757  0.0621  0.0147
  595loPI    C1 9505   4.548  18.721  10.390  0.0038 -0.0757 -0.0172
  595loPI    C2 9506   4.385  18.367  10.479  0.0684 -0.0596  0.1705
  595loPI    C3 9507   4.474  18.625  10.771  0.1821  0.0410  0.0483
  595loPI   PO4 9508   4.468  18.853  10.161 -0.0460 -0.2906 -0.1369
  595loPI   GL1 9509   4.271  18.899   9.779  0.0416 -0.1700 -0.3115
  595loPI   GL2 9510   4.349  18.627   9.739  0.2981  0.0757  0.3335
  595loPI   C1A 9511   4.198  19.087   9.415  0.2876 -0.3562  0.0790
  595loPI   C2A 9512   4.071  19.104   8.988 -0.3585 -0.0879 -0.3583
  595loPI   C3A 9513   4.175  19.180   8.599 -0.0770  0.1788  0.0925
  595loPI   C4A 9514   4.179  19.259   8.144  0.1854 -0.4229  0.1075
  595loPI   C5A 9515   4.034  19.135   7.696 -0.2353  0.0148  0.0153
  595loPI   C6A 9516   4.092  19.150   7.281 -0.1349  0.1544  0.0779
  595loPI   C1B 9517   4.076  18.548   9.404  0.1726  0.2736 -0.1940
  595loPI   C2B 9518   4.144  18.594   8.936 -0.0143 -0.0035  0.0064
  595loPI   C3B 9519   4.259  18.582   8.586  0.1239  0.0270  0.2373
  595loPI   C4B 9520   4.273  18.718   8.216  0.0577  0.0257 -0.3422
  596loPI    C1 9521  10.176  16.172  10.179  0.0645 -0.0021 -0.0780
  596loPI    C2 9522  10.306  15.806  10.274 -0.3127 -0.1096  0.0440
  596loPI    C3 9523  10.474  16.128  10.443 -0.1050 -0.2341  0.0785
  596loPI   PO4 9524  10.121  16.183   9.911  0.0851 -0.1107 -0.3159
  596loPI   GL1 9525   9.846  16.272   9.606  0.0249  0.0806  0.0090
  596loPI   GL2 9526   9.613  16.269   9.477 -0.0641 -0.0713 -0.4788
  596loPI   C1A 9527   9.938  16.428   9.181 -0.1373 -0.1475 -0.0129
  596loPI   C2A 9528  10.001  16.815   8.935 -0.1108  0.2548  0.3057
  596loPI   C3A 9529  10.276  16.777   8.518  0.0772 -0.0418 -0.2335
  596loPI   C4A 9530  10.522  16.599   8.240  0.1077 -0.0767  0.0840
  596loPI   C5A 9531  10.746  16.191   8.151 -0.1223 -0.1290  0.1644
  596loPI   C6A 9532  10.944  15.877   8.478 -0.3474  0.0597  0.1332
  596loPI   C1B 9533   9.582  16.085   9.149 -0.0030  0.1996 -0.2409
  596loPI   C2B 9534   9.808  16.031   8.723  0.2689 -0.1431 -0.1648
  596loPI   C3B 9535   9.845  15.908   8.281  0.0808 -0.0135 -0.1223
  596loPI   C4B 9536   9.894  15.940   7.872 -0.1614 -0.1966  0.0725
  597loPI    C1 9537  16.199   0.121  10.075  0.0005  0.0473 -0.2130
  597loPI    C2 9538  16.134   0.347  10.399  0.0855 -0.1109 -0.0840
  597loPI    C3 9539  16.446   0.423  10.160  0.1841 -0.1655  0.0263
  597loPI   PO4 9540  16.000   0.102   9.954  0.1158 -0.1108 -0.2490
  597loPI   GL1 9541  15.882  -0.162   9.568 -0.0115 -0.0299  0.2715
  597loPI   GL2 9542  15.693  -0.356   9.561 -0.0053 -0.2336  0.2212
  597loPI   C1A 9543  15.835  -0.018   9.058  0.1935 -0.0533  0.0160
  597loPI   C2A 9544  15.918  -0.008   8.661 -0.0406  0.1028  0.1581
  597loPI   C3A 9545  15.846   0.005   8.187  0.0311 -0.1191 -0.0006
  597loPI   C4A 9546  15.762  -0.235   7.822 -0.0465  0.1152 -0.3053
  597loPI   C5A 9547  15.451  -0.375   7.637  0.3147  0.3746  0.4148
  597loPI   C6A 9548  15.121  -0.609   7.512 -0.0105 -0.5299 -0.0564
  597loPI   C1B 9549  15.594  -0.450   9.214  0.0859 -0.1629  0.3594
  597loPI   C2B 9550  15.562  -0.386   8.792  0.1058  0.1461 -0.1183
  597loPI   C3B 9551  15.443  -0.274   8.430  0.1215 -0.1164  0.3466
  597loPI   C4B 9552  15.344  -0.097   8.066 -0.0198  0.0120 -0.0203
  598loPI    C1 9553   2.077   9.513  10.299 -0.0182 -0.1138 -0.1199
  598loPI    C2 9554   2.470   9.455  10.345 -0.0159 -0.1403 -0.1729
  598loPI    C3 9555   2.226   9.424  10.660  0.0185 -0.1712 -0.1491
  598loPI   PO4 9556   1.985   9.706  10.212 -0.1910 -0.2252 -0.2472
  598loPI   GL1 9557   1.952   9.683   9.786  0.1241 -0.1364 -0.2697
  598loPI   GL2 9558   2.064   9.991   9.694  0.2174 -0.3070 -0.0257
  598loPI   C1A 9559   1.945   9.596   9.364  0.0080 -0.1355 -0.1466
  598loPI   C2A 9560   1.999   9.668   8.934 -0.1102  0.1565 -0.2584
  598loPI   C3A 9561   1.923   9.742   8.516  0.1379 -0.0194  0.1096
  598loPI   C4A 9562   1.875   9.778   8.029 -0.2953  0.0043  0.1713
  598loPI   C5A 9563   1.534   9.928   7.735  0.3477  0.3358 -0.0567
  598loPI   C6A 9564   1.232  10.009   7.409 -0.0706 -0.3107 -0.3336
  598loPI   C1B 9565   1.952  10.092   9.287  0.1165 -0.3572  0.0934
  598loPI   C2B 9566   1.999  10.282   8.833  0.2395  0.0944  0.1661
  598loPI   C3B 9567   1.995  10.248   8.430  0.0957  0.0700 -0.1080
  598loPI   C4B 9568   2.099  10.264   7.989  0.4031  0.1424  0.1795
  599loPI    C1 9569  17.457   7.274  10.380  0.0608  0.0018 -0.1360
  599loPI    C2 9570  17.285   7.027  10.643  0.1671 -0.0083 -0.0756
  599loPI    C3 9571  17.164   7.407  10.617 -0.1801 -0.1325 -0.3526
  599loPI   PO4 9572  17.528   7.103  10.146  0.0767 -0.0425 -0.1952
  599loPI   GL1 9573  17.815   7.126   9.937 -0.4029 -0.1203  0.0773
  599loPI   GL2 9574  18.079   7.291   9.648 -0.2647 -0.0714 -0.1029
  599loPI   C1A 9575  17.807   6.921   9.527 -0.0182 -0.2664  0.1468
  599loPI   C2A 9576  17.768   6.888   9.131 -0.1204  0.0880 -0.1771
  599loPI   C3A 9577  17.870   6.987   8.670 -0.4771 -0.2379  0.0002
  599loPI   C4A 9578  17.945   6.756   8.328  0.2844  0.0410  0.0803
  599loPI   C5A 9579  18.145   6.756   7.851  0.0125  0.2692  0.2033
  599loPI   C6A 9580  18.574   6.755   7.754 -0.2644  0.1663 -0.1325
  599loPI   C1B 9581  18.029   7.355   9.236 -0.0458  0.3182 -0.0839
  599loPI   C2B 9582  18.074   7.455   8.814  0.1677  0.1188  0.0486
  599loPI   C3B 9583  17.997   7.504   8.375 -0.3505 -0.1069  0.2917
  599loPI   C4B 9584  17.898   7.229   8.059  0.1460  0.1576  0.0287
  600loPI    C1 9585   5.797   6.178  10.312 -0.0855 -0.0347  0.0326
  600loPI    C2 9586   5.850   5.821  10.139 -0.2385 -0.0929  0.1035
  600loPI    C3 9587   6.023   5.901  10.491  0.3565  0.1469 -0.2278
  600loPI   PO4 9588   5.805   6.362  10.123  0.1392  0.3937  0.6362
  600loPI   GL1 9589   5.581   6.261   9.754  0.0490  0.0979 -0.0226
  600loPI   GL2 9590   5.555   5.920   9.672 -0.2145  0.0603  0.3816
  600loPI   C1A 9591   5.526   6.463   9.319 -0.2268  0.0062 -0.0841
  600loPI   C2A 9592   5.672   6.461   8.856  0.0524  0.0029  0.1643
  600loPI   C3A 9593   5.613   6.397   8.446  0.3828  0.0361 -0.0214
  600loPI   C4A 9594   5.381   6.545   8.123  0.1694 -0.2370 -0.0869
  600loPI   C5A 9595   5.201   6.889   7.972 -0.0136 -0.1289 -0.1052
  600loPI   C6A 9596   4.850   7.245   7.824  0.4984 -0.0829 -0.0601
  600loPI   C1B 9597   5.722   6.006   9.218  0.2688  0.2415 -0.1761
  600loPI   C2B 9598   5.690   5.903   8.770  0.1661  0.0772  0.0517
  600loPI   C3B 9599   5.669   5.869   8.347 -0.1507 -0.0565  0.1858
  600loPI   C4B 9600   5.623   6.093   7.991 -0.3379 -0.0833 -0.0421
  601loPI    C1 9601   9.146  16.337  10.504 -0.0718  0.2054  0.0112
  601loPI    C2 9602   8.920  16.103  10.271 -0.0429 -0.0320  0.2165
  601loPI    C3 9603   8.761  16.277  10.594 -0.0563  0.2102  0.0816
  601loPI   PO4 9604   9.211  16.475  10.344 -0.3921  0.0801  0.0256
  601loPI   GL1 9605   8.978  16.531   9.929  0.0477 -0.2734  0.3713
  601loPI   GL2 9606   8.707  16.781   9.876 -0.0411 -0.0544 -0.1878
  601loPI   C1A 9607   8.889  16.269   9.482 -0.0630  0.0907 -0.0112
  601loPI   C2A 9608   8.620  16.312   9.120  0.1514  0.3132  0.3901
  601loPI   C3A 9609   8.641  16.352   8.720  0.2675  0.1995 -0.1374
  601loPI   C4A 9610   8.473  16.486   8.255 -0.1896 -0.1844  0.0836
  601loPI   C5A 9611   8.578  16.540   7.829 -0.1470  0.3049 -0.0717
  601loPI   C6A 9612   9.065  16.649   7.700  0.0452 -0.0340 -0.0560
  601loPI   C1B 9613   8.372  16.653   9.623 -0.0754 -0.1163  0.0639
  601loPI   C2B 9614   8.247  16.615   9.159 -0.1110  0.0496 -0.1824
  601loPI   C3B 9615   8.228  16.616   8.763 -0.0484 -0.0700  0.2294
  601loPI   C4B 9616   8.203  16.911   8.459 -0.0068  0.2643  0.2715
  602loPI    C1 9617   1.901  14.983  10.038 -0.0084  0.2250 -0.1854
  602loPI    C2 9618   1.713  15.250  10.269  0.0540 -0.0128  0.1482
  602loPI    C3 9619   2.091  15.148  10.350  0.1998  0.1647 -0.2787
  602loPI   PO4 9620   1.765  15.028   9.731  0.3552 -0.0568  0.2550
  602loPI   GL1 9621   1.445  15.126   9.605 -0.0040  0.0337 -0.0611
  602loPI   GL2 9622   1.602  15.004   9.250  0.0216  0.2074 -0.2755
  602loPI   C1A 9623   1.068  14.967   9.330 -0.0642  0.2805  0.0805
  602loPI   C2A 9624   1.001  14.825   8.946  0.2014 -0.1853 -0.3648
  602loPI   C3A 9625   0.922  14.593   8.516 -0.3647  0.0567  0.1730
  602loPI   C4A 9626   0.782  14.609   8.058 -0.1327 -0.2430 -0.1775
  602loPI   C5A 9627   0.582  14.615   7.602  0.1725 -0.0329  0.1774
  602loPI   C6A 9628   0.094  14.718   7.506  0.0368 -0.0834  0.0256
  602loPI   C1B 9629   1.477  14.969   8.928 -0.2638 -0.1406  0.0707
  602loPI   C2B 9630   1.352  14.774   8.499  0.0276  0.1758  0.0492
  602loPI   C3B 9631   1.299  14.766   8.080  0.0345  0.1988 -0.2198
  602loPI   C4B 9632   1.225  14.686   7.643 -0.2334 -0.0007  0.4084
  603loPI    C1 9633  18.371   6.481  10.328 -0.1860 -0.0144 -0.0304
  603loPI    C2 9634  18.443   6.471  10.721  0.2021 -0.0619 -0.0986
  603loPI    C3 9635  18.246   6.780  10.562 -0.0343 -0.0851  0.1433
  603loPI   PO4 9636  18.257   6.255  10.174  0.1478  0.0760 -0.1043
  603loPI   GL1 9637  18.233   6.169   9.643 -0.1588 -0.0087  0.3162
  603loPI   GL2 9638  18.012   6.333   9.765 -0.2663 -0.1796 -0.3019
  603loPI   C1A 9639  18.234   6.102   9.151 -0.0998 -0.1104 -0.1306
  603loPI   C2A 9640  18.426   6.022   8.753  0.1596 -0.2261 -0.1743
  603loPI   C3A 9641  18.393   5.798   8.450 -0.0948 -0.1456  0.0367
  603loPI   C4A 9642  18.503   5.535   8.100  0.1134  0.3244  0.0078
  603loPI   C5A 9643  18.560   5.372   7.720 -0.1381 -0.0688  0.0054
  603loPI   C6A 9644  18.390   5.281   7.371 -0.0723 -0.2360 -0.2048
  603loPI   C1B 9645  18.049   6.511   9.330 -0.1359 -0.0107 -0.0499
  603loPI   C2B 9646  18.023   6.503   8.834  0.3130 -0.1061  0.2776
  603loPI   C3B 9647  17.948   6.172   8.493 -0.0443 -0.0005  0.1291
  603loPI   C4B 9648  17.965   5.920   8.131  0.0941 -0.2909  0.0881
  604loPI    C1 9649  13.895  14.764   9.866  0.1890  0.1837  0.4934
  604loPI    C2 9650  14.197  14.504   9.902  0.0914  0.0326  0.2434
  604loPI    C3 9651  13.916  14.524  10.185  0.0777 -0.1640  0.2447
  604loPI   PO4 9652  13.980  14.950   9.684 -0.0217  0.1194  0.0980
  604loPI   GL1 9653  14.328  15.223   9.510 -0.3189 -0.3191  0.0038
  604loPI   GL2 9654  14.245  15.437   9.430 -0.2124 -0.0603 -0.0613
  604loPI   C1A 9655  14.623  15.067   9.267  0.0365 -0.1771  0.2167
  604loPI   C2A 9656  14.745  14.963   8.888 -0.0916 -0.1120 -0.2281
  604loPI   C3A 9657  14.703  15.113   8.394 -0.0142  0.0675  0.2140
  604loPI   C4A 9658  14.757  15.067   7.870 -0.1925 -0.1476 -0.2831
  604loPI   C5A 9659  15.012  14.793   7.638  0.0201 -0.0649 -0.2191
  604loPI   C6A 9660  14.987  14.473   7.418 -0.0934 -0.0850  0.0647
  604loPI   C1B 9661  14.188  15.410   9.048 -0.0707  0.1362  0.0717
  604loPI   C2B 9662  14.260  15.309   8.628 -0.0466 -0.1705  0.2687
  604loPI   C3B 9663  14.040  15.143   8.321 -0.2231  0.1864  0.0193
  604loPI   C4B 9664  14.076  15.243   7.783 -0.1280  0.2611 -0.2216
  605loPI    C1 9665  17.765  10.128  10.666 -0.0502  0.0332 -0.0428
  605loPI    C2 9666  17.792  10.448  10.904  0.1724 -0.1291  0.1555
  605loPI    C3 9667  17.680  10.096  11.055 -0.0779 -0.1468 -0.0631
  605loPI   PO4 9668  17.971  10.078  10.566 -0.0627  0.0147  0.0450
  605loPI   GL1 9669  18.135   9.979  10.094 -0.1495 -0.1651 -0.0708
  605loPI   GL2 9670  18.491   9.932   9.958  0.0312 -0.1044  0.3215
  605loPI   C1A 9671  17.916   9.876   9.793 -0.1984 -0.1054  0.1128
  605loPI   C2A 9672  17.707   9.957   9.376 -0.0747  0.0056  0.1041
  605loPI   C3A 9673  17.735  10.093   9.081  0.1466  0.0474  0.5091
  605loPI   C4A 9674  17.661  10.137   8.563  0.0188 -0.2503  0.0306
  605loPI   C5A 9675  17.628  10.227   8.088 -0.2803  0.0191  0.1851
  605loPI   C6A 9676  17.750  10.342   7.626 -0.3243  0.2090  0.1239
  605loPI   C1B 9677  18.558   9.971   9.502 -0.0211 -0.1232 -0.1190
  605loPI   C2B 9678  18.535   9.916   9.080  0.0065  0.2463  0.1949
  605loPI   C3B 9679  18.706   9.868   8.678  0.0550 -0.1224 -0.0861
  605loPI   C4B 9680  19.127  10.097   8.636  0.0404  0.0325 -0.0222
  606loPI    C1 9681   9.769  18.327  10.362  0.3199  0.2754 -0.0528
  606loPI    C2 9682   9.962  18.303  10.711 -0.0138  0.2731  0.1366
  606loPI    C3 9683   9.572  18.389  10.704 -0.0203  0.2326 -0.2360
  606loPI   PO4 9684   9.955  18.444  10.228 -0.1086 -0.0868 -0.2131
  606loPI   GL1 9685   9.927  18.537   9.869 -0.0837  0.0205  0.2698
  606loPI   GL2 9686   9.624  18.367   9.774 -0.0751 -0.0856 -0.1230
  606loPI   C1A 9687   9.912  18.753   9.503  0.0253 -0.2926  0.2356
  606loPI   C2A 9688   9.866  18.800   8.994  0.0705 -0.0355  0.0798
  606loPI   C3A 9689  10.061  18.690   8.583  0.2452 -0.1458 -0.0842
  606loPI   C4A 9690   9.944  18.904   8.227 -0.0981 -0.0462  0.1342
  606loPI   C5A 9691   9.939  19.143   7.856  0.1274 -0.2681  0.1153
  606loPI   C6A 9692  10.137  19.236   7.436  0.0193  0.1674 -0.2982
  606loPI   C1B 9693   9.608  18.416   9.288 -0.2833 -0.3584 -0.1619
  606loPI   C2B 9694   9.536  18.386   8.854  0.0265 -0.1582 -0.0463
  606loPI   C3B 9695   9.588  18.568   8.477 -0.4120  0.2238 -0.1981
  606loPI   C4B 9696   9.647  18.547   8.007  0.0971 -0.3144  0.0560
  607loPI    C1 9697   3.377   0.125  10.172 -0.2966  0.0138  0.1861
  607loPI    C2 9698   3.213   0.145  10.537  0.0180  0.0319  0.3292
  607loPI    C3 9699   3.561  -0.046  10.483 -0.0076  0.0608  0.0443
  607loPI   PO4 9700   3.413   0.286  10.108 -0.1494  0.3165  0.1499
  607loPI   GL1 9701   3.422   0.516   9.736 -0.1556  0.0662 -0.0485
  607loPI   GL2 9702   3.310   0.436   9.587  0.2608  0.1454 -0.1098
  607loPI   C1A 9703   3.361   0.902   9.473 -0.0125  0.0413 -0.2213
  607loPI   C2A 9704   3.513   0.954   9.032  0.2655  0.2760  0.0265
  607loPI   C3A 9705   3.486   0.952   8.624  0.0173 -0.2113 -0.2889
  607loPI   C4A 9706   3.603   1.033   8.135 -0.0403  0.0573  0.1203
  607loPI   C5A 9707   3.694   1.107   7.727 -0.1200  0.0656 -0.0147
  607loPI   C6A 9708   3.723   1.093   7.274  0.0413 -0.3504  0.3621
  607loPI   C1B 9709   3.564   0.477   9.192  0.3935  0.0881 -0.4187
  607loPI   C2B 9710   3.661   0.418   8.727  0.1782 -0.0249  0.2144
  607loPI   C3B 9711   3.610   0.571   8.321  0.1610  0.0957  0.4951
  607loPI   C4B 9712   3.734   0.569   7.932 -0.1126  0.0322  0.1790
  608loPI    C1 9713   0.246   7.537  10.260 -0.2166 -0.0771  0.0547
  608loPI    C2 9714   0.499   7.281  10.433 -0.1420 -0.1460 -0.1530
  608loPI    C3 9715   0.224   7.470  10.654  0.0927 -0.0660  0.0760
  608loPI   PO4 9716   0.419   7.669  10.114 -0.2813  0.2429 -0.1126
  608loPI   GL1 9717   0.263   7.720   9.697 -0.1737  0.3544  0.2555
  608loPI   GL2 9718  -0.034   7.769   9.560 -0.1961 -0.0101  0.2224
  608loPI   C1A 9719   0.501   7.932   9.386 -0.1506  0.2821  0.2422
  608loPI   C2A 9720   0.450   8.033   8.978  0.1111 -0.0679 -0.1738
  608loPI   C3A 9721   0.601   8.135   8.627  0.0181  0.1836  0.0992
  608loPI   C4A 9722   0.966   7.995   8.342  0.1214 -0.3149 -0.2176
  608loPI   C5A 9723   1.070   7.800   8.019  0.0169  0.3148  0.2912
  608loPI   C6A 9724   0.931   7.444   7.707 -0.0948  0.2114  0.1174
  608loPI   C1B 9725  -0.041   7.828   9.108 -0.1735 -0.1521  0.2623
  608loPI   C2B 9726   0.025   7.843   8.632  0.1360 -0.3068 -0.2139
  608loPI   C3B 9727  -0.007   8.093   8.325  0.0968 -0.4310  0.0057
  608loPI   C4B 9728  -0.310   8.150   7.988 -0.2708 -0.0431  0.2370
  609loPI    C1 9729   8.296  13.103  10.164  0.3796 -0.1268 -0.1823
  609loPI    C2 9730   8.590  13.367  10.101  0.0686  0.2143 -0.2378
  609loPI    C3 9731   8.322  13.293   9.813 -0.0114  0.0475 -0.1225
  609loPI   PO4 9732   8.477  12.882  10.262 -0.0142 -0.2342  0.0629
  609loPI   GL1 9733   8.694  12.641   9.914  0.0517  0.1848  0.0396
  609loPI   GL2 9734   8.755  12.907   9.830 -0.1818  0.0256 -0.3988
  609loPI   C1A 9735   8.476  12.509   9.523 -0.1049 -0.1400 -0.1283
  609loPI   C2A 9736   8.344  12.136   9.262  0.0502 -0.1664 -0.0356
  609loPI   C3A 9737   8.082  12.040   9.025  0.3894 -0.0772 -0.0936
  609loPI   C4A 9738   8.096  11.881   8.560  0.0803 -0.0619  0.2224
  609loPI   C5A 9739   8.107  12.156   8.269  0.1672 -0.0780 -0.0920
  609loPI   C6A 9740   8.020  12.659   8.258  0.3081  0.0093 -0.1356
  609loPI   C1B 9741   8.509  12.979   9.523  0.2823  0.0228  0.0415
  609loPI   C2B 9742   8.392  13.027   9.095  0.0734 -0.2073 -0.0960
  609loPI   C3B 9743   8.604  12.968   8.722  0.2667 -0.6461 -0.2589
  609loPI   C4B 9744   8.448  12.882   8.414 -0.1181 -0.1962  0.2046
  610loPI    C1 9745   8.955   9.203   9.992 -0.0385  0.0578  0.1315
  610loPI    C2 9746   8.903   8.828  10.122 -0.2008 -0.0256 -0.1636
  610loPI    C3 9747   8.832   9.137  10.367 -0.1441 -0.1846  0.0563
  610loPI   PO4 9748   8.906   9.180   9.798  0.1474  0.2173  0.1133
  610loPI   GL1 9749   8.943   9.287   9.388  0.1546 -0.1583  0.1322
  610loPI   GL2 9750   8.823   9.548   9.149  0.1413 -0.2380 -0.0852
  610loPI   C1A 9751   9.097   9.064   9.023 -0.0071 -0.1484 -0.1689
  610loPI   C2A 9752   8.905   8.714   8.598  0.1646 -0.1285  0.3737
  610loPI   C3A 9753   8.965   8.673   8.241 -0.0048 -0.1288 -0.0612
  610loPI   C4A 9754   9.146   8.894   7.993  0.0719 -0.1172 -0.0877
  610loPI   C5A 9755   9.313   8.882   7.588  0.1232  0.2773  0.3581
  610loPI   C6A 9756   8.998   8.876   7.247  0.2193 -0.0930  0.3775
  610loPI   C1B 9757   8.455   9.600   9.010 -0.1438 -0.0566  0.3272
  610loPI   C2B 9758   8.379   9.509   8.578  0.0194 -0.1749  0.0028
  610loPI   C3B 9759   8.545   9.270   8.141 -0.0464 -0.0796  0.0125
  610loPI   C4B 9760   8.316   9.185   7.740  0.3366 -0.1284 -0.1042
  611loPI    C1 9761   9.665   3.575  10.748 -0.2304  0.1635  0.0856
  611loPI    C2 9762  10.000   3.773  10.656 -0.1961 -0.0574 -0.2836
  611loPI    C3 9763   9.933   3.657  11.033  0.1465 -0.0187 -0.2083
  611loPI   PO4 9764   9.662   3.418  10.481 -0.1218  0.5108 -0.0020
  611loPI   GL1 9765   9.745   3.574  10.008  0.1848 -0.0100  0.0963
  611loPI   GL2 9766   9.659   3.233  10.017 -0.0310 -0.0558  0.1883
  611loPI   C1A 9767   9.567   3.679   9.580 -0.0301 -0.2447 -0.0275
  611loPI   C2A 9768   9.528   3.744   9.129  0.0132  0.1566 -0.0974
  611loPI   C3A 9769   9.476   3.796   8.742 -0.1347 -0.0044  0.0236
  611loPI   C4A 9770   9.564   3.814   8.298 -0.0968 -0.0966  0.0340
  611loPI   C5A 9771   9.800   4.061   7.957  0.2942  0.0679  0.2784
  611loPI   C6A 9772  10.217   4.386   7.936 -0.0890  0.0623  0.3095
  611loPI   C1B 9773   9.611   3.194   9.651 -0.0921 -0.0605  0.1056
  611loPI   C2B 9774   9.650   3.205   9.241  0.1930  0.1614  0.1259
  611loPI   C3B 9775   9.651   3.319   8.813  0.1871  0.0836 -0.0621
  611loPI   C4B 9776   9.569   3.259   8.389 -0.0284 -0.2210 -0.0310
  612loPI    C1 9777  16.511  10.050  10.671 -0.0208 -0.0892 -0.1002
  612loPI    C2 9778  16.553  10.446  10.639  0.0346 -0.1097 -0.2893
  612loPI    C3 9779  16.321  10.293  10.926  0.1904  0.0509 -0.0741
  612loPI   PO4 9780  16.516   9.970  10.368  0.1719 -0.0170 -0.1460
  612loPI   GL1 9781  16.457   9.743   9.873 -0.4290  0.0987 -0.0673
  612loPI   GL2 9782  16.190  10.012  10.002  0.0786 -0.0066  0.2472
  612loPI   C1A 9783  16.455   9.348   9.518 -0.2774 -0.0397 -0.4226
  612loPI   C2A 9784  16.490   9.183   9.091 -0.0483 -0.0185 -0.1472
  612loPI   C3A 9785  16.646   9.113   8.701  0.2424 -0.0246 -0.0544
  612loPI   C4A 9786  16.651   9.178   8.257 -0.0322  0.1916  0.4711
  612loPI   C5A 9787  16.764   9.258   7.821 -0.0400 -0.1811  0.1586
  612loPI   C6A 9788  16.816   9.218   7.422  0.2164  0.0985 -0.0309
  612loPI   C1B 9789  16.128   9.967   9.595  0.3851  0.1258  0.0951
  612loPI   C2B 9790  16.222   9.982   9.185 -0.0240 -0.2886  0.1117
  612loPI   C3B 9791  16.191   9.987   8.735 -0.1055  0.3335 -0.0129
  612loPI   C4B 9792  16.231  10.068   8.249 -0.0798 -0.1934  0.0367
  613loPI    C1 9793   9.424   4.815  10.637  0.0922  0.1781 -0.0904
  613loPI    C2 9794   9.643   4.613  10.904  0.0685  0.2216 -0.0378
  613loPI    C3 9795   9.342   4.845  11.028 -0.2073 -0.0803 -0.1296
  613loPI   PO4 9796   9.490   4.560  10.418  0.2461  0.0037 -0.2545
  613loPI   GL1 9797   9.743   4.537  10.146  0.0540  0.0197 -0.0985
  613loPI   GL2 9798  10.129   4.594  10.098 -0.1307 -0.1507 -0.1685
  613loPI   C1A 9799   9.615   4.631   9.795 -0.0999 -0.3073  0.0662
  613loPI   C2A 9800   9.591   4.635   9.397  0.0653 -0.0238  0.4121
  613loPI   C3A 9801   9.650   4.677   8.957  0.2825  0.1227 -0.0250
  613loPI   C4A 9802   9.604   4.702   8.537 -0.1878  0.2921  0.0041
  613loPI   C5A 9803   9.793   4.594   8.041  0.2612  0.4162  0.0042
  613loPI   C6A 9804  10.000   4.886   7.925  0.0034 -0.2306  0.1316
  613loPI   C1B 9805  10.033   4.308   9.717 -0.0304  0.1927 -0.0956
  613loPI   C2B 9806   9.808   4.141   9.392 -0.2141  0.3013  0.1129
  613loPI   C3B 9807   9.768   4.144   8.888 -0.4517 -0.1269 -0.0317
  613loPI   C4B 9808   9.848   4.246   8.440  0.1252  0.0345 -0.2311
  614loPI    C1 9809  12.710  15.304   9.664 -0.0447  0.0896 -0.0482
  614loPI    C2 9810  13.109  15.318   9.631 -0.0404 -0.0923 -0.0847
  614loPI    C3 9811  12.940  15.198   9.974 -0.0645  0.0083 -0.0611
  614loPI   PO4 9812  12.647  15.237   9.400  0.3283 -0.0497  0.1415
  614loPI   GL1 9813  12.480  15.523   9.135  0.4370  0.0550  0.1743
  614loPI   GL2 9814  12.231  15.686   9.050  0.0273 -0.2369  0.1994
  614loPI   C1A 9815  12.801  15.566   8.784  0.0238  0.2812  0.2072
  614loPI   C2A 9816  12.912  15.587   8.449 -0.0992 -0.0638 -0.0012
  614loPI   C3A 9817  13.071  15.441   8.161 -0.4750  0.0955  0.0729
  614loPI   C4A 9818  13.207  15.153   7.833 -0.0153 -0.0053  0.1463
  614loPI   C5A 9819  13.401  14.955   7.464  0.0219  0.0389 -0.1551
  614loPI   C6A 9820  13.492  14.787   7.120 -0.3735 -0.1334  0.3031
  614loPI   C1B 9821  12.403  15.696   8.596  0.1499 -0.2678  0.0832
  614loPI   C2B 9822  12.385  15.413   8.241  0.2082 -0.0482 -0.1772
  614loPI   C3B 9823  12.170  15.325   7.849  0.1150  0.1704 -0.3390
  614loPI   C4B 9824  12.231  15.424   7.449 -0.0266  0.1072  0.1710
  615loPI    C1 9825   7.818  16.673  10.405 -0.0421  0.0885  0.0469
  615loPI    C2 9826   7.525  16.942  10.442  0.0233  0.1315  0.2675
  615loPI    C3 9827   7.705  16.796  10.768  0.0087 -0.1587  0.1486
  615loPI   PO4 9828   7.761  16.524  10.188  0.1693 -0.3783  0.4363
  615loPI   GL1 9829   7.733  16.548   9.712  0.0983 -0.0352 -0.4233
  615loPI   GL2 9830   7.879  16.825   9.686  0.1627  0.0201  0.2286
  615loPI   C1A 9831   7.992  16.340   9.449 -0.0373  0.1731 -0.4531
  615loPI   C2A 9832   7.886  16.237   9.171 -0.1611  0.0021 -0.3255
  615loPI   C3A 9833   7.802  16.344   8.809  0.0054 -0.0534 -0.1193
  615loPI   C4A 9834   8.023  16.385   8.393 -0.0452 -0.0245  0.2570
  615loPI   C5A 9835   7.898  16.611   8.054  0.0507  0.3555 -0.1281
  615loPI   C6A 9836   7.565  16.806   7.773 -0.3306 -0.0701 -0.0033
  615loPI   C1B 9837   7.797  16.764   9.276  0.0139 -0.0641  0.0025
  615loPI   C2B 9838   7.900  16.963   8.929  0.1981 -0.1759 -0.3329
  615loPI   C3B 9839   7.675  16.727   8.513  0.1412  0.1916 -0.0969
  615loPI   C4B 9840   7.356  16.576   8.322 -0.0308  0.1660 -0.1589
  616loPI    C1 9841   4.958  11.092  10.580 -0.0155  0.1805 -0.0669
  616loPI    C2 9842   5.310  10.903  10.609  0.0271  0.2805  0.0769
  616loPI    C3 9843   4.998  10.778  10.825 -0.0758  0.0827 -0.1815
  616loPI   PO4 9844   4.876  11.108  10.373 -0.1850  0.0375  0.2049
  616loPI   GL1 9845   4.761  11.261  10.057 -0.1142 -0.1240 -0.0377
  616loPI   GL2 9846   5.032  11.088   9.849  0.1270 -0.0723  0.2684
  616loPI   C1A 9847   4.561  11.204   9.611 -0.1354  0.1716 -0.1799
  616loPI   C2A 9848   4.530  11.185   9.122 -0.1891  0.1835 -0.0062
  616loPI   C3A 9849   4.486  11.179   8.661 -0.0820 -0.3477  0.0152
  616loPI   C4A 9850   4.610  11.207   8.312 -0.1800 -0.0132 -0.3652
  616loPI   C5A 9851   4.671  11.225   7.904  0.1047 -0.1187 -0.0573
  616loPI   C6A 9852   4.668  11.382   7.530 -0.1363 -0.1862 -0.0886
  616loPI   C1B 9853   4.896  10.864   9.460  0.2158  0.4380 -0.2028
  616loPI   C2B 9854   4.918  10.828   9.030 -0.1132 -0.1475 -0.1393
  616loPI   C3B 9855   5.005  10.889   8.563 -0.0262  0.1414  0.0564
  616loPI   C4B 9856   5.002  10.821   8.181 -0.2546 -0.0431  0.1439
  617loPI    C1 9857  10.544  12.034  10.402  0.2286 -0.0458  0.0206
  617loPI    C2 9858  10.594  12.327  10.669  0.0819  0.0158 -0.0185
  617loPI    C3 9859  10.230  12.174  10.606  0.1263 -0.0417 -0.1378
  617loPI   PO4 9860  10.609  12.167  10.112  0.0295  0.4628 -0.1557
  617loPI   GL1 9861  10.413  12.243   9.667  0.2258  0.1781 -0.2093
  617loPI   GL2 9862  10.226  12.518   9.460 -0.1564 -0.1394 -0.4102
  617loPI   C1A 9863  10.316  11.905   9.307  0.3485 -0.0494 -0.0631
  617loPI   C2A 9864  10.161  11.748   8.829  0.1836 -0.3161 -0.0094
  617loPI   C3A 9865   9.916  11.687   8.379 -0.2056  0.0342 -0.3216
  617loPI   C4A 9866  10.117  11.593   7.992 -0.3063  0.1743 -0.2764
  617loPI   C5A 9867  10.423  11.927   7.737  0.2997 -0.2450  0.0471
  617loPI   C6A 9868  10.711  12.096   7.958 -0.1473 -0.2313  0.2357
  617loPI   C1B 9869   9.882  12.777   9.209 -0.0822  0.2968 -0.0844
  617loPI   C2B 9870   9.564  12.807   8.856  0.0513 -0.1866  0.0839
  617loPI   C3B 9871   9.415  12.855   8.480  0.1789 -0.0463 -0.0663
  617loPI   C4B 9872   9.505  12.931   8.039 -0.1870 -0.0561  0.1320
  618loPI    C1 9873   2.013  16.865   9.699  0.0622 -0.2612  0.0332
  618loPI    C2 9874   2.110  16.666  10.032  0.0435 -0.1609  0.0991
  618loPI    C3 9875   2.381  16.899   9.852  0.0572 -0.2245  0.0369
  618loPI   PO4 9876   1.931  16.777   9.558  0.1233  0.0830 -0.0878
  618loPI   GL1 9877   1.778  16.796   9.220  0.3124 -0.1150  0.0576
  618loPI   GL2 9878   1.831  17.116   9.197 -0.3246 -0.0665 -0.0900
  618loPI   C1A 9879   1.938  16.626   8.932 -0.0880  0.0208 -0.2759
  618loPI   C2A 9880   1.929  16.624   8.552 -0.3580  0.0252 -0.2121
  618loPI   C3A 9881   1.929  16.335   8.146  0.1432  0.1984 -0.1661
  618loPI   C4A 9882   1.909  16.040   7.759  0.1901 -0.2394  0.0066
  618loPI   C5A 9883   2.229  15.766   7.631 -0.1161 -0.1935 -0.2183
  618loPI   C6A 9884   2.594  15.885   7.690 -0.0686 -0.0373 -0.0675
  618loPI   C1B 9885   1.664  17.039   8.819 -0.2681 -0.0064  0.0669
  618loPI   C2B 9886   1.663  17.006   8.414  0.1081 -0.1096  0.0391
  618loPI   C3B 9887   1.476  16.706   8.134 -0.1312 -0.1041  0.1104
  618loPI   C4B 9888   1.522  16.521   7.655  0.3409  0.0980  0.0393
  619loPI    C1 9889   1.749   4.861  10.788 -0.2182  0.1572 -0.1621
  619loPI    C2 9890   1.488   5.155  10.864 -0.2570  0.0053  0.3275
  619loPI    C3 9891   1.789   5.084  11.118 -0.0031 -0.1151 -0.0001
  619loPI   PO4 9892   1.857   4.823  10.411 -0.2261 -0.3395  0.1412
  619loPI   GL1 9893   1.779   4.940   9.905  0.0603  0.2642 -0.1400
  619loPI   GL2 9894   2.003   5.169   9.817 -0.1499 -0.1414 -0.1311
  619loPI   C1A 9895   1.910   4.630   9.544 -0.0629 -0.1435  0.1098
  619loPI   C2A 9896   1.963   4.654   9.116 -0.0802 -0.0368 -0.0221
  619loPI   C3A 9897   1.944   4.437   8.697  0.1107 -0.1606  0.0143
  619loPI   C4A 9898   1.818   4.348   8.340  0.2207 -0.0498 -0.1854
  619loPI   C5A 9899   1.899   4.262   8.041  0.0284 -0.4778  0.0105
  619loPI   C6A 9900   1.957   4.250   7.642 -0.0930 -0.3249 -0.1806
  619loPI   C1B 9901   2.068   5.148   9.326 -0.5253  0.0073 -0.3114
  619loPI   C2B 9902   2.082   5.120   8.889  0.3067 -0.0091 -0.0806
  619loPI   C3B 9903   2.257   5.286   8.457  0.0926  0.2043  0.2082
  619loPI   C4B 9904   2.242   5.372   8.004  0.0924  0.0625 -0.0088
  620loPI    C1 9905  15.114   2.179  10.870 -0.0323 -0.1464 -0.0867
  620loPI    C2 9906  15.483   2.253  11.006 -0.1058  0.0175  0.0266
  620loPI    C3 9907  15.189   2.164  11.262 -0.1182 -0.2388 -0.0736
  620loPI   PO4 9908  15.121   2.448  10.616 -0.1159  0.0213 -0.1515
  620loPI   GL1 9909  15.246   2.460  10.169 -0.1946 -0.0453 -0.1281
  620loPI   GL2 9910  15.198   2.748  10.161 -0.0551  0.1028  0.0728
  620loPI   C1A 9911  15.318   2.578   9.720  0.1678  0.2417 -0.0036
  620loPI   C2A 9912  15.248   2.603   9.294  0.0400  0.3255  0.1603
  620loPI   C3A 9913  15.312   2.626   8.854  0.0976  0.1842 -0.1025
  620loPI   C4A 9914  15.211   2.615   8.473 -0.1149 -0.1920  0.0602
  620loPI   C5A 9915  15.272   2.838   8.125 -0.0654 -0.1525  0.0865
  620loPI   C6A 9916  15.365   2.865   7.700  0.1012  0.0626 -0.1147
  620loPI   C1B 9917  15.083   2.967   9.907 -0.0302 -0.0332 -0.0673
  620loPI   C2B 9918  15.187   3.050   9.473  0.0027 -0.2391  0.1301
  620loPI   C3B 9919  15.173   3.060   9.070  0.1656  0.0466  0.1493
  620loPI   C4B 9920  15.149   3.078   8.597  0.0157  0.1732  0.1774
  621loPI    C1 9921  12.098  16.349  10.267 -0.0275  0.0759  0.0385
  621loPI    C2 9922  12.201  16.584  10.574 -0.2292 -0.1588  0.2904
  621loPI    C3 9923  11.837  16.616  10.411 -0.1528 -0.0943  0.1295
  621loPI   PO4 9924  12.409  16.317  10.158 -0.1292  0.0724 -0.2190
  621loPI   GL1 9925  12.661  16.379   9.742 -0.0919 -0.0586  0.1612
  621loPI   GL2 9926  12.621  16.357   9.495  0.0724  0.1930  0.0255
  621loPI   C1A 9927  12.684  16.796   9.508 -0.1794  0.1905 -0.0632
  621loPI   C2A 9928  12.581  17.025   9.179 -0.1712  0.1397  0.0768
  621loPI   C3A 9929  12.567  17.063   8.731  0.1857 -0.2225  0.0603
  621loPI   C4A 9930  12.616  17.192   8.295  0.4083  0.2590 -0.0510
  621loPI   C5A 9931  12.824  17.196   7.912  0.0996 -0.1007  0.0191
  621loPI   C6A 9932  13.127  17.317   7.672  0.2824 -0.1553  0.2509
  621loPI   C1B 9933  12.682  16.526   9.044 -0.4521  0.1467  0.1572
  621loPI   C2B 9934  12.699  16.586   8.572  0.3203  0.3674  0.0727
  621loPI   C3B 9935  12.710  16.661   8.110  0.3052  0.0649 -0.0250
  621loPI   C4B 9936  12.756  16.756   7.600  0.1876  0.0017  0.3012
  622loPI    C1 9937   3.746   8.836  10.656 -0.0330  0.0930  0.4324
  622loPI    C2 9938   3.441   8.626  10.505  0.1997  0.0558 -0.0024
  622loPI    C3 9939   3.635   8.492  10.828  0.1910 -0.2749 -0.1301
  622loPI   PO4 9940   3.869   8.886  10.459 -0.2077  0.0953 -0.0546
  622loPI   GL1 9941   3.996   8.791  10.090 -0.2643 -0.0319  0.0842
  622loPI   GL2 9942   3.787   8.964   9.981 -0.0904  0.2239 -0.0092
  622loPI   C1A 9943   4.100   8.665   9.753  0.5617 -0.0250  0.0755
  622loPI   C2A 9944   4.018   8.714   9.202  0.1475 -0.1875  0.1443
  622loPI   C3A 9945   4.064   8.651   8.792 -0.1484  0.0652  0.3576
  622loPI   C4A 9946   4.027   8.703   8.463  0.2694  0.1834 -0.0795
  622loPI   C5A 9947   3.997   8.705   8.110  0.2516  0.2344 -0.0291
  622loPI   C6A 9948   4.119   8.964   7.799 -0.0570  0.2211 -0.2600
  622loPI   C1B 9949   3.728   8.970   9.528  0.4710 -0.1948  0.1351
  622loPI   C2B 9950   3.623   8.941   9.072 -0.1170  0.0472  0.2159
  622loPI   C3B 9951   3.601   9.066   8.648  0.3411 -0.2766  0.1088
  622loPI   C4B 9952   3.654   9.076   8.205 -0.0093 -0.0490  0.1563
  623loPI    C1 9953   2.992  18.650  10.266 -0.1264 -0.0787 -0.0096
  623loPI    C2 9954   2.831  18.496  10.598  0.0548  0.2882  0.2553
  623loPI    C3 9955   3.217  18.435  10.517 -0.0443 -0.0036 -0.0186
  623loPI   PO4 9956   2.925  18.602  10.094  0.0836  0.0971  0.2444
  623loPI   GL1 9957   2.960  18.537   9.685  0.0902 -0.1699 -0.5195
  623loPI   GL2 9958   3.273  18.717   9.696 -0.3283  0.1955  0.1144
  623loPI   C1A 9959   3.126  18.467   9.304 -0.1959  0.0176  0.0861
  623loPI   C2A 9960   3.219  18.511   8.856 -0.1263  0.1549 -0.0902
  623loPI   C3A 9961   3.359  18.565   8.424 -0.2918  0.0307  0.2172
  623loPI   C4A 9962   3.379  18.524   7.963 -0.1186 -0.0617 -0.0117
  623loPI   C5A 9963   3.624  18.438   7.595 -0.0307 -0.1210 -0.0692
  623loPI   C6A 9964   3.865  18.420   7.231  0.3320  0.1339 -0.0313
  623loPI   C1B 9965   3.597  18.764   9.366 -0.0532  0.0444 -0.0835
  623loPI   C2B 9966   3.697  18.774   8.885  0.1533 -0.0505  0.0109
  623loPI   C3B 9967   3.862  18.845   8.479  0.0271 -0.1436 -0.1576
  623loPI   C4B 9968   3.771  18.870   8.039 -0.0279 -0.0223  0.1504
  624loPI    C1 9969   6.667  12.182  10.509 -0.0920  0.0715  0.2845
  624loPI    C2 9970   6.818  11.821  10.428  0.0464  0.1873  0.0156
  624loPI    C3 9971   6.903  11.999  10.776 -0.0317 -0.0424  0.1543
  624loPI   PO4 9972   6.355  12.186  10.470  0.0320  0.1822 -0.4220
  624loPI   GL1 9973   6.145  12.188   9.992  0.0676  0.0499 -0.1994
  624loPI   GL2 9974   6.269  11.988   9.802  0.2252 -0.2657  0.0578
  624loPI   C1A 9975   5.892  12.117   9.550  0.1435 -0.1004 -0.1034
  624loPI   C2A 9976   6.095  12.304   9.163 -0.3105  0.3480 -0.1884
  624loPI   C3A 9977   6.093  12.315   8.672  0.1028 -0.1252 -0.3052
  624loPI   C4A 9978   6.257  12.169   8.264  0.1684 -0.0894  0.0559
  624loPI   C5A 9979   6.468  12.238   8.006 -0.1351 -0.5465  0.2205
  624loPI   C6A 9980   6.656  11.984   7.619  0.0554  0.4819  0.0249
  624loPI   C1B 9981   6.494  12.031   9.435 -0.2420 -0.0153 -0.2999
  624loPI   C2B 9982   6.436  12.025   8.983  0.0203  0.0983  0.0570
  624loPI   C3B 9983   6.577  11.977   8.634 -0.3245 -0.0743  0.2433
  624loPI   C4B 9984   6.690  11.852   8.210 -0.2828 -0.4422  0.0041
  625loPI    C1 9985   3.292   3.020  10.736  0.1348  0.0395  0.1635
  625loPI    C2 9986   2.986   3.137  10.965 -0.0355  0.0898 -0.0864
  625loPI    C3 9987   2.939   2.835  10.707  0.1942 -0.0560  0.0389
  625loPI   PO4 9988   3.443   3.333  10.540  0.0991  0.4975 -0.1510
  625loPI   GL1 9989   3.454   3.203  10.103  0.4484  0.0273  0.3033
  625loPI   GL2 9990   3.802   3.084  10.144  0.3647 -0.0083  0.2326
  625loPI   C1A 9991   3.257   2.914   9.729  0.3931  0.2467 -0.0970
  625loPI   C2A 9992   3.224   3.053   9.392  0.0321 -0.0919  0.1344
  625loPI   C3A 9993   3.225   3.039   8.939 -0.2631  0.0291  0.1174
  625loPI   C4A 9994   3.180   3.036   8.437  0.3369  0.1570  0.1120
  625loPI   C5A 9995   3.112   3.082   7.962 -0.1138 -0.0217  0.1852
  625loPI   C6A 9996   2.714   2.984   7.812  0.1180  0.0781  0.0018
  625loPI   C1B 9997   3.919   3.175   9.721  0.0549  0.1388 -0.1248
  625loPI   C2B 9998   4.093   3.110   9.324  0.0128 -0.1941 -0.0735
  625loPI   C3B 9999   4.047   3.083   8.897 -0.2232 -0.2847 -0.1109
  625loPI   C4B10000   4.026   3.167   8.459 -0.1135 -0.4119 -0.0578
  626loPI    C110001  18.135   1.819  10.224 -0.1710 -0.1258  0.0702
  626loPI    C210002  17.917   2.152  10.263  0.0947  0.0932 -0.2551
  626loPI    C310003  18.314   2.177  10.216  0.1311 -0.2768 -0.1738
  626loPI   PO410004  18.007   1.607  10.089 -0.1412  0.1354  0.2518
  626loPI   GL110005  17.800   1.604   9.726 -0.1428 -0.2376 -0.1449
  626loPI   GL210006  17.741   1.378   9.502  0.2133 -0.1172  0.0042
  626loPI   C1A10007  17.710   1.827   9.304 -0.2161  0.1411 -0.0263
  626loPI   C2A10008  17.614   1.857   8.892  0.1509 -0.0546  0.0620
  626loPI   C3A10009  17.587   2.079   8.577  0.1552  0.1564 -0.0340
  626loPI   C4A10010  17.506   2.237   8.153  0.0118  0.1158 -0.2426
  626loPI   C5A10011  17.855   2.450   7.915 -0.1565 -0.3019 -0.1875
  626loPI   C6A10012  18.287   2.457   7.759  0.1460  0.2927 -0.0637
  626loPI   C1B10013  17.788   1.384   9.222  0.0664  0.1123  0.0957
  626loPI   C2B10014  17.934   1.380   8.833  0.1970 -0.4073 -0.0047
  626loPI   C3B10015  18.106   1.347   8.461 -0.2827  0.1258  0.1220
  626loPI   C4B10016  18.219   1.273   8.070  0.0783  0.1548 -0.1502
  627loPI    C110017   4.550   9.051  10.491  0.0969  0.1626  0.0892
  627loPI    C210018   4.863   9.260  10.354  0.1659 -0.0092 -0.0184
  627loPI    C310019   4.733   9.315  10.729  0.0124  0.4232 -0.1294
  627loPI   PO410020   4.351   9.144  10.265  0.1652  0.2517  0.0529
  627loPI   GL110021   4.178   9.307   9.881 -0.1229  0.0401  0.1512
  627loPI   GL210022   4.299   9.608   9.780 -0.1023  0.0147  0.1205
  627loPI   C1A10023   4.211   9.122   9.512 -0.2561 -0.3141  0.1572
  627loPI   C2A10024   4.091   9.186   9.091 -0.2020  0.1907 -0.0977
  627loPI   C3A10025   4.049   9.190   8.650  0.0457 -0.1717  0.0000
  627loPI   C4A10026   4.142   9.207   8.262  0.2146  0.2199  0.2374
  627loPI   C5A10027   4.325   9.397   7.950 -0.0761 -0.0566  0.0187
  627loPI   C6A10028   4.511   9.512   7.571  0.1542  0.4188  0.0374
  627loPI   C1B10029   4.263   9.625   9.327 -0.2237 -0.0683 -0.3389
  627loPI   C2B10030   4.172   9.693   8.932  0.2543  0.0801 -0.0588
  627loPI   C3B10031   4.256   9.691   8.498  0.0839 -0.1986  0.0974
  627loPI   C4B10032   4.104   9.830   8.145  0.1500 -0.1999 -0.3389
  628loPI    C110033  16.330   8.263   9.905  0.0512 -0.3370  0.2101
  628loPI    C210034  16.153   8.538  10.136 -0.1880 -0.3589  0.0561
  628loPI    C310035  16.325   8.218  10.303  0.0800 -0.1264  0.2354
  628loPI   PO410036  16.172   8.107   9.684 -0.2334 -0.0536  0.2291
  628loPI   GL110037  15.980   8.025   9.316 -0.2774  0.0158 -0.0040
  628loPI   GL210038  15.717   8.097   9.492  0.1721 -0.0351 -0.0677
  628loPI   C1A10039  16.223   7.777   9.056  0.1129  0.1133 -0.0110
  628loPI   C2A10040  16.448   7.473   8.731 -0.0735  0.0239  0.0077
  628loPI   C3A10041  16.710   7.379   8.391  0.1240  0.1547  0.1003
  628loPI   C4A10042  16.974   7.067   8.291 -0.0816  0.1963 -0.1975
  628loPI   C5A10043  17.401   6.816   8.195 -0.4157  0.0418  0.3497
  628loPI   C6A10044  17.595   6.795   7.828 -0.0969 -0.1687  0.0929
  628loPI   C1B10045  15.595   8.325   9.109 -0.0128  0.1103  0.2927
  628loPI   C2B10046  15.430   8.260   8.701 -0.1178  0.0914 -0.3675
  628loPI   C3B10047  15.615   8.235   8.292 -0.0523  0.0952 -0.3415
  628loPI   C4B10048  15.718   8.376   7.938 -0.0968  0.0955  0.1118
  629loPI    C110049  11.063  16.660  10.141  0.0656 -0.2343 -0.0485
  629loPI    C210050  11.197  16.503  10.484  0.1356 -0.1865 -0.0537
  629loPI    C310051  10.811  16.599  10.446  0.1652 -0.0100  0.0814
  629loPI   PO410052  11.082  16.506   9.948 -0.1244 -0.2857 -0.3688
  629loPI   GL110053  10.870  16.427   9.633  0.1406 -0.1176 -0.1857
  629loPI   GL210054  10.886  16.210   9.420  0.2516  0.0815  0.1742
  629loPI   C1A10055  10.833  16.688   9.338 -0.0612  0.3105  0.3013
  629loPI   C2A10056  10.639  16.854   8.934 -0.1359  0.2623 -0.1411
  629loPI   C3A10057  10.768  17.080   8.637 -0.0079 -0.2521 -0.1306
  629loPI   C4A10058  10.749  17.170   8.304  0.0969 -0.0717  0.1109
  629loPI   C5A10059  10.758  17.220   7.884 -0.2791  0.2185  0.0426
  629loPI   C6A10060  10.566  17.533   7.484  0.2119  0.0971 -0.0697
  629loPI   C1B10061  11.034  15.923   9.049 -0.0505 -0.0349  0.1410
  629loPI   C2B10062  11.382  15.851   8.716 -0.0757  0.1828 -0.1291
  629loPI   C3B10063  11.458  15.980   8.278  0.0633 -0.0245 -0.1759
  629loPI   C4B10064  11.669  16.146   7.971  0.0524 -0.1558 -0.0626
  630loPI    C110065   0.543   5.086  10.103  0.2303 -0.0888 -0.0818
  630loPI    C210066   0.371   4.744  10.219 -0.0749  0.0275 -0.1808
  630loPI    C310067   0.534   4.988  10.491 -0.4132  0.0993 -0.0379
  630loPI   PO410068   0.724   4.974   9.854 -0.3387  0.2813 -0.0097
  630loPI   GL110069   0.844   4.877   9.508  0.1819 -0.1426 -0.2471
  630loPI   GL210070   0.817   4.589   9.340  0.2083 -0.1292 -0.1605
  630loPI   C1A10071   1.141   4.937   9.145 -0.2652  0.0417  0.0184
  630loPI   C2A10072   1.158   4.888   8.733  0.0107  0.0628 -0.0331
  630loPI   C3A10073   1.004   4.770   8.360  0.0797 -0.2332 -0.0754
  630loPI   C4A10074   0.627   4.965   8.104 -0.0968  0.0172 -0.2443
  630loPI   C5A10075   0.703   5.293   7.817 -0.0716  0.1404  0.2579
  630loPI   C6A10076   0.821   5.430   7.487  0.1555 -0.0532 -0.0495
  630loPI   C1B10077   1.169   4.127   9.403  0.1302  0.3447  0.1669
  630loPI   C2B10078   1.519   4.061   9.289  0.1976  0.4845  0.1213
  630loPI   C3B10079   1.690   3.961   9.022  0.1531  0.0991  0.3502
  630loPI   C4B10080   1.584   4.029   8.628  0.1603  0.0302 -0.2140
  631loPI    C110081   6.662   3.806  10.365 -0.0970 -0.0449  0.0224
  631loPI    C210082   6.584   3.827  10.756  0.1128  0.1825  0.0540
  631loPI    C310083   6.960   3.869  10.624  0.0945 -0.2357 -0.1469
  631loPI   PO410084   6.727   3.543  10.158  0.0147 -0.2326 -0.1568
  631loPI   GL110085   6.683   3.351   9.870  0.0240 -0.0383 -0.0463
  631loPI   GL210086   6.351   3.095   9.867  0.3510  0.0760  0.1939
  631loPI   C1A10087   6.696   3.157   9.446  0.2125  0.3711  0.0230
  631loPI   C2A10088   6.783   3.133   9.065  0.2658 -0.3021  0.0669
  631loPI   C3A10089   6.805   3.267   8.755 -0.2001  0.0476 -0.0748
  631loPI   C4A10090   6.762   3.237   8.392 -0.2737  0.2099  0.2189
  631loPI   C5A10091   6.719   3.213   7.961 -0.1171 -0.1699  0.0171
  631loPI   C6A10092   6.449   3.273   7.700  0.0694 -0.0329  0.1374
  631loPI   C1B10093   6.316   3.411   9.537  0.0993 -0.1519  0.1243
  631loPI   C2B10094   6.358   3.390   9.021 -0.0714  0.0960  0.0476
  631loPI   C3B10095   6.263   3.285   8.602 -0.0129 -0.0667 -0.1460
  631loPI   C4B10096   6.332   3.430   8.258  0.3456 -0.2786  0.2500
  632loPI    C110097   0.225  12.333  10.317  0.1635  0.0420  0.0036
  632loPI    C210098   0.525  12.546  10.475  0.2910 -0.1039 -0.0394
  632loPI    C310099   0.333  12.275  10.698  0.0671  0.1182  0.0430
  632loPI   PO410100   0.272  12.331  10.016  0.0487  0.2487 -0.1123
  632loPI   GL110101   0.079  12.329   9.704 -0.1540  0.3209  0.1691
  632loPI   GL210102  -0.117  12.019   9.581 -0.1781  0.1280 -0.1510
  632loPI   C1A10103   0.150  12.481   9.287  0.1418 -0.0731 -0.1079
  632loPI   C2A10104   0.138  12.454   8.897 -0.2928  0.1081 -0.0197
  632loPI   C3A10105   0.072  12.422   8.515  0.2423 -0.1069  0.0301
  632loPI   C4A10106   0.043  12.365   8.058 -0.0716  0.0235  0.1558
  632loPI   C5A10107   0.075  12.450   7.602 -0.2863  0.1061 -0.0406
  632loPI   C6A10108   0.262  12.615   7.249  0.0680  0.1560  0.1339
  632loPI   C1B10109  -0.004  11.982   9.143 -0.0008  0.0910 -0.2418
  632loPI   C2B10110  -0.027  11.901   8.737 -0.3987 -0.1299  0.0033
  632loPI   C3B10111  -0.005  11.934   8.311  0.0660  0.2754  0.0965
  632loPI   C4B10112   0.093  11.936   7.882 -0.1136  0.3277  0.0711
  633loPI    C110113   1.139  13.559  10.305 -0.0798  0.2449 -0.0606
  633loPI    C210114   0.858  13.274  10.302  0.0793  0.0868 -0.1112
  633loPI    C310115   1.093  13.320  10.623  0.1707  0.0447 -0.1717
  633loPI   PO410116   1.313  13.486  10.035 -0.1793  0.1323 -0.1294
  633loPI   GL110117   1.231  13.327   9.666  0.1297 -0.0028 -0.0568
  633loPI   GL210118   0.909  13.389   9.797  0.0388  0.2694  0.4453
  633loPI   C1A10119   1.136  13.296   9.284 -0.1621 -0.3567  0.2728
  633loPI   C2A10120   1.158  13.265   8.886  0.2505 -0.2275 -0.1558
  633loPI   C3A10121   1.141  13.276   8.423  0.1763  0.2757 -0.0107
  633loPI   C4A10122   1.159  13.308   7.939  0.1149 -0.1943  0.0832
  633loPI   C5A10123   1.326  13.395   7.496 -0.3063  0.0761  0.2107
  633loPI   C6A10124   1.419  13.496   7.054 -0.0426  0.5001 -0.1873
  633loPI   C1B10125   0.729  13.578   9.425  0.1930 -0.2268 -0.2404
  633loPI   C2B10126   0.777  13.614   8.980  0.0624 -0.0593  0.1143
  633loPI   C3B10127   0.725  13.593   8.465  0.0072  0.1766  0.0878
  633loPI   C4B10128   0.775  13.672   8.044  0.1407  0.0549 -0.1119
  634loPI    C110129  10.324   0.679  10.706 -0.0122  0.0169 -0.0121
  634loPI    C210130  10.280   0.827  11.075 -0.3724  0.0895 -0.0803
  634loPI    C310131  10.282   0.431  11.017  0.0636  0.0689  0.0400
  634loPI   PO410132  10.470   0.868  10.630 -0.1699 -0.0328  0.1700
  634loPI   GL110133  10.623   1.009  10.270  0.0018  0.0440 -0.1424
  634loPI   GL210134  10.841   0.976   9.959  0.0060 -0.0228 -0.0202
  634loPI   C1A10135  10.387   1.250   9.929 -0.3609  0.0197 -0.3557
  634loPI   C2A10136  10.480   1.128   9.520 -0.0152  0.1580  0.1625
  634loPI   C3A10137  10.514   1.129   9.114 -0.0419  0.0079  0.1036
  634loPI   C4A10138  10.544   1.176   8.588 -0.3048  0.0936 -0.4109
  634loPI   C5A10139  10.630   1.197   8.169 -0.2471 -0.0724  0.0351
  634loPI   C6A10140  10.584   1.111   7.780  0.1927  0.0551 -0.0006
  634loPI   C1B10141  11.008   0.969   9.486 -0.1895 -0.1706  0.3112
  634loPI   C2B10142  10.989   0.963   9.015 -0.2362  0.1252 -0.0525
  634loPI   C3B10143  11.039   1.114   8.623 -0.0661 -0.2238  0.1654
  634loPI   C4B10144  11.136   1.059   8.202  0.3373  0.1179  0.2150
  635loPI    C110145  13.872   3.018  10.472 -0.1658  0.1283  0.0300
  635loPI    C210146  14.046   2.955  10.827 -0.0631  0.0152 -0.0395
  635loPI    C310147  13.724   3.190  10.801 -0.1806 -0.1214  0.1566
  635loPI   PO410148  13.731   2.819  10.332 -0.1184 -0.1222 -0.1244
  635loPI   GL110149  13.595   2.755   9.949 -0.2624  0.2110 -0.1230
  635loPI   GL210150  13.436   3.070   9.890 -0.1694  0.0610  0.0854
  635loPI   C1A10151  13.431   2.653   9.495  0.1788 -0.1745 -0.0009
  635loPI   C2A10152  13.417   2.654   8.992  0.2765 -0.0935  0.0140
  635loPI   C3A10153  13.373   2.713   8.595 -0.0572  0.0394  0.1214
  635loPI   C4A10154  13.291   2.689   8.300 -0.0765 -0.1046 -0.0725
  635loPI   C5A10155  13.411   2.703   7.796  0.0779  0.2373 -0.1548
  635loPI   C6A10156  13.134   2.756   7.544  0.0152  0.1327  0.0227
  635loPI   C1B10157  13.239   3.100   9.515 -0.1768  0.0431 -0.0622
  635loPI   C2B10158  13.384   3.198   9.131 -0.3711  0.0082 -0.6337
  635loPI   C3B10159  13.311   3.208   8.708  0.3208 -0.3339  0.1291
  635loPI   C4B10160  13.271   3.328   8.310 -0.1958  0.1378 -0.2030
  636loPI    C110161   9.186   5.332  10.754 -0.2399 -0.0068  0.0471
  636loPI    C210162   9.389   5.478  11.066 -0.2070 -0.2524  0.1430
  636loPI    C310163   9.020   5.331  11.118 -0.3761  0.1034 -0.0135
  636loPI   PO410164   9.210   5.527  10.538 -0.3585 -0.0186 -0.0825
  636loPI   GL110165   9.147   5.527  10.189 -0.1771  0.0660  0.3504
  636loPI   GL210166   8.931   5.614  10.101  0.2720  0.1286 -0.0633
  636loPI   C1A10167   9.114   5.550   9.626 -0.1251  0.2744  0.3909
  636loPI   C2A10168   9.313   5.673   9.241  0.1892  0.0690 -0.1227
  636loPI   C3A10169   9.412   5.651   8.760 -0.0300 -0.0722  0.1544
  636loPI   C4A10170   9.432   5.641   8.353 -0.1403  0.0585  0.0145
  636loPI   C5A10171   9.168   5.847   8.079  0.0215  0.1446  0.0769
  636loPI   C6A10172   8.971   5.601   7.754  0.0842 -0.1888  0.0349
  636loPI   C1B10173   8.636   5.562   9.793  0.0349  0.0586 -0.0152
  636loPI   C2B10174   8.506   5.540   9.385  0.3098 -0.1143 -0.3629
  636loPI   C3B10175   8.530   5.373   8.925  0.0515 -0.2248  0.1399
  636loPI   C4B10176   8.544   5.408   8.489 -0.0341  0.2721  0.0334
  637loPI    C110177   1.512  15.995  10.058  0.3785 -0.0575  0.1353
  637loPI    C210178   1.389  16.022  10.437 -0.2978 -0.1010 -0.0693
  637loPI    C310179   1.676  15.762  10.339 -0.1412 -0.1159  0.4024
  637loPI   PO410180   1.388  16.000   9.916 -0.0926  0.1840 -0.0805
  637loPI   GL110181   1.374  15.835   9.503  0.1635  0.0500 -0.3242
  637loPI   GL210182   1.181  15.933   9.325 -0.0048 -0.2285 -0.2420
  637loPI   C1A10183   1.373  15.526   9.168 -0.2089  0.3383  0.3029
  637loPI   C2A10184   1.579  15.436   8.676 -0.2748 -0.1618 -0.1417
  637loPI   C3A10185   1.553  15.351   8.208 -0.2203  0.1363  0.0496
  637loPI   C4A10186   1.406  15.173   7.813 -0.0219  0.2231 -0.1800
  637loPI   C5A10187   1.245  15.108   7.391 -0.0647 -0.1448  0.2082
  637loPI   C6A10188   1.050  14.895   7.110 -0.0632 -0.0564 -0.1896
  637loPI   C1B10189   1.082  15.805   8.863  0.1353 -0.1474 -0.4308
  637loPI   C2B10190   1.177  15.915   8.403 -0.1331 -0.0487 -0.0536
  637loPI   C3B10191   1.172  15.660   7.929 -0.2260 -0.0223 -0.3954
  637loPI   C4B10192   0.961  15.599   7.519  0.2373  0.0393  0.1055
  638loPI    C110193   8.002   4.311  10.592 -0.0739 -0.1623 -0.0901
  638loPI    C210194   7.779   4.091  10.840 -0.2448 -0.0534 -0.1459
  638loPI    C310195   8.148   4.200  10.947 -0.2679 -0.1202  0.0039
  638loPI   PO410196   7.952   4.158  10.347 -0.0815  0.6183 -0.0835
  638loPI   GL110197   8.199   4.126  10.025  0.1934 -0.2250 -0.2857
  638loPI   GL210198   7.840   4.254   9.875  0.1768 -0.0432 -0.0668
  638loPI   C1A10199   8.367   3.984   9.580 -0.0325 -0.2402  0.0399
  638loPI   C2A10200   8.424   4.019   9.128 -0.0344 -0.0074  0.0433
  638loPI   C3A10201   8.434   4.058   8.686  0.1348  0.1368 -0.0486
  638loPI   C4A10202   8.543   4.051   8.256  0.0308  0.1558  0.3151
  638loPI   C5A10203   8.491   4.409   8.053 -0.1560  0.0661 -0.0958
  638loPI   C6A10204   8.621   4.639   7.710  0.0392  0.1922  0.0784
  638loPI   C1B10205   7.891   4.299   9.363  0.0355  0.1607 -0.2909
  638loPI   C2B10206   7.940   4.202   8.888  0.0190  0.0400  0.3199
  638loPI   C3B10207   7.908   4.093   8.432 -0.1092  0.2803  0.1629
  638loPI   C4B10208   8.051   4.127   7.999 -0.0859  0.1904 -0.0721
  639loPI    C110209  11.606   7.057  10.488  0.0815 -0.0802  0.1167
  639loPI    C210210  11.230   6.920  10.476  0.0554 -0.0118  0.1483
  639loPI    C310211  11.408   6.984  10.828  0.1022 -0.0589  0.1333
  639loPI   PO410212  11.688   6.940  10.231 -0.2773  0.1000 -0.1817
  639loPI   GL110213  11.768   6.926   9.690  0.0754 -0.0802  0.1483
  639loPI   GL210214  11.830   6.590   9.655 -0.2760 -0.1576  0.1182
  639loPI   C1A10215  11.328   6.923   9.710 -0.1505 -0.0834 -0.1946
  639loPI   C2A10216  11.015   7.211   9.499 -0.2430 -0.0418  0.0209
  639loPI   C3A10217  10.867   7.129   9.141 -0.0675  0.3768 -0.0826
  639loPI   C4A10218  10.946   7.168   8.706  0.0838 -0.0770  0.1794
  639loPI   C5A10219  10.862   7.177   8.238  0.1879  0.3437 -0.0422
  639loPI   C6A10220  10.582   7.019   7.903  0.2668 -0.1790 -0.2964
  639loPI   C1B10221  11.866   6.684   9.251  0.0198  0.2668 -0.4747
  639loPI   C2B10222  11.718   6.630   8.900  0.0870 -0.1338 -0.4477
  639loPI   C3B10223  11.423   6.897   8.586  0.1606 -0.2039  0.1651
  639loPI   C4B10224  11.318   7.041   8.091  0.0539  0.2321  0.2056
  640loPI    C110225  17.824   9.655  10.394  0.0591  0.0414 -0.1176
  640loPI    C210226  17.934   9.589  10.773  0.0284  0.1329 -0.0924
  640loPI    C310227  17.550   9.660  10.686 -0.0140 -0.1852 -0.1798
  640loPI   PO410228  18.013   9.503  10.291 -0.1142 -0.2746 -0.0616
  640loPI   GL110229  18.236   9.483   9.831  0.1373  0.2877 -0.0300
  640loPI   GL210230  18.168   9.192   9.843  0.0695 -0.4063  0.2051
  640loPI   C1A10231  18.089   9.630   9.354  0.0227 -0.1480  0.2012
  640loPI   C2A10232  18.058   9.714   8.902 -0.0178  0.0969  0.2649
  640loPI   C3A10233  18.061   9.746   8.486  0.1160  0.1753 -0.1187
  640loPI   C4A10234  17.968   9.438   8.152 -0.3063 -0.0323 -0.1199
  640loPI   C5A10235  17.877   8.938   8.111  0.0951 -0.0696 -0.2498
  640loPI   C6A10236  17.408   8.711   8.265  0.0318 -0.3329 -0.0141
  640loPI   C1B10237  18.046   9.176   9.468  0.2534  0.0094 -0.0341
  640loPI   C2B10238  17.977   9.040   9.003  0.1044  0.1390 -0.1941
  640loPI   C3B10239  17.958   9.228   8.691 -0.0756  0.2038 -0.2272
  640loPI   C4B10240  17.573   9.161   8.391 -0.2670  0.1357 -0.2524
  641loPI    C110241   8.151   8.891   9.911 -0.0884 -0.0688 -0.1309
  641loPI    C210242   8.371   8.761  10.219 -0.2133 -0.1172 -0.0613
  641loPI    C310243   8.432   9.127  10.071 -0.0253 -0.1633 -0.1011
  641loPI   PO410244   8.022   8.692   9.750 -0.2375  0.1778  0.0346
  641loPI   GL110245   8.155   8.504   9.429 -0.4820  0.1514  0.0705
  641loPI   GL210246   8.332   8.831   9.405 -0.0028 -0.1303 -0.0751
  641loPI   C1A10247   8.054   8.249   8.953  0.3006  0.2339 -0.3601
  641loPI   C2A10248   7.943   7.985   8.634 -0.2282 -0.1342  0.1555
  641loPI   C3A10249   8.185   7.744   8.341 -0.0639  0.0129 -0.2758
  641loPI   C4A10250   8.566   7.796   8.159  0.0657 -0.1054  0.0601
  641loPI   C5A10251   8.904   7.615   7.923  0.0054 -0.0455 -0.1345
  641loPI   C6A10252   9.170   7.446   7.639 -0.0103  0.3625  0.1850
  641loPI   C1B10253   8.626   8.727   9.036 -0.2657  0.0862  0.1627
  641loPI   C2B10254   8.416   8.627   8.703  0.2062  0.1295 -0.1948
  641loPI   C3B10255   8.435   8.832   8.332  0.3196 -0.1056  0.0526
  641loPI   C4B10256   8.481   8.769   7.957  0.0613 -0.0057 -0.4555
  642loPI    C110257  15.047  17.855  10.267 -0.1163  0.1903 -0.1541
  642loPI    C210258  15.370  17.928  10.493  0.0666 -0.3371 -0.2308
  642loPI    C310259  15.104  17.651  10.607 -0.1021 -0.2533 -0.4147
  642loPI   PO410260  15.060  17.802  10.092 -0.0708  0.3403  0.2586
  642loPI   GL110261  14.942  17.992   9.678 -0.2417  0.1064 -0.0931
  642loPI   GL210262  14.714  18.213   9.543 -0.0901  0.1793 -0.1414
  642loPI   C1A10263  14.860  17.717   9.361  0.1268 -0.1759  0.0440
  642loPI   C2A10264  14.758  17.672   8.949 -0.0796  0.0308  0.1084
  642loPI   C3A10265  14.774  17.683   8.459 -0.0837  0.0340 -0.1548
  642loPI   C4A10266  14.814  17.818   8.036 -0.0320 -0.1980 -0.2367
  642loPI   C5A10267  14.670  17.982   7.752  0.1387 -0.2284 -0.2006
  642loPI   C6A10268  14.455  18.265   7.313  0.2921 -0.0750 -0.1086
  642loPI   C1B10269  14.610  18.148   9.191 -0.3842 -0.1020 -0.1079
  642loPI   C2B10270  14.575  18.228   8.790  0.3288  0.1761 -0.0478
  642loPI   C3B10271  14.663  18.247   8.412 -0.5249  0.0791 -0.0558
  642loPI   C4B10272  14.421  18.368   8.085 -0.0638  0.0906  0.1168
  643loPI    C110273   3.377   1.744  10.482 -0.2482  0.0659  0.0614
  643loPI    C210274   3.603   1.448  10.629 -0.2909  0.0325  0.0601
  643loPI    C310275   3.342   1.637  10.866 -0.2643  0.0686  0.0606
  643loPI   PO410276   3.415   1.733  10.235  0.0034 -0.4693  0.0096
  643loPI   GL110277   3.266   1.778   9.825  0.0069  0.0415 -0.1804
  643loPI   GL210278   3.433   1.470   9.735  0.2869  0.0776 -0.0064
  643loPI   C1A10279   3.438   1.922   9.394 -0.0014  0.0658  0.3673
  643loPI   C2A10280   3.327   1.933   9.017 -0.0814 -0.0635  0.0869
  643loPI   C3A10281   3.273   1.983   8.543 -0.0241 -0.1047  0.0976
  643loPI   C4A10282   3.228   2.057   8.093 -0.1562 -0.0887 -0.2179
  643loPI   C5A10283   3.119   1.971   7.597  0.2302  0.0023  0.3106
  643loPI   C6A10284   3.016   1.732   7.201  0.0851  0.0632 -0.2738
  643loPI   C1B10285   3.446   1.426   9.302  0.0160  0.1459 -0.3060
  643loPI   C2B10286   3.381   1.447   8.880 -0.4274  0.4498  0.0503
  643loPI   C3B10287   3.431   1.521   8.381 -0.0064  0.0844 -0.0553
  643loPI   C4B10288   3.466   1.570   7.933  0.0897  0.0871  0.1427
  644loPI    C110289  11.342  15.596   9.786 -0.1376  0.1250  0.0018
  644loPI    C210290  11.398  15.757  10.148  0.0532 -0.2776  0.1572
  644loPI    C310291  11.043  15.600  10.052 -0.0407 -0.0430  0.1155
  644loPI   PO410292  11.469  15.778   9.630 -0.0327  0.0977 -0.0854
  644loPI   GL110293  11.474  16.237   9.553  0.1059  0.1446  0.1142
  644loPI   GL210294  11.778  16.109   9.406  0.1232 -0.0727  0.2276
  644loPI   C1A10295  11.343  16.348   9.200  0.0732  0.1561  0.0060
  644loPI   C2A10296  11.422  16.397   8.778 -0.3076 -0.0697  0.1986
  644loPI   C3A10297  11.437  16.510   8.305 -0.1566  0.0869 -0.0094
  644loPI   C4A10298  11.200  16.341   7.873 -0.1225  0.0514 -0.0187
  644loPI   C5A10299  10.781  16.154   7.639  0.0552 -0.0393  0.0653
  644loPI   C6A10300  10.537  15.816   7.676 -0.0333 -0.1891 -0.2862
  644loPI   C1B10301  11.813  16.180   9.006  0.3267 -0.3874 -0.2188
  644loPI   C2B10302  11.907  16.362   8.578 -0.2715 -0.1853  0.3610
  644loPI   C3B10303  11.855  16.612   8.125  0.1486  0.2645 -0.0829
  644loPI   C4B10304  11.524  16.759   7.865 -0.0005 -0.1630 -0.1073
  645loPI    C110305   4.557  15.267  10.066  0.0357  0.0496 -0.2713
  645loPI    C210306   4.229  15.115   9.895 -0.0254 -0.0919 -0.0328
  645loPI    C310307   4.220  15.230  10.279  0.1700  0.0198 -0.0604
  645loPI   PO410308   4.641  15.435   9.908 -0.3339  0.1754 -0.2657
  645loPI   GL110309   4.476  15.536   9.542 -0.3280  0.1403 -0.2789
  645loPI   GL210310   4.512  15.274   9.452 -0.2851 -0.2667 -0.2874
  645loPI   C1A10311   4.768  15.613   9.163  0.0271  0.0071 -0.0606
  645loPI   C2A10312   4.880  15.472   8.750 -0.3265 -0.1903  0.3267
  645loPI   C3A10313   5.251  15.637   8.471  0.1549  0.0754  0.1265
  645loPI   C4A10314   5.220  15.724   8.051  0.1552 -0.1757  0.0548
  645loPI   C5A10315   5.236  15.871   7.669  0.1503  0.2953  0.0737
  645loPI   C6A10316   5.023  16.204   7.359  0.1587 -0.0665  0.1422
  645loPI   C1B10317   4.485  15.249   8.996 -0.0922  0.2757 -0.0590
  645loPI   C2B10318   4.528  15.145   8.551 -0.0386  0.1927  0.1065
  645loPI   C3B10319   4.391  15.271   8.133  0.1429  0.0004 -0.4672
  645loPI   C4B10320   4.517  15.503   7.719  0.1498 -0.1027 -0.0301
  646loPI    C110321  18.231  14.110  10.436  0.1333 -0.1896  0.1563
  646loPI    C210322  18.438  14.303  10.718 -0.0731  0.1069  0.1094
  646loPI    C310323  18.045  14.244  10.763 -0.0897  0.0714 -0.0721
  646loPI   PO410324  18.494  14.109  10.193  0.0416 -0.0571  0.3918
  646loPI   GL110325  18.659  13.956   9.733 -0.2463  0.0399  0.1467
  646loPI   GL210326  18.433  14.200   9.697  0.1610  0.0518  0.2237
  646loPI   C1A10327  18.725  13.898   9.308 -0.0240  0.1360  0.1604
  646loPI   C2A10328  18.791  13.831   8.843 -0.1093 -0.1377  0.1137
  646loPI   C3A10329  18.709  13.726   8.497 -0.0789 -0.1046 -0.1979
  646loPI   C4A10330  18.731  13.659   8.037 -0.0423  0.2925 -0.1509
  646loPI   C5A10331  18.724  13.424   7.640 -0.1672 -0.0002  0.1727
  646loPI   C6A10332  18.311  13.201   7.560  0.3136  0.0897  0.4102
  646loPI   C1B10333  18.325  14.167   9.317  0.2497  0.1068  0.0491
  646loPI   C2B10334  18.360  14.077   8.904 -0.0202 -0.0702  0.0390
  646loPI   C3B10335  18.235  14.091   8.495 -0.1138 -0.0304 -0.3195
  646loPI   C4B10336  18.206  14.090   8.066  0.0430  0.1627 -0.2369
  647loPI    C110337   5.082  10.432  10.451  0.1106 -0.0253  0.0325
  647loPI    C210338   4.820  10.137  10.380 -0.2083  0.2371  0.0936
  647loPI    C310339   4.905  10.243  10.756  0.1310  0.0308  0.0792
  647loPI   PO410340   5.070  10.517  10.206 -0.4406 -0.1917  0.2119
  647loPI   GL110341   4.783  10.352   9.903 -0.2480  0.1324 -0.1663
  647loPI   GL210342   4.559  10.460  10.030 -0.2723 -0.0943  0.1327
  647loPI   C1A10343   4.800  10.287   9.489 -0.1590 -0.2339  0.0318
  647loPI   C2A10344   4.830  10.318   8.999 -0.0010  0.1317 -0.0612
  647loPI   C3A10345   4.922  10.374   8.625 -0.3257  0.2668  0.0720
  647loPI   C4A10346   4.894  10.302   8.239 -0.2489 -0.0151 -0.0323
  647loPI   C5A10347   4.861  10.426   7.852  0.2639  0.1083  0.1196
  647loPI   C6A10348   5.203  10.741   7.630 -0.0315  0.2275 -0.0512
  647loPI   C1B10349   4.456  10.633   9.650  0.1953 -0.1251  0.2693
  647loPI   C2B10350   4.406  10.540   9.155 -0.4990  0.0884 -0.1727
  647loPI   C3B10351   4.485  10.614   8.706  0.0666  0.0011 -0.2650
  647loPI   C4B10352   4.527  10.659   8.255 -0.3346  0.0988  0.0091
  648loPI    C110353  16.301   3.248  10.469  0.1641  0.0924 -0.1450
  648loPI    C210354  16.364   3.065  10.820 -0.1405 -0.0925 -0.1835
  648loPI    C310355  16.669   3.237  10.626  0.0571 -0.1196  0.0985
  648loPI   PO410356  16.150   3.060  10.354 -0.4448  0.1152  0.0254
  648loPI   GL110357  16.085   3.041   9.965  0.0405 -0.0713 -0.1607
  648loPI   GL210358  16.230   3.422   9.954  0.1968  0.0445  0.0245
  648loPI   C1A10359  15.886   3.367   9.636 -0.0943  0.1105  0.3125
  648loPI   C2A10360  15.575   3.394   9.244  0.2638  0.1846 -0.1890
  648loPI   C3A10361  15.538   3.397   8.803 -0.2708 -0.1272  0.2006
  648loPI   C4A10362  15.508   3.499   8.437 -0.0226  0.0785 -0.1006
  648loPI   C5A10363  15.397   3.655   8.016  0.2362 -0.0408 -0.1059
  648loPI   C6A10364  15.591   3.744   7.719 -0.2799  0.0001 -0.0614
  648loPI   C1B10365  16.345   3.140   9.615 -0.1529 -0.0048  0.1120
  648loPI   C2B10366  16.229   3.229   9.330 -0.0216  0.1214  0.1996
  648loPI   C3B10367  16.011   3.295   8.998 -0.0011 -0.1920 -0.0711
  648loPI   C4B10368  16.037   3.332   8.483 -0.1449  0.0876  0.0008
  649loPI    C110369   4.950   8.752  10.398  0.0184  0.0433  0.0724
  649loPI    C210370   5.254   8.500  10.460 -0.0561 -0.0370  0.1128
  649loPI    C310371   5.135   8.746  10.752  0.0782  0.1130  0.0426
  649loPI   PO410372   4.866   8.730  10.136  0.2236  0.0003  0.0891
  649loPI   GL110373   4.780   8.492   9.815  0.0629  0.2222  0.0773
  649loPI   GL210374   4.483   8.391   9.854 -0.0229  0.1465  0.0912
  649loPI   C1A10375   4.550   8.677   9.398 -0.0428 -0.0704 -0.5237
  649loPI   C2A10376   4.506   8.800   9.007 -0.1988 -0.0254  0.0798
  649loPI   C3A10377   4.464   8.913   8.616 -0.2618 -0.1871  0.0615
  649loPI   C4A10378   4.488   8.855   8.202 -0.0551 -0.1186  0.1525
  649loPI   C5A10379   4.612   8.998   7.834 -0.0163  0.0441 -0.1318
  649loPI   C6A10380   4.851   8.745   7.579 -0.1037  0.0501 -0.0153
  649loPI   C1B10381   4.215   8.229   9.498 -0.0914 -0.3901 -0.0184
  649loPI   C2B10382   4.296   8.236   9.088  0.0017  0.4823 -0.0091
  649loPI   C3B10383   4.171   8.191   8.620  0.2061 -0.0991 -0.2482
  649loPI   C4B10384   4.441   8.462   8.439  0.0575  0.0078  0.1721
  650loPI    C110385   5.643  13.540  10.700 -0.0274 -0.0495 -0.1550
  650loPI    C210386   5.265  13.469  10.811  0.0771 -0.1807  0.1289
  650loPI    C310387   5.561  13.433  11.077  0.2662  0.1538 -0.0302
  650loPI   PO410388   5.568  13.584  10.364 -0.2301 -0.0059 -0.0124
  650loPI   GL110389   5.803  13.554   9.968 -0.3498 -0.1976  0.0618
  650loPI   GL210390   6.116  13.679   9.914 -0.0624  0.0019 -0.1951
  650loPI   C1A10391   5.982  13.537   9.478 -0.2292  0.0358 -0.1457
  650loPI   C2A10392   5.797  13.722   9.098 -0.3109 -0.2360  0.1413
  650loPI   C3A10393   5.705  13.817   8.704 -0.0926 -0.1545 -0.1635
  650loPI   C4A10394   5.688  13.842   8.246 -0.0265 -0.1692  0.1540
  650loPI   C5A10395   5.498  13.968   7.841  0.0989 -0.3387 -0.1341
  650loPI   C6A10396   5.084  14.134   7.829 -0.2090 -0.1303  0.2742
  650loPI   C1B10397   5.889  14.083   9.619 -0.0457  0.3933 -0.1078
  650loPI   C2B10398   5.463  14.075   9.331  0.0852 -0.0565  0.1735
  650loPI   C3B10399   5.127  13.925   9.140 -0.3027  0.0843 -0.1260
  650loPI   C4B10400   4.864  13.656   8.975 -0.1793 -0.3081  0.0132
  651loPI    C110401  15.281  10.681  10.503  0.1331  0.1297  0.2585
  651loPI    C210402  15.004  10.964  10.561  0.1903  0.2725 -0.1339
  651loPI    C310403  15.352  11.057  10.387  0.3710  0.0356  0.0906
  651loPI   PO410404  15.138  10.481  10.413 -0.3760  0.0997 -0.1815
  651loPI   GL110405  14.855  10.352   9.984  0.5335 -0.1384  0.1863
  651loPI   GL210406  14.917  10.129  10.005 -0.1079  0.0951 -0.0261
  651loPI   C1A10407  14.859  10.621   9.675  0.0283  0.1512  0.0407
  651loPI   C2A10408  14.901  10.577   9.247  0.0257 -0.0983 -0.0188
  651loPI   C3A10409  14.914  10.573   8.775  0.2053 -0.0733 -0.1789
  651loPI   C4A10410  14.897  10.541   8.298  0.0524  0.1563 -0.1139
  651loPI   C5A10411  15.042  10.413   8.023 -0.3170 -0.0353 -0.0350
  651loPI   C6A10412  15.470  10.563   7.764 -0.1722 -0.0492 -0.0391
  651loPI   C1B10413  14.801  10.080   9.457 -0.0306 -0.0917 -0.3608
  651loPI   C2B10414  14.902  10.115   9.027  0.3767 -0.2013  0.1364
  651loPI   C3B10415  14.791  10.070   8.708  0.2209  0.0056  0.0496
  651loPI   C4B10416  14.936  10.020   8.421  0.3185  0.3153 -0.1230
  652loPI    C110417   3.519  15.610   9.382 -0.1666 -0.0786 -0.0121
  652loPI    C210418   3.125  15.545   9.409 -0.1629 -0.0791  0.0440
  652loPI    C310419   3.379  15.331   9.632 -0.1181 -0.2075 -0.1274
  652loPI   PO410420   3.566  15.885   9.284 -0.1011  0.1240 -0.1210
  652loPI   GL110421   3.675  16.029   8.924  0.0286  0.1670  0.1151
  652loPI   GL210422   3.981  16.073   9.043  0.0994  0.0855  0.2114
  652loPI   C1A10423   3.486  15.880   8.494  0.0576 -0.0002  0.1125
  652loPI   C2A10424   3.577  15.845   8.060  0.2741 -0.1052 -0.0839
  652loPI   C3A10425   3.663  15.897   7.623  0.1034 -0.0270 -0.0158
  652loPI   C4A10426   3.930  16.178   7.347 -0.1059 -0.0023  0.2829
  652loPI   C5A10427   3.839  16.563   7.227 -0.1135  0.0369 -0.0310
  652loPI   C6A10428   3.613  16.707   6.895 -0.1922 -0.1363  0.0681
  652loPI   C1B10429   4.231  16.087   8.533 -0.1823  0.1280 -0.1909
  652loPI   C2B10430   4.538  16.281   8.388  0.1081  0.0298 -0.1698
  652loPI   C3B10431   4.679  16.681   8.232  0.2158 -0.0201 -0.0749
  652loPI   C4B10432   4.513  17.022   8.007 -0.1399 -0.0940  0.2905
  653loPI    C110433   7.791   0.607  10.045  0.2428 -0.0890 -0.0096
  653loPI    C210434   7.801   0.572  10.443  0.1668 -0.0681 -0.0058
  653loPI    C310435   7.723   0.253  10.216  0.0679 -0.0502  0.0027
  653loPI   PO410436   7.677   0.874  10.005  0.0147 -0.2505 -0.0585
  653loPI   GL110437   7.661   1.162   9.712  0.2575 -0.1646  0.2876
  653loPI   GL210438   7.349   0.991   9.617  0.0471 -0.0268  0.2621
  653loPI   C1A10439   7.707   1.003   9.275  0.3763  0.1525 -0.0048
  653loPI   C2A10440   7.790   0.946   8.821 -0.3253  0.1380 -0.2886
  653loPI   C3A10441   7.883   1.152   8.373 -0.0068 -0.1583  0.2613
  653loPI   C4A10442   8.168   1.415   8.273 -0.0321  0.0588  0.3434
  653loPI   C5A10443   8.500   1.267   8.113 -0.2329 -0.0868 -0.2368
  653loPI   C6A10444   8.619   0.950   7.735  0.3043 -0.2176  0.0371
  653loPI   C1B10445   7.173   1.061   9.147 -0.0602 -0.0383  0.0765
  653loPI   C2B10446   7.142   1.204   8.774  0.0845 -0.0180  0.1203
  653loPI   C3B10447   7.236   1.111   8.299 -0.0494 -0.3798 -0.1334
  653loPI   C4B10448   7.284   1.253   7.823 -0.2153  0.0483 -0.2351
  654loPI    C110449  10.685  11.429  10.439  0.0153 -0.2403  0.0856
  654loPI    C210450  10.969  11.686  10.555 -0.0396 -0.2802  0.3149
  654loPI    C310451  11.070  11.333  10.395  0.0361 -0.1412  0.0500
  654loPI   PO410452  10.589  11.605  10.221  0.0077 -0.0050  0.1090
  654loPI   GL110453  10.462  11.400   9.805  0.0211  0.1259 -0.2071
  654loPI   GL210454  10.643  11.780   9.758 -0.0174 -0.1116 -0.1522
  654loPI   C1A10455  10.409  11.426   9.384  0.0483  0.0841  0.1313
  654loPI   C2A10456  10.231  11.352   9.095  0.0112 -0.2738 -0.1270
  654loPI   C3A10457   9.948  11.328   8.739 -0.2016 -0.2493  0.1624
  654loPI   C4A10458   9.934  11.144   8.380  0.1057 -0.1254  0.1913
  654loPI   C5A10459  10.174  11.028   8.007  0.0803  0.1999 -0.3126
  654loPI   C6A10460  10.466  11.086   7.759 -0.0223  0.1769 -0.0906
  654loPI   C1B10461  10.775  11.788   9.340 -0.1228  0.2293 -0.1650
  654loPI   C2B10462  10.668  11.688   8.938  0.1034 -0.0973  0.0684
  654loPI   C3B10463  10.509  11.839   8.482  0.1590 -0.0632 -0.0857
  654loPI   C4B10464  10.299  12.026   8.226  0.2706 -0.5147 -0.6494
  655loPI    C110465   1.595   8.070  10.202 -0.2419  0.0294  0.0886
  655loPI    C210466   1.588   8.451  10.079  0.3620  0.0462  0.0787
  655loPI    C310467   1.590   8.367  10.470  0.1200  0.0468  0.0812
  655loPI   PO410468   1.372   7.991  10.098  0.0754 -0.0065 -0.1345
  655loPI   GL110469   1.380   8.200   9.697 -0.1278  0.1590  0.1254
  655loPI   GL210470   1.160   8.448   9.781 -0.2407 -0.1398  0.2170
  655loPI   C1A10471   1.445   8.291   9.262  0.1626 -0.0258 -0.1895
  655loPI   C2A10472   1.461   8.468   8.843 -0.1755 -0.0176  0.0802
  655loPI   C3A10473   1.376   8.598   8.540 -0.1836 -0.2092  0.0417
  655loPI   C4A10474   1.319   8.416   8.154  0.0097 -0.0293  0.2198
  655loPI   C5A10475   1.312   8.164   7.797 -0.0519 -0.0400  0.0021
  655loPI   C6A10476   1.099   7.942   7.491 -0.2808  0.1259 -0.0999
  655loPI   C1B10477   1.089   8.666   9.371 -0.0833  0.1263 -0.2337
  655loPI   C2B10478   1.079   8.795   8.940  0.0991  0.3165 -0.3441
  655loPI   C3B10479   0.929   8.941   8.591 -0.1505  0.1387  0.2668
  655loPI   C4B10480   0.836   8.955   8.164  0.0132  0.1733 -0.4463
  656loPI    C110481   3.961   9.732  10.618  0.1080 -0.2575  0.1414
  656loPI    C210482   3.781   9.940  10.908  0.0187 -0.0911 -0.0315
  656loPI    C310483   4.167   9.840  10.943 -0.0100 -0.1326  0.1752
  656loPI   PO410484   3.967   9.913  10.434 -0.2247  0.1047  0.0919
  656loPI   GL110485   3.826   9.966  10.145 -0.2138  0.2540 -0.1498
  656loPI   GL210486   3.911   9.823   9.950 -0.0144  0.2202  0.4049
  656loPI   C1A10487   3.493  10.161   9.834 -0.0534 -0.0708 -0.1925
  656loPI   C2A10488   3.415  10.264   9.393  0.1628  0.0638 -0.2229
  656loPI   C3A10489   3.462  10.282   8.919  0.4341 -0.2375 -0.1479
  656loPI   C4A10490   3.360  10.292   8.488  0.2285 -0.1703 -0.1126
  656loPI   C5A10491   3.333  10.407   8.053  0.0720 -0.0604 -0.1787
  656loPI   C6A10492   3.422  10.438   7.616  0.3430  0.0134 -0.0165
  656loPI   C1B10493   3.817   9.914   9.586 -0.0432  0.0565  0.0517
  656loPI   C2B10494   3.830  10.015   9.106 -0.0976 -0.0313 -0.0070
  656loPI   C3B10495   3.808   9.993   8.623 -0.1449  0.0542 -0.0651
  656loPI   C4B10496   3.664  10.058   8.179  0.0270 -0.2353 -0.0530
  657loPI    C110497  16.395  15.474   9.962  0.4183  0.0073  0.0086
  657loPI    C210498  16.448  15.114   9.796  0.4628 -0.0710  0.1907
  657loPI    C310499  16.438  15.151  10.195  0.0640  0.0727  0.1713
  657loPI   PO410500  16.573  15.688   9.794 -0.0477  0.2218  0.1542
  657loPI   GL110501  16.505  15.477   9.442 -0.0251  0.0677  0.0170
  657loPI   GL210502  16.902  15.518   9.338 -0.0162 -0.1726 -0.0992
  657loPI   C1A10503  16.431  15.660   8.992  0.1749  0.3290 -0.2114
  657loPI   C2A10504  16.459  15.510   8.482 -0.0315  0.0977 -0.3338
  657loPI   C3A10505  16.487  15.397   8.101 -0.3261 -0.0644 -0.0860
  657loPI   C4A10506  16.693  15.284   7.758  0.0985 -0.0672  0.1393
  657loPI   C5A10507  16.638  14.867   7.662 -0.1947  0.2045 -0.0028
  657loPI   C6A10508  16.229  14.674   7.583  0.2185 -0.0754 -0.2252
  657loPI   C1B10509  16.784  15.383   8.893  0.1655  0.1266 -0.2451
  657loPI   C2B10510  16.915  15.024   8.589  0.0411 -0.1995  0.2509
  657loPI   C3B10511  16.897  14.603   8.438  0.2229 -0.2350  0.3079
  657loPI   C4B10512  16.861  14.510   7.970  0.1020 -0.0092 -0.0962
  658loPI    C110513  17.845  17.860   9.709  0.2782  0.0365  0.1550
  658loPI    C210514  17.683  18.012   9.377  0.1298 -0.0320  0.1950
  658loPI    C310515  17.839  18.256   9.654 -0.0556  0.0453  0.2330
  658loPI   PO410516  17.911  17.684   9.621 -0.1683 -0.0915 -0.2325
  658loPI   GL110517  17.670  17.473   9.423  0.2022  0.0531 -0.1612
  658loPI   GL210518  17.825  17.254   9.415 -0.1922  0.2150  0.0212
  658loPI   C1A10519  17.486  17.510   9.053 -0.2101 -0.0559  0.3061
  658loPI   C2A10520  17.686  17.463   8.624 -0.1832  0.1583 -0.0817
  658loPI   C3A10521  18.036  17.719   8.506 -0.2613  0.0656 -0.0152
  658loPI   C4A10522  18.393  17.601   8.371 -0.3297 -0.2558 -0.1609
  658loPI   C5A10523  18.623  17.693   8.074  0.1599  0.2180 -0.1584
  658loPI   C6A10524  18.575  17.822   7.642 -0.3223  0.0186  0.1322
  658loPI   C1B10525  18.189  17.375   9.108 -0.1953 -0.0107 -0.2409
  658loPI   C2B10526  18.468  17.646   8.852  0.4690 -0.2593  0.1352
  658loPI   C3B10527  18.745  17.868   8.553 -0.0466 -0.0583  0.0468
  658loPI   C4B10528  18.733  18.108   8.296  0.1855  0.1346  0.0652
  659loPI    C110529   2.537  11.517  10.608  0.0269  0.0864  0.0352
  659loPI    C210530   2.453  11.729  10.937  0.1386  0.0111  0.1133
  659loPI    C310531   2.327  11.350  10.905 -0.2129  0.1406 -0.1014
  659loPI   PO410532   2.501  11.649  10.429 -0.2037 -0.0543  0.6454
  659loPI   GL110533   2.182  11.720  10.124 -0.0043  0.0079 -0.1964
  659loPI   GL210534   2.274  11.422   9.986  0.2901  0.0428 -0.1349
  659loPI   C1A10535   2.234  11.959   9.698  0.0201  0.2695  0.4660
  659loPI   C2A10536   2.363  11.866   9.165  0.2887 -0.1852  0.2110
  659loPI   C3A10537   2.321  11.731   8.912  0.0403  0.3985 -0.2107
  659loPI   C4A10538   2.283  11.781   8.536 -0.0446  0.1095 -0.0454
  659loPI   C5A10539   2.312  11.755   8.046 -0.1311  0.1665 -0.1288
  659loPI   C6A10540   2.637  11.522   7.953 -0.1611  0.1620 -0.1039
  659loPI   C1B10541   2.219  11.475   9.545 -0.1691 -0.0780 -0.1888
  659loPI   C2B10542   2.304  11.265   9.166  0.0225 -0.0828 -0.0774
  659loPI   C3B10543   2.289  11.225   8.730  0.0706 -0.1066  0.1413
  659loPI   C4B10544   2.188  11.306   8.269 -0.2947 -0.0822 -0.1740
  660loPI    C110545  12.753   8.141  10.054 -0.1382  0.0178  0.1831
  660loPI    C210546  12.466   8.356   9.877 -0.0801 -0.1047 -0.0645
  660loPI    C310547  12.369   8.080  10.149 -0.1808 -0.0084 -0.0016
  660loPI   PO410548  12.894   8.144   9.871  0.2725 -0.0934  0.0297
  660loPI   GL110549  12.725   8.250   9.471  0.0113 -0.1950  0.1913
  660loPI   GL210550  12.861   8.512   9.305 -0.0783 -0.3464  0.1726
  660loPI   C1A10551  12.357   8.318   9.245  0.1393 -0.0179  0.0536
  660loPI   C2A10552  11.998   8.680   9.218 -0.1207  0.1573  0.1440
  660loPI   C3A10553  11.740   8.585   8.871 -0.0515  0.0103 -0.2221
  660loPI   C4A10554  11.388   8.450   8.563 -0.0906 -0.3492  0.1089
  660loPI   C5A10555  11.332   8.641   8.258 -0.0465 -0.0026 -0.1221
  660loPI   C6A10556  11.238   8.610   7.840  0.2275  0.0418  0.1275
  660loPI   C1B10557  13.189   8.321   9.042 -0.0183 -0.1550 -0.0639
  660loPI   C2B10558  13.339   8.486   8.606 -0.0995  0.0313  0.1145
  660loPI   C3B10559  13.527   8.728   8.317 -0.2543  0.3194 -0.0656
  660loPI   C4B10560  13.502   8.725   7.833 -0.0435  0.4611 -0.2492
  661loPI    C110561   3.797  14.473  10.081 -0.0200  0.0746  0.1653
  661loPI    C210562   4.098  14.665   9.901 -0.1693 -0.0315 -0.2063
  661loPI    C310563   3.960  14.796  10.252  0.1584  0.1515 -0.1410
  661loPI   PO410564   3.655  14.388   9.956  0.2924 -0.2262 -0.0164
  661loPI   GL110565   3.623  14.180   9.659  0.1867  0.0525 -0.1360
  661loPI   GL210566   3.652  13.879   9.556 -0.0439  0.0795  0.1891
  661loPI   C1A10567   3.754  14.222   9.209  0.1495 -0.1182  0.0445
  661loPI   C2A10568   3.631  14.143   8.762 -0.0007  0.0930  0.1227
  661loPI   C3A10569   3.626  13.952   8.400  0.2802 -0.1067 -0.1659
  661loPI   C4A10570   3.458  13.793   8.051 -0.0831  0.1260  0.1508
  661loPI   C5A10571   3.360  13.641   7.752  0.1249  0.2041  0.3401
  661loPI   C6A10572   3.345  13.264   7.700 -0.0576  0.0915 -0.0467
  661loPI   C1B10573   3.448  13.809   9.153 -0.1018  0.0056 -0.0403
  661loPI   C2B10574   3.369  13.660   8.707  0.2054  0.2208 -0.0355
  661loPI   C3B10575   3.669  13.444   8.474  0.0341  0.0668 -0.0201
  661loPI   C4B10576   3.834  13.379   8.046  0.1102 -0.0423  0.1422
  662loPI    C110577  18.707   2.471  10.024  0.2955  0.0629 -0.2804
  662loPI    C210578  18.683   2.869  10.059  0.0372  0.0437 -0.2137
  662loPI    C310579  18.482   2.634  10.312 -0.0242 -0.1260 -0.4169
  662loPI   PO410580  18.619   2.278   9.845  0.1568  0.0626 -0.0199
  662loPI   GL110581  18.434   2.202   9.480 -0.2830  0.0969 -0.1073
  662loPI   GL210582  18.570   2.021   9.398 -0.2434 -0.1344  0.0430
  662loPI   C1A10583  18.040   2.294   9.269  0.0257 -0.0284 -0.0981
  662loPI   C2A10584  17.853   2.400   8.860 -0.0890 -0.0307  0.0653
  662loPI   C3A10585  17.573   2.647   8.749  0.2926  0.1570  0.1741
  662loPI   C4A10586  17.577   2.733   8.233  0.2770  0.0625 -0.0819
  662loPI   C5A10587  17.460   2.775   7.830 -0.1378 -0.0859  0.2106
  662loPI   C6A10588  17.669   2.557   7.447 -0.1807 -0.0276  0.0139
  662loPI   C1B10589  18.455   2.124   8.981  0.0649 -0.1912 -0.0104
  662loPI   C2B10590  18.418   2.298   8.593  0.1909  0.2734  0.0125
  662loPI   C3B10591  18.553   2.419   8.144  0.1801  0.3170 -0.1185
  662loPI   C4B10592  18.611   1.992   7.903 -0.0918  0.1571 -0.2796
  663loPI    C110593  14.329  13.298  10.027  0.0117 -0.1111 -0.0469
  663loPI    C210594  14.478  13.653  10.135 -0.0942 -0.0247 -0.1810
  663loPI    C310595  14.721  13.339  10.091  0.0303  0.0840 -0.2739
  663loPI   PO410596  14.058  13.430   9.922 -0.1468  0.0528 -0.2850
  663loPI   GL110597  13.985  13.396   9.510  0.0711  0.2657  0.0489
  663loPI   GL210598  13.663  13.433   9.589 -0.1597 -0.1084  0.0921
  663loPI   C1A10599  13.965  12.998   9.300 -0.0667 -0.0839  0.0002
  663loPI   C2A10600  14.011  12.931   8.961 -0.0585 -0.0177 -0.1353
  663loPI   C3A10601  14.016  13.054   8.590 -0.0709 -0.0945  0.1842
  663loPI   C4A10602  13.950  12.910   8.164 -0.0416  0.0373  0.2400
  663loPI   C5A10603  14.140  13.061   7.798 -0.2241 -0.4695  0.3505
  663loPI   C6A10604  14.202  12.868   7.397 -0.2832 -0.2901 -0.0982
  663loPI   C1B10605  13.432  13.568   9.228  0.1326 -0.0783  0.0231
  663loPI   C2B10606  13.643  13.510   8.877  0.3092 -0.0048  0.1423
  663loPI   C3B10607  13.662  13.299   8.414  0.0997  0.1306 -0.2736
  663loPI   C4B10608  13.749  13.368   7.992 -0.0125 -0.0772 -0.1352
  664loPI    C110609   7.137  12.608   9.981  0.2713  0.0498  0.0572
  664loPI    C210610   7.095  12.285  10.214 -0.0983  0.1824  0.1814
  664loPI    C310611   7.039  12.651  10.367 -0.0370  0.2872 -0.0433
  664loPI   PO410612   6.941  12.499   9.733 -0.3723 -0.0049  0.2589
  664loPI   GL110613   6.992  12.247   9.411  0.1085  0.1601  0.3012
  664loPI   GL210614   7.328  12.459   9.392 -0.0796  0.0394  0.1575
  664loPI   C1A10615   6.935  12.134   9.008  0.1612 -0.0127  0.0359
  664loPI   C2A10616   6.992  11.741   8.822 -0.1746  0.0906  0.1205
  664loPI   C3A10617   7.282  11.360   8.684  0.0577 -0.1100  0.0863
  664loPI   C4A10618   7.382  11.278   8.201 -0.0216 -0.1187 -0.1020
  664loPI   C5A10619   7.560  11.419   7.836  0.0739  0.2157  0.0401
  664loPI   C6A10620   7.805  11.768   7.496 -0.0561  0.2829  0.1233
  664loPI   C1B10621   7.138  12.658   9.088 -0.1111  0.0284 -0.1530
  664loPI   C2B10622   7.038  12.744   8.667 -0.1491 -0.0007  0.0244
  664loPI   C3B10623   6.998  12.804   8.190 -0.0622  0.1967  0.0367
  664loPI   C4B10624   6.892  13.004   7.674  0.0892 -0.0980 -0.0043
  665loPI    C110625  11.094  15.105   9.523  0.1175 -0.0668  0.2112
  665loPI    C210626  10.957  15.141   9.897  0.0071 -0.0302  0.1675
  665loPI    C310627  11.269  14.903   9.821  0.1188  0.0704  0.3046
  665loPI   PO410628  10.863  15.163   9.420 -0.1053  0.1632  0.0387
  665loPI   GL110629  10.831  15.290   9.074  0.1233 -0.1289  0.0708
  665loPI   GL210630  10.639  15.568   9.120 -0.1458 -0.3401  0.1143
  665loPI   C1A10631  10.896  15.146   8.662 -0.1188  0.1476  0.0245
  665loPI   C2A10632  10.909  14.945   8.314 -0.0184 -0.0026 -0.1276
  665loPI   C3A10633  10.842  14.937   7.895  0.0577 -0.2773 -0.3266
  665loPI   C4A10634  10.719  14.979   7.538  0.0572  0.3474 -0.0964
  665loPI   C5A10635  10.283  14.965   7.460 -0.3171 -0.0062 -0.1083
  665loPI   C6A10636   9.834  14.971   7.376  0.2068 -0.1382 -0.1207
  665loPI   C1B10637  10.389  15.415   8.793  0.1029  0.1027 -0.0885
  665loPI   C2B10638  10.653  15.474   8.380 -0.1325 -0.0903 -0.1737
  665loPI   C3B10639  10.666  15.463   8.048  0.2446 -0.0107  0.1959
  665loPI   C4B10640  10.918  15.405   7.668 -0.2146  0.1664 -0.2929
  666loPI    C110641   5.200  18.285  10.275 -0.0864  0.1655  0.0366
  666loPI    C210642   5.252  18.477  10.622  0.1056 -0.1266  0.1749
  666loPI    C310643   4.884  18.433  10.470  0.0529  0.2977  0.1648
  666loPI   PO410644   5.388  18.443  10.134 -0.0632  0.0395  0.1341
  666loPI   GL110645   5.350  18.558   9.767 -0.0686 -0.0908 -0.0565
  666loPI   GL210646   5.056  18.635   9.709 -0.0742  0.1267 -0.0244
  666loPI   C1A10647   5.503  18.574   9.370 -0.2288 -0.3012  0.4351
  666loPI   C2A10648   5.595  18.573   8.924 -0.1499  0.2874 -0.0931
  666loPI   C3A10649   5.505  18.556   8.548  0.1177 -0.1945  0.2897
  666loPI   C4A10650   5.497  18.597   8.182  0.0332 -0.0366 -0.1405
  666loPI   C5A10651   5.545  18.436   7.803  0.0675  0.2288 -0.0702
  666loPI   C6A10652   5.374  18.131   7.502  0.1267  0.0884 -0.1012
  666loPI   C1B10653   5.004  18.619   9.257  0.1685  0.1640 -0.0825
  666loPI   C2B10654   5.115  18.782   8.821  0.1609 -0.0093  0.1821
  666loPI   C3B10655   5.099  18.784   8.379  0.1508  0.1694  0.1681
  666loPI   C4B10656   5.195  18.861   7.898  0.0271 -0.2375  0.0938
  667loPI    C110657  11.164   6.267  10.687  0.0142  0.1854 -0.1995
  667loPI    C210658  11.278   6.534  10.963  0.1507 -0.0766  0.0015
  667loPI    C310659  10.925   6.348  10.997  0.0963  0.0094 -0.0886
  667loPI   PO410660  11.134   6.399  10.424 -0.0301 -0.1417 -0.1544
  667loPI   GL110661  11.014   6.641  10.010 -0.2193 -0.0521  0.3422
  667loPI   GL210662  10.806   7.036  10.002  0.0393 -0.0032 -0.1977
  667loPI   C1A10663  10.817   6.450   9.670 -0.1503 -0.0739  0.2828
  667loPI   C2A10664  10.867   6.645   9.352 -0.2009 -0.0661 -0.0742
  667loPI   C3A10665  10.886   6.606   8.854 -0.1250  0.2310 -0.1469
  667loPI   C4A10666  10.936   6.639   8.418 -0.1219  0.0670  0.0423
  667loPI   C5A10667  10.781   6.542   8.067 -0.3326 -0.0252 -0.1241
  667loPI   C6A10668  10.408   6.439   7.886 -0.2374 -0.1548 -0.1597
  667loPI   C1B10669  10.532   6.946   9.564 -0.0879 -0.0114  0.0197
  667loPI   C2B10670  10.417   6.778   9.202 -0.0121 -0.1483  0.0324
  667loPI   C3B10671  10.085   6.730   8.857 -0.0123  0.0875  0.2673
  667loPI   C4B10672   9.703   6.506   8.649  0.2650  0.1827 -0.1018
  668loPI    C110673   4.831   6.651  10.812 -0.0100 -0.3020 -0.1263
  668loPI    C210674   4.650   6.296  10.778 -0.2506 -0.2088  0.1383
  668loPI    C310675   4.722   6.449  11.140  0.0570 -0.0886  0.0296
  668loPI   PO410676   4.663   6.680  10.488  0.0009  0.1709  0.2785
  668loPI   GL110677   4.677   6.647  10.100  0.0993 -0.0671  0.1479
  668loPI   GL210678   4.367   6.676   9.982 -0.3045  0.5162  0.2974
  668loPI   C1A10679   4.922   6.564   9.703 -0.2338 -0.0002 -0.1992
  668loPI   C2A10680   5.182   6.144   9.378  0.0259  0.1215 -0.0200
  668loPI   C3A10681   5.287   6.129   8.943 -0.2897  0.1485  0.1368
  668loPI   C4A10682   5.227   6.077   8.511  0.2918 -0.0079  0.0574
  668loPI   C5A10683   5.129   6.091   8.011 -0.0623  0.3680 -0.1895
  668loPI   C6A10684   4.925   5.882   7.742  0.1172  0.1549 -0.2748
  668loPI   C1B10685   4.481   6.698   9.542 -0.0411 -0.0067 -0.4003
  668loPI   C2B10686   4.578   6.682   9.143 -0.0126 -0.1223 -0.1043
  668loPI   C3B10687   4.723   6.770   8.801  0.0995 -0.0186 -0.0712
  668loPI   C4B10688   5.024   7.123   8.996 -0.3197 -0.0562  0.0125
  669loPI    C110689  14.314  18.511  10.509 -0.1784 -0.2076  0.2354
  669loPI    C210690  14.290  18.688  10.867  0.0301  0.1040  0.1004
  669loPI    C310691  14.095  18.842  10.554  0.0607 -0.0159  0.0214
  669loPI   PO410692  14.457  18.522  10.336 -0.0810  0.4772  0.1749
  669loPI   GL110693  14.228  18.384   9.871 -0.1377 -0.0755  0.1792
  669loPI   GL210694  13.901  18.196   9.834 -0.0851 -0.0469 -0.0602
  669loPI   C1A10695  14.280  18.400   9.426  0.1291  0.2200 -0.0156
  669loPI   C2A10696  14.189  18.438   8.948  0.1032 -0.0163  0.2031
  669loPI   C3A10697  14.249  18.529   8.509 -0.0901 -0.1555 -0.1435
  669loPI   C4A10698  14.060  18.744   8.146 -0.0266  0.2079  0.1472
  669loPI   C5A10699  14.218  18.752   7.807  0.0078  0.1318 -0.3811
  669loPI   C6A10700  14.539  18.569   7.670  0.1268 -0.3349 -0.2917
  669loPI   C1B10701  13.878  18.046   9.451  0.0796  0.3455 -0.1158
  669loPI   C2B10702  13.814  18.124   9.070 -0.1534  0.1377  0.2172
  669loPI   C3B10703  13.809  18.242   8.618  0.2663  0.2454  0.3488
  669loPI   C4B10704  14.003  18.189   8.217  0.0836  0.2903  0.0846
  670loPI    C110705   6.422  17.941   9.810  0.2048 -0.1876  0.0145
  670loPI    C210706   6.805  18.021   9.894  0.1415 -0.0090  0.1369
  670loPI    C310707   6.537  17.992  10.190  0.0392 -0.0222  0.0434
  670loPI   PO410708   6.254  18.097   9.711 -0.1191  0.1667  0.1002
  670loPI   GL110709   6.265  18.397   9.386 -0.1877  0.0236 -0.0582
  670loPI   GL210710   5.961  18.326   9.371  0.1485 -0.0283  0.0769
  670loPI   C1A10711   6.464  18.157   9.142 -0.2052  0.0387  0.0164
  670loPI   C2A10712   6.741  18.231   8.957  0.0234  0.0929  0.0737
  670loPI   C3A10713   6.962  18.153   8.624  0.1213  0.2576 -0.0047
  670loPI   C4A10714   6.950  18.338   8.179 -0.2770  0.0723 -0.0313
  670loPI   C5A10715   7.187  18.681   7.889 -0.2338  0.1547  0.1417
  670loPI   C6A10716   7.589  18.623   7.622  0.1339  0.1294  0.2675
  670loPI   C1B10717   6.051  18.353   8.930  0.1783 -0.1331 -0.1107
  670loPI   C2B10718   6.370  18.341   8.620 -0.1281  0.2192 -0.4760
  670loPI   C3B10719   6.432  18.392   8.182  0.1724 -0.2245  0.1752
  670loPI   C4B10720   6.677  18.259   7.798  0.1652 -0.2105  0.1476
  671loPI    C110721  16.508  11.449  10.396 -0.1998  0.1103 -0.1604
  671loPI    C210722  16.659  11.516  10.761  0.0269 -0.1806 -0.1975
  671loPI    C310723  16.297  11.349  10.721 -0.0708  0.0074 -0.1074
  671loPI   PO410724  16.649  11.312  10.298 -0.0574  0.4054  0.1652
  671loPI   GL110725  16.711  11.000   9.963  0.2179 -0.0575 -0.1138
  671loPI   GL210726  16.982  10.885   9.859 -0.1278  0.0392  0.2840
  671loPI   C1A10727  16.504  11.030   9.522  0.0737  0.0536  0.0964
  671loPI   C2A10728  16.431  10.987   9.050 -0.0409  0.2995 -0.0202
  671loPI   C3A10729  16.382  10.991   8.670 -0.0867  0.3137  0.0215
  671loPI   C4A10730  16.390  11.050   8.260  0.0810 -0.3915 -0.1420
  671loPI   C5A10731  16.409  11.151   7.806 -0.3428 -0.0696  0.1803
  671loPI   C6A10732  16.291  11.442   7.619 -0.1118  0.1906 -0.0340
  671loPI   C1B10733  16.868  10.769   9.394 -0.4329 -0.2888 -0.0924
  671loPI   C2B10734  16.810  10.680   8.914 -0.3176  0.0527 -0.3171
  671loPI   C3B10735  16.830  10.709   8.459 -0.3530  0.1585  0.0431
  671loPI   C4B10736  16.805  10.766   8.060 -0.0183 -0.0534  0.2199
  672loPI    C110737  12.145  15.130  10.031  0.1528  0.1337  0.1701
  672loPI    C210738  12.350  15.377  10.271  0.0291  0.3294  0.0768
  672loPI    C310739  11.951  15.357  10.297  0.0301  0.2164  0.0118
  672loPI   PO410740  12.212  15.165   9.780  0.0986  0.0598 -0.0396
  672loPI   GL110741  12.079  15.249   9.398 -0.0816  0.0266 -0.2395
  672loPI   GL210742  11.862  15.557   9.359 -0.0173  0.1474 -0.1771
  672loPI   C1A10743  12.063  15.239   8.953  0.2169  0.0312 -0.1903
  672loPI   C2A10744  12.038  15.315   8.640  0.1486  0.1753  0.0454
  672loPI   C3A10745  11.850  15.357   8.269 -0.0200 -0.1450  0.1126
  672loPI   C4A10746  11.678  15.554   7.931 -0.1057 -0.0554 -0.1738
  672loPI   C5A10747  11.541  15.362   7.518 -0.0529 -0.0642  0.0701
  672loPI   C6A10748  11.725  15.513   7.101  0.1396  0.2491  0.1079
  672loPI   C1B10749  11.724  15.681   9.027 -0.0154 -0.3613 -0.1182
  672loPI   C2B10750  11.846  15.772   8.565  0.4766  0.1455  0.1362
  672loPI   C3B10751  12.082  15.934   8.158 -0.2982 -0.0527 -0.0014
  672loPI   C4B10752  12.040  15.871   7.721 -0.1753 -0.0720 -0.0585
  673loPI    C110753  18.611   4.166  10.234 -0.1025  0.0307 -0.0655
  673loPI    C210754  18.757   4.290  10.585 -0.2215 -0.3089  0.1088
  673loPI    C310755  18.762   4.535  10.269 -0.2971  0.0744  0.3961
  673loPI   PO410756  18.462   3.999  10.288  0.0047 -0.1225 -0.1955
  673loPI   GL110757  18.347   3.804   9.920  0.1361  0.1085  0.1755
  673loPI   GL210758  18.147   3.849   9.756 -0.2043  0.2870  0.0177
  673loPI   C1A10759  18.591   3.607   9.447  0.1676 -0.0278  0.1662
  673loPI   C2A10760  18.757   3.551   9.075  0.0414  0.0123  0.2303
  673loPI   C3A10761  18.723   3.420   8.640  0.0974 -0.0926  0.2694
  673loPI   C4A10762  18.789   3.214   8.247 -0.0529 -0.2039 -0.0324
  673loPI   C5A10763  18.922   3.111   7.792  0.3388  0.0914  0.1199
  673loPI   C6A10764  19.247   2.893   7.469  0.0814 -0.0845 -0.0306
  673loPI   C1B10765  18.239   3.992   9.431  0.3380  0.4955 -0.1314
  673loPI   C2B10766  18.456   3.946   9.073  0.3716  0.2005  0.3628
  673loPI   C3B10767  18.376   3.919   8.606 -0.1875  0.0869  0.1425
  673loPI   C4B10768  18.076   3.846   8.319  0.3146 -0.1244  0.0037
  674loPI    C110769  11.779  10.962  10.341 -0.1639 -0.0083 -0.2580
  674loPI    C210770  11.560  11.296  10.351 -0.0777  0.0460 -0.1526
  674loPI    C310771  11.828  11.225  10.638  0.0001 -0.0492 -0.2480
  674loPI   PO410772  11.839  10.843  10.018 -0.2100 -0.1039  0.0399
  674loPI   GL110773  12.032  10.773   9.669  0.0496  0.0678  0.1269
  674loPI   GL210774  12.002  10.479   9.734 -0.1366 -0.2297 -0.0359
  674loPI   C1A10775  12.000  10.885   9.205  0.1268 -0.1083 -0.0848
  674loPI   C2A10776  11.965  10.994   8.781 -0.0121 -0.1760  0.0852
  674loPI   C3A10777  11.733  11.044   8.421 -0.1624  0.1246 -0.0911
  674loPI   C4A10778  11.790  11.317   8.081  0.0681 -0.0224  0.2185
  674loPI   C5A10779  11.710  11.427   7.662  0.0464 -0.0998  0.4283
  674loPI   C6A10780  11.602  11.748   7.437  0.3416 -0.2533 -0.1178
  674loPI   C1B10781  12.105  10.438   9.360 -0.5754  0.2238  0.1241
  674loPI   C2B10782  12.037  10.461   8.931  0.1423  0.0037  0.3166
  674loPI   C3B10783  11.789  10.422   8.481  0.5253 -0.2001 -0.1070
  674loPI   C4B10784  11.578  10.303   8.125 -0.3509  0.2284  0.5087
  675loPI    C110785   6.227   1.271  10.036  0.1867  0.0266  0.0327
  675loPI    C210786   6.223   1.334  10.431 -0.1577 -0.3018  0.0868
  675loPI    C310787   6.488   1.526  10.201 -0.0321 -0.0168  0.4592
  675loPI   PO410788   6.111   0.976  10.058  0.0749  0.4253  0.1215
  675loPI   GL110789   6.113   0.732   9.664  0.0997 -0.0508 -0.1154
  675loPI   GL210790   6.411   0.893   9.613 -0.0834  0.0797  0.2493
  675loPI   C1A10791   5.946   0.578   9.328  0.1112  0.0934 -0.1579
  675loPI   C2A10792   5.865   0.642   8.937  0.0085  0.0476 -0.2594
  675loPI   C3A10793   5.831   0.732   8.555  0.2930 -0.2560  0.0741
  675loPI   C4A10794   5.899   0.679   8.159 -0.3906 -0.0345  0.3312
  675loPI   C5A10795   5.897   0.836   7.784  0.0593  0.0275  0.1937
  675loPI   C6A10796   6.239   1.141   7.464  0.1242 -0.0658 -0.0141
  675loPI   C1B10797   6.338   0.962   9.157  0.2920 -0.1426 -0.2926
  675loPI   C2B10798   6.352   0.952   8.705 -0.3018 -0.0429 -0.5564
  675loPI   C3B10799   6.268   1.002   8.334 -0.4536 -0.1905 -0.0620
  675loPI   C4B10800   6.422   0.934   7.890 -0.2081 -0.4861 -0.1101
  676loPI    C110801  15.490  17.111  10.140 -0.0334 -0.0937 -0.0254
  676loPI    C210802  15.136  17.106   9.952  0.0077  0.0720 -0.1084
  676loPI    C310803  15.181  17.317  10.289 -0.0485 -0.1740  0.0554
  676loPI   PO410804  15.638  17.152   9.959  0.0838 -0.0780  0.1353
  676loPI   GL110805  15.666  17.376   9.629  0.0673  0.2378  0.0899
  676loPI   GL210806  15.383  17.138   9.508 -0.1384 -0.2401 -0.3522
  676loPI   C1A10807  15.833  17.462   9.226  0.0429 -0.2890  0.0236
  676loPI   C2A10808  15.848  17.502   8.830 -0.3754 -0.1166  0.1659
  676loPI   C3A10809  15.819  17.212   8.586  0.2658  0.0621  0.1595
  676loPI   C4A10810  15.659  16.763   8.675  0.2390  0.2974 -0.1809
  676loPI   C5A10811  15.501  16.388   8.525  0.0362  0.1197  0.0238
  676loPI   C6A10812  15.659  16.043   8.648  0.4317 -0.1782 -0.1612
  676loPI   C1B10813  15.502  17.126   9.046  0.1139 -0.0678  0.0551
  676loPI   C2B10814  15.309  17.110   8.578 -0.2226 -0.2049 -0.0013
  676loPI   C3B10815  15.495  16.852   8.167 -0.1949 -0.0075 -0.2820
  676loPI   C4B10816  15.895  16.692   8.178  0.2103  0.2371 -0.3365
  677PSPI    C110817  11.622   4.275   5.612  0.0941 -0.0089  0.1235
  677PSPI    C210818  11.483   4.628   5.484  0.0979 -0.0925 -0.1157
  677PSPI    C310819  11.673   4.383   5.230  0.2817 -0.1765  0.0994
  677PSPI   PO410820  11.791   4.358   5.871 -0.0581  0.0345 -0.0622
  677PSPI   GL110821  11.629   4.294   6.252  0.0836 -0.0968  0.0343
  677PSPI   GL210822  11.418   4.003   6.087  0.0919  0.1638 -0.3864
  677PSPI   C1A10823  11.886   4.193   6.586  0.2842 -0.0463  0.0125
  677PSPI   C2A10824  11.984   4.392   6.978  0.1019  0.0173 -0.0833
  677PSPI   C3A10825  12.040   4.610   7.319 -0.0047  0.0901 -0.0053
  677PSPI   C4A10826  12.383   4.553   7.703 -0.0521 -0.0614 -0.1220
  677PSPI   C1B10827  11.636   3.798   6.372 -0.0949 -0.0952 -0.1995
  677PSPI   C2B10828  11.654   3.324   6.569  0.1994 -0.2639 -0.2035
  677PSPI   C3B10829  11.848   3.287   6.926  0.0865  0.1639 -0.1272
  677PSPI   C4B10830  11.576   3.485   7.161 -0.1383  0.0406 -0.2775
  678PSPI    C110831  15.143   0.864   5.138 -0.0269  0.0171 -0.0137
  678PSPI    C210832  15.478   0.691   5.003 -0.0292  0.0512 -0.0638
  678PSPI    C310833  15.121   0.540   4.904 -0.0278 -0.0128  0.0278
  678PSPI   PO410834  15.290   0.912   5.432 -0.4067 -0.0088  0.2275
  678PSPI   GL110835  15.672   0.855   5.740 -0.1277  0.0976  0.1385
  678PSPI   GL210836  15.877   0.607   5.863 -0.2761 -0.0345  0.1093
  678PSPI   C1A10837  15.655   0.850   6.211 -0.0086  0.1476  0.2202
  678PSPI   C2A10838  15.438   0.897   6.569  0.0519 -0.4953 -0.0424
  678PSPI   C3A10839  15.359   0.755   6.942  0.1209 -0.0684  0.1835
  678PSPI   C4A10840  15.210   0.887   7.361 -0.1120  0.2756  0.3242
  678PSPI   C1B10841  15.837   0.422   6.313  0.0952 -0.0083  0.3274
  678PSPI   C2B10842  15.695   0.347   6.791 -0.2533  0.0309  0.0310
  678PSPI   C3B10843  15.671   0.483   7.217 -0.1891 -0.0653  0.0395
  678PSPI   C4B10844  15.596   0.596   7.576 -0.3576 -0.1937 -0.0771
  679PSPI    C110845  16.335   0.350   5.257  0.1684 -0.0384  0.0808
  679PSPI    C210846  16.711   0.231   5.324  0.2344  0.1587  0.0695
  679PSPI    C310847  16.481   0.032   5.064  0.2427 -0.1216  0.2721
  679PSPI   PO410848  16.223   0.347   5.531  0.0962  0.1550 -0.1427
  679PSPI   GL110849  16.454   0.355   5.957  0.3441 -0.1517 -0.0259
  679PSPI   GL210850  16.341   0.587   6.104  0.3283 -0.3487  0.0294
  679PSPI   C1A10851  16.609   0.251   6.357 -0.1212  0.1650  0.0873
  679PSPI   C2A10852  16.636   0.259   6.652 -0.2838  0.1249 -0.1915
  679PSPI   C3A10853  16.726   0.289   7.060 -0.2409  0.1712  0.2519
  679PSPI   C4A10854  16.734   0.335   7.504  0.1768 -0.1002 -0.1161
  679PSPI   C1B10855  16.218   0.568   6.565 -0.0749 -0.4196 -0.0079
  679PSPI   C2B10856  16.278   0.340   7.048  0.2601  0.2148 -0.1260
  679PSPI   C3B10857  16.127   0.409   7.420  0.1397 -0.0445 -0.0333
  679PSPI   C4B10858  15.934   0.267   7.745 -0.0483  0.1226  0.3330
  680PSPI    C110859   4.174  14.109   5.310  0.0450 -0.0708 -0.0386
  680PSPI    C210860   4.373  14.371   5.081  0.1038 -0.0017  0.0905
  680PSPI    C310861   3.992  14.280   4.997  0.0895  0.1098  0.0327
  680PSPI   PO410862   4.200  14.104   5.507 -0.2697 -0.0433  0.0446
  680PSPI   GL110863   4.535  14.168   5.638 -0.1743  0.0719  0.0880
  680PSPI   GL210864   4.602  14.448   5.799  0.1070  0.0695  0.1810
  680PSPI   C1A10865   4.697  13.937   5.995 -0.0763 -0.2429 -0.1618
  680PSPI   C2A10866   4.789  14.068   6.486  0.0722  0.0764  0.0340
  680PSPI   C3A10867   4.827  14.025   6.939  0.2848 -0.1715 -0.3935
  680PSPI   C4A10868   5.020  13.924   7.344 -0.3649 -0.1357  0.0328
  680PSPI   C1B10869   4.713  14.570   6.199 -0.4916  0.0387 -0.1415
  680PSPI   C2B10870   4.710  14.579   6.533 -0.0809  0.0507  0.0952
  680PSPI   C3B10871   4.764  14.701   6.972  0.0914 -0.0268 -0.0849
  680PSPI   C4B10872   4.744  15.024   7.351 -0.2734  0.3914 -0.1931
  681PSPI    C110873   4.000   5.224   5.024 -0.1316  0.0870  0.1046
  681PSPI    C210874   4.093   4.835   5.031 -0.0725  0.0997  0.0471
  681PSPI    C310875   3.866   4.980   4.736 -0.1478  0.0973  0.1035
  681PSPI   PO410876   3.888   5.302   5.314 -0.1202  0.2533  0.2093
  681PSPI   GL110877   4.244   5.419   5.672 -0.4415  0.1779  0.1287
  681PSPI   GL210878   3.988   5.299   5.781 -0.2205 -0.1124  0.1396
  681PSPI   C1A10879   4.471   5.474   6.110  0.1736 -0.0107  0.0925
  681PSPI   C2A10880   4.433   5.576   6.584  0.0639 -0.0464 -0.0708
  681PSPI   C3A10881   4.762   5.619   6.885 -0.0632  0.0700 -0.4267
  681PSPI   C4A10882   4.906   5.648   7.312  0.1695 -0.3858  0.4395
  681PSPI   C1B10883   3.976   5.274   6.229 -0.0230 -0.2043 -0.0147
  681PSPI   C2B10884   3.968   5.436   6.715  0.0351  0.0928  0.1209
  681PSPI   C3B10885   3.802   5.385   7.101  0.0885  0.0140 -0.0579
  681PSPI   C4B10886   3.484   5.349   7.318  0.0424 -0.1742  0.3485
  682PSPI    C110887  14.597   9.325   5.667 -0.2627 -0.2020 -0.1665
  682PSPI    C210888  14.796   9.179   5.352 -0.0751 -0.1375 -0.0791
  682PSPI    C310889  14.766   9.575   5.404 -0.0835 -0.1479 -0.0021
  682PSPI   PO410890  14.354   9.269   5.746 -0.0719 -0.0997 -0.0905
  682PSPI   GL110891  14.245   9.171   6.056 -0.2326 -0.0173 -0.2488
  682PSPI   GL210892  14.561   9.328   6.172 -0.0271 -0.2773 -0.0595
  682PSPI   C1A10893  14.037   9.388   6.360 -0.1584 -0.3463 -0.0113
  682PSPI   C2A10894  14.045   9.411   6.799 -0.1917 -0.1267  0.1614
  682PSPI   C3A10895  14.022   9.496   7.301 -0.1990  0.0484  0.1827
  682PSPI   C4A10896  14.317   9.335   7.594  0.1700 -0.1095 -0.0483
  682PSPI   C1B10897  14.442   9.099   6.531 -0.0901  0.1196 -0.1277
  682PSPI   C2B10898  14.367   9.108   6.926 -0.1579 -0.1005 -0.1686
  682PSPI   C3B10899  14.261   8.884   7.302  0.1583  0.3307  0.0110
  682PSPI   C4B10900  14.307   8.423   7.516 -0.2672 -0.0331 -0.1587
  683PSPI    C110901  17.180   6.007   5.363  0.1613  0.1361 -0.1058
  683PSPI    C210902  17.520   5.796   5.350 -0.0799 -0.2562 -0.2076
  683PSPI    C310903  17.350   5.923   5.011  0.0612  0.1050 -0.1470
  683PSPI   PO410904  17.185   6.271   5.484  0.1840  0.2186 -0.1036
  683PSPI   GL110905  17.472   6.415   5.821 -0.1376  0.2076 -0.2818
  683PSPI   GL210906  17.279   6.359   6.068 -0.3157 -0.1746 -0.0497
  683PSPI   C1A10907  17.879   6.184   5.892 -0.3523  0.1336  0.1093
  683PSPI   C2A10908  18.230   6.082   5.966  0.3726  0.1335  0.2845
  683PSPI   C3A10909  18.435   5.989   6.379 -0.0887 -0.1186  0.1797
  683PSPI   C4A10910  18.715   5.599   6.573 -0.1264 -0.0107  0.1227
  683PSPI   C1B10911  17.432   6.104   6.377  0.0750 -0.4195  0.2137
  683PSPI   C2B10912  17.278   6.154   6.785 -0.2538 -0.0631  0.2351
  683PSPI   C3B10913  17.262   6.181   7.236  0.2951 -0.0525 -0.4452
  683PSPI   C4B10914  17.347   6.489   7.495  0.1839 -0.1437  0.1485
  684PSPI    C110915  10.410   2.098   5.517  0.0463  0.0828  0.2127
  684PSPI    C210916  10.095   1.855   5.474  0.0623  0.1021 -0.0279
  684PSPI    C310917  10.140   2.169   5.230  0.2642  0.1036  0.0098
  684PSPI   PO410918  10.510   2.102   5.688 -0.1398  0.0517  0.2319
  684PSPI   GL110919  10.492   2.097   6.097  0.3385 -0.1847  0.1319
  684PSPI   GL210920  10.784   2.278   6.154  0.0478  0.1680  0.1597
  684PSPI   C1A10921  10.446   2.060   6.576  0.1352 -0.1328  0.0595
  684PSPI   C2A10922  10.740   2.190   6.822 -0.0804  0.1998  0.1741
  684PSPI   C3A10923  10.965   2.100   7.094  0.2905  0.1472 -0.0078
  684PSPI   C4A10924  10.950   1.881   7.525 -0.4375 -0.3222 -0.2828
  684PSPI   C1B10925  10.959   1.978   6.423  0.3272  0.1140 -0.1665
  684PSPI   C2B10926  11.108   1.677   6.682 -0.0424 -0.4749  0.1161
  684PSPI   C3B10927  11.253   1.664   7.096  0.0454  0.1554 -0.0422
  684PSPI   C4B10928  11.423   1.413   7.495  0.2034  0.2924  0.1309
  685PSPI    C110929   7.873   9.472   5.245  0.1806 -0.1276 -0.0280
  685PSPI    C210930   8.179   9.214   5.249  0.1336 -0.1883 -0.2098
  685PSPI    C310931   7.922   9.215   4.943 -0.1990 -0.3121  0.0619
  685PSPI   PO410932   7.863   9.551   5.503  0.0117  0.0238  0.0685
  685PSPI   GL110933   8.068   9.872   5.799  0.0488  0.3863  0.1186
  685PSPI   GL210934   8.218   9.601   5.839  0.0237 -0.1928 -0.2344
  685PSPI   C1A10935   8.176  10.012   6.263  0.0574 -0.0890 -0.0367
  685PSPI   C2A10936   8.392   9.947   6.743 -0.0358  0.1345  0.1418
  685PSPI   C3A10937   8.263   9.883   7.134  0.2249  0.0235 -0.0007
  685PSPI   C4A10938   8.047   9.869   7.524  0.0066 -0.2261 -0.4220
  685PSPI   C1B10939   8.260   9.204   6.044  0.1224  0.0995  0.0794
  685PSPI   C2B10940   8.068   9.083   6.447 -0.1629  0.2024  0.0424
  685PSPI   C3B10941   7.867   9.233   6.821  0.1285 -0.0967  0.6351
  685PSPI   C4B10942   7.587   9.155   7.150  0.0828 -0.0381  0.0265
  686PSPI    C110943   5.968   6.122   5.232 -0.0449  0.2157 -0.1168
  686PSPI    C210944   5.957   5.838   4.950  0.1194  0.0611  0.0297
  686PSPI    C310945   5.626   5.930   5.155  0.0481  0.0291 -0.0708
  686PSPI   PO410946   6.184   6.045   5.437  0.0943 -0.0026  0.0761
  686PSPI   GL110947   6.208   6.186   5.966  0.0347  0.1466  0.0926
  686PSPI   GL210948   6.488   6.310   5.943 -0.0238  0.0078  0.1993
  686PSPI   C1A10949   6.179   5.937   6.447 -0.1592  0.0058  0.1206
  686PSPI   C2A10950   6.283   5.546   6.544  0.0620 -0.1853  0.2164
  686PSPI   C3A10951   6.470   5.376   6.927  0.1259  0.0095 -0.0265
  686PSPI   C4A10952   6.708   5.316   7.290 -0.2616 -0.1521  0.0401
  686PSPI   C1B10953   6.639   6.224   6.336 -0.4048  0.0342  0.1611
  686PSPI   C2B10954   6.621   5.999   6.708  0.0005 -0.5873 -0.0003
  686PSPI   C3B10955   6.625   5.859   7.047  0.1658 -0.0398 -0.2054
  686PSPI   C4B10956   6.367   5.815   7.442 -0.3451  0.2143  0.1271
  687PSPI    C110957  14.444  12.998   5.500  0.0083 -0.3746 -0.2296
  687PSPI    C210958  14.063  12.992   5.378  0.0455 -0.2402 -0.3556
  687PSPI    C310959  14.356  13.061   5.115  0.1381 -0.0923 -0.2162
  687PSPI   PO410960  14.405  12.748   5.689 -0.2304  0.1216  0.4279
  687PSPI   GL110961  14.127  12.650   6.000  0.2175 -0.3155 -0.0159
  687PSPI   GL210962  13.801  12.801   6.055 -0.2216  0.1094  0.0606
  687PSPI   C1A10963  14.164  12.787   6.485  0.0246 -0.0483  0.1577
  687PSPI   C2A10964  13.998  12.892   6.856  0.1979  0.2179 -0.0366
  687PSPI   C3A10965  13.961  12.514   7.202 -0.0402 -0.0027  0.1764
  687PSPI   C4A10966  13.610  12.430   7.354 -0.0286  0.0873  0.0260
  687PSPI   C1B10967  13.626  12.761   6.441  0.0424 -0.2963  0.2289
  687PSPI   C2B10968  13.424  12.569   6.844 -0.0567  0.1308 -0.0822
  687PSPI   C3B10969  13.067  12.689   7.249 -0.0373 -0.1907  0.2405
  687PSPI   C4B10970  12.941  12.715   7.679  0.1569 -0.0296  0.0451
  688PSPI    C110971   8.432  17.252   5.612 -0.1030 -0.0221 -0.2153
  688PSPI    C210972   8.072  17.426   5.596 -0.1415 -0.0608  0.1375
  688PSPI    C310973   8.307  17.482   5.915  0.0850 -0.1938 -0.0033
  688PSPI   PO410974   8.434  17.021   5.680 -0.0582  0.4009  0.2625
  688PSPI   GL110975   8.370  16.702   5.992  0.0862 -0.0402  0.1830
  688PSPI   GL210976   8.091  16.606   6.100  0.0113 -0.0828 -0.0088
  688PSPI   C1A10977   8.577  16.303   6.179 -0.0682  0.0203  0.0516
  688PSPI   C2A10978   8.516  16.176   6.610 -0.0343  0.1934  0.0752
  688PSPI   C3A10979   8.570  16.119   7.131 -0.3242 -0.0871 -0.1008
  688PSPI   C4A10980   8.523  15.906   7.495 -0.1937  0.3385  0.1190
  688PSPI   C1B10981   8.026  16.170   6.272  0.0629 -0.1884  0.1329
  688PSPI   C2B10982   8.007  16.081   6.646  0.0520 -0.0238 -0.0033
  688PSPI   C3B10983   8.101  16.132   7.119  0.3421  0.1184  0.0142
  688PSPI   C4B10984   8.069  16.110   7.538 -0.2751 -0.0965 -0.1959
  689PSPI    C110985  12.236   8.102   5.462  0.0877 -0.0999 -0.1366
  689PSPI    C210986  12.496   8.384   5.577  0.1705 -0.1564 -0.1853
  689PSPI    C310987  12.110   8.476   5.530  0.1616 -0.0979 -0.0057
  689PSPI   PO410988  12.264   7.871   5.626 -0.1910 -0.0214 -0.0281
  689PSPI   GL110989  12.495   7.513   5.858 -0.0708 -0.3229 -0.2494
  689PSPI   GL210990  12.792   7.505   5.977  0.0258  0.0381 -0.0962
  689PSPI   C1A10991  12.386   7.512   6.291  0.1022  0.1702  0.1508
  689PSPI   C2A10992  12.531   7.577   6.681  0.4862  0.1617  0.0974
  689PSPI   C3A10993  12.535   7.552   7.125 -0.4804  0.2065 -0.0845
  689PSPI   C4A10994  12.271   7.477   7.445 -0.2540 -0.2479 -0.1298
  689PSPI   C1B10995  12.858   7.654   6.331  0.2359  0.2151  0.2669
  689PSPI   C2B10996  13.018   7.902   6.587  0.0706  0.0940 -0.2359
  689PSPI   C3B10997  13.126   8.220   6.878  0.3934  0.0773  0.1740
  689PSPI   C4B10998  13.465   8.116   7.207 -0.3023 -0.1520  0.0776
  690PSPI    C110999   5.281   7.998   5.245 -0.0635 -0.1591  0.1000
  690PSPI    C211000   5.627   7.924   5.058 -0.0048 -0.0323  0.1570
  690PSPI    C311001   5.361   7.630   5.111 -0.1296 -0.0197 -0.3417
  690PSPI   PO411002   5.324   8.192   5.505  0.0470  0.0959 -0.0447
  690PSPI   GL111003   5.490   8.154   5.939 -0.0934  0.1886 -0.1205
  690PSPI   GL211004   5.442   7.869   6.067 -0.0537 -0.2165  0.3579
  690PSPI   C1A11005   5.360   8.271   6.260 -0.1815 -0.1946 -0.1733
  690PSPI   C2A11006   5.226   8.706   6.374 -0.1129 -0.4088 -0.0124
  690PSPI   C3A11007   5.019   9.146   6.357  0.0964 -0.2212 -0.1083
  690PSPI   C4A11008   4.870   9.450   6.041  0.0640  0.4161  0.0771
  690PSPI   C1B11009   5.542   7.691   6.406 -0.1764  0.3957  0.4683
  690PSPI   C2B11010   5.421   7.674   6.827  0.3883 -0.1043 -0.1073
  690PSPI   C3B11011   5.087   7.906   7.044 -0.0396 -0.0652  0.2004
  690PSPI   C4B11012   4.698   7.908   7.166 -0.1749 -0.2163 -0.2789
  691PSPI    C111013  17.400   7.837   5.617 -0.0048 -0.0276  0.2213
  691PSPI    C211014  17.396   8.197   5.445 -0.1228 -0.1537 -0.0455
  691PSPI    C311015  17.055   8.034   5.573 -0.0850 -0.2183 -0.0263
  691PSPI   PO411016  17.642   7.902   5.793 -0.3711 -0.0682  0.0796
  691PSPI   GL111017  17.987   7.699   6.039  0.1625 -0.1740 -0.1377
  691PSPI   GL211018  17.912   7.762   6.399 -0.1412 -0.2234  0.0174
  691PSPI   C1A11019  18.322   7.471   6.283 -0.0297  0.3391 -0.1940
  691PSPI   C2A11020  18.321   7.344   6.665  0.0622  0.2607  0.2275
  691PSPI   C3A11021  18.055   7.335   6.942 -0.1428  0.3072 -0.1089
  691PSPI   C4A11022  17.622   7.453   7.106 -0.0895 -0.4687 -0.1135
  691PSPI   C1B11023  17.838   7.779   6.829  0.0897 -0.0575  0.1979
  691PSPI   C2B11024  17.751   7.903   7.281  0.1601  0.0692 -0.1126
  691PSPI   C3B11025  17.607   7.955   7.764  0.2472 -0.1091  0.2340
  691PSPI   C4B11026  17.663   7.681   8.088 -0.0754 -0.1845 -0.0136
  692PSPI    C111027  15.837  13.437   5.481  0.1961  0.0663 -0.1111
  692PSPI    C211028  15.679  13.369   5.119  0.1166  0.0528 -0.0740
  692PSPI    C311029  15.970  13.132   5.258 -0.0515 -0.1187 -0.0106
  692PSPI   PO411030  15.676  13.401   5.624  0.3834 -0.2622  0.1642
  692PSPI   GL111031  15.540  13.312   5.924  0.0545  0.1421 -0.1032
  692PSPI   GL211032  15.191  13.225   6.000 -0.2178 -0.3694 -0.0787
  692PSPI   C1A11033  15.600  13.407   6.310 -0.0740 -0.0221 -0.1760
  692PSPI   C2A11034  15.465  13.468   6.674  0.1619 -0.0681 -0.1361
  692PSPI   C3A11035  15.518  13.533   7.085  0.1246 -0.0351  0.1066
  692PSPI   C4A11036  15.621  13.901   7.357  0.0852 -0.0290  0.1983
  692PSPI   C1B11037  14.975  13.145   6.372 -0.0882  0.2809 -0.0062
  692PSPI   C2B11038  14.899  13.331   6.693 -0.2737 -0.2247 -0.0986
  692PSPI   C3B11039  15.044  13.262   7.150 -0.0062 -0.0070  0.1345
  692PSPI   C4B11040  14.966  13.303   7.590 -0.3346 -0.2689 -0.0069
  693PSPI    C111041   9.310   4.143   5.554  0.0546  0.1371  0.2058
  693PSPI    C211042   9.294   3.822   5.793  0.2424 -0.0689 -0.0524
  693PSPI    C311043   9.204   3.787   5.405  0.0988  0.2284 -0.0487
  693PSPI   PO411044   9.494   4.294   5.821  0.0965 -0.0310  0.1091
  693PSPI   GL111045   9.350   4.063   6.208 -0.3175  0.0735 -0.2351
  693PSPI   GL211046   9.024   4.125   6.168  0.2166 -0.2687 -0.1925
  693PSPI   C1A11047   9.463   4.342   6.482  0.1590 -0.0815  0.1107
  693PSPI   C2A11048   9.432   4.272   6.853 -0.0311 -0.4001 -0.2640
  693PSPI   C3A11049   9.680   4.311   7.276  0.3028  0.0555  0.1152
  693PSPI   C4A11050   9.914   4.414   7.605  0.1013  0.0186  0.5134
  693PSPI   C1B11051   8.914   4.203   6.596 -0.0777 -0.1399 -0.1782
  693PSPI   C2B11052   8.956   4.091   7.001  0.1577  0.2325 -0.0436
  693PSPI   C3B11053   8.886   4.333   7.346  0.2267  0.2471  0.1994
  693PSPI   C4B11054   8.935   4.285   7.835 -0.3138 -0.0720  0.0099
  694PSPI    C111055   7.003  10.278   5.342  0.0036 -0.0340  0.1784
  694PSPI    C211056   7.181  10.346   4.989 -0.0329 -0.1350  0.1403
  694PSPI    C311057   6.933  10.619   5.144  0.2436  0.0589  0.2490
  694PSPI   PO411058   7.025  10.052   5.402  0.1648 -0.0547  0.2598
  694PSPI   GL111059   6.805   9.914   5.741  0.5605 -0.0094  0.0654
  694PSPI   GL211060   6.545   9.871   5.415 -0.0339 -0.0874  0.0376
  694PSPI   C1A11061   6.788   9.816   6.089 -0.0671  0.3645  0.1529
  694PSPI   C2A11062   6.717   9.924   6.454  0.0129 -0.3177  0.1990
  694PSPI   C3A11063   6.678  10.341   6.679 -0.0291 -0.3459 -0.2062
  694PSPI   C4A11064   6.601  10.485   7.138  0.3203 -0.0283 -0.2167
  694PSPI   C1B11065   6.253  10.112   5.708 -0.1265  0.3418  0.0348
  694PSPI   C2B11066   6.073  10.327   6.062  0.2613  0.0536 -0.2610
  694PSPI   C3B11067   5.768  10.372   6.270 -0.2771  0.0342 -0.1659
  694PSPI   C4B11068   5.476  10.675   6.514 -0.1515  0.3431  0.1765
  695PSPI    C111069   3.739   0.785   4.979 -0.0333  0.3407 -0.1765
  695PSPI    C211070   3.729   1.185   4.980  0.1747  0.3480 -0.3106
  695PSPI    C311071   4.049   0.993   4.835  0.1400  0.1329 -0.1096
  695PSPI   PO411072   3.625   0.812   5.274  0.0948  0.5049 -0.1346
  695PSPI   GL111073   3.494   0.488   5.512 -0.0330  0.1459  0.0916
  695PSPI   GL211074   3.588   0.164   5.395  0.0385  0.2416 -0.2315
  695PSPI   C1A11075   3.299   0.523   5.957  0.0927 -0.1956 -0.1329
  695PSPI   C2A11076   3.289   0.623   6.326  0.2676 -0.1390  0.0090
  695PSPI   C3A11077   3.181   0.561   6.704  0.0532 -0.5865  0.0947
  695PSPI   C4A11078   3.252   0.713   7.048 -0.1569 -0.0181 -0.3886
  695PSPI   C1B11079   3.753   0.266   5.808  0.3988 -0.0916 -0.1312
  695PSPI   C2B11080   3.696   0.374   6.211  0.1720  0.2116 -0.1631
  695PSPI   C3B11081   3.573   0.269   6.581  0.0552 -0.3534 -0.0061
  695PSPI   C4B11082   3.409   0.220   7.044  0.4747  0.3257  0.0834
  696PSPI    C111083  13.463   2.250   5.772 -0.0504 -0.0600  0.0470
  696PSPI    C211084  13.144   2.483   5.714 -0.0375 -0.0859 -0.1350
  696PSPI    C311085  13.486   2.642   5.847  0.0243  0.0323 -0.4285
  696PSPI   PO411086  13.368   1.975   5.879 -0.0240  0.1501 -0.1462
  696PSPI   GL111087  13.534   1.701   6.175 -0.1750  0.1211 -0.1258
  696PSPI   GL211088  13.857   1.867   6.342  0.0252  0.1140 -0.0324
  696PSPI   C1A11089  13.488   1.560   6.629  0.1964  0.1704  0.1213
  696PSPI   C2A11090  13.301   1.654   6.969 -0.1540 -0.0545 -0.0925
  696PSPI   C3A11091  12.990   1.642   7.233 -0.1721 -0.1423  0.2379
  696PSPI   C4A11092  12.798   1.695   7.590  0.1510  0.0360  0.0590
  696PSPI   C1B11093  14.278   1.710   6.403 -0.3049 -0.1085 -0.0980
  696PSPI   C2B11094  14.820   1.615   6.460 -0.0171  0.1397  0.1408
  696PSPI   C3B11095  14.889   1.772   6.812  0.1407  0.0719 -0.2743
  696PSPI   C4B11096  14.910   1.515   7.212  0.0182  0.0729  0.1649
  697POPI    C111097   1.808   5.586   5.307  0.0217 -0.0146  0.0252
  697POPI    C211098   1.668   5.835   5.027 -0.0206  0.0229  0.0795
  697POPI    C311099   1.689   5.442   4.953  0.0633  0.0444 -0.0129
  697POPI   PO411100   1.661   5.639   5.542 -0.0911 -0.1311 -0.2388
  697POPI   GL111101   1.711   5.829   5.920 -0.0492  0.2271  0.1030
  697POPI   GL211102   1.719   5.415   6.026  0.1458 -0.1127 -0.0823
  697POPI   C1A11103   1.774   5.805   6.385  0.2399 -0.1158 -0.0184
  697POPI   D2A11104   1.495   5.663   6.727  0.2239 -0.1057  0.2063
  697POPI   C3A11105   1.668   5.804   7.185  0.0798  0.1604 -0.3409
  697POPI   C4A11106   2.014   5.945   7.445 -0.2435 -0.1092  0.1631
  697POPI   C1B11107   1.719   5.295   6.395  0.3109 -0.1317 -0.0432
  697POPI   C2B11108   1.690   5.181   6.783  0.2917  0.0871 -0.3448
  697POPI   C3B11109   1.504   5.253   7.198 -0.3842 -0.0909 -0.3498
  697POPI   C4B11110   1.510   5.113   7.618 -0.0744 -0.3160 -0.4651
  698POPI    C111111   2.022  16.669   5.087  0.2585  0.0534  0.1520
  698POPI    C211112   2.235  16.512   4.788  0.1570  0.0634  0.0740
  698POPI    C311113   2.320  16.879   4.922 -0.0390  0.2117 -0.1974
  698POPI   PO411114   1.982  16.508   5.234 -0.1692 -0.2615 -0.0264
  698POPI   GL111115   2.092  16.519   5.630 -0.2265  0.1018  0.1466
  698POPI   GL211116   2.245  16.800   5.879  0.1051 -0.2891 -0.2740
  698POPI   C1A11117   2.079  16.321   6.045  0.1314  0.0105 -0.0378
  698POPI   D2A11118   1.933  16.386   6.383 -0.0266 -0.0123  0.2716
  698POPI   C3A11119   1.518  16.337   6.531  0.2293  0.2884 -0.2270
  698POPI   C4A11120   1.077  16.085   6.450 -0.0639 -0.2243  0.0564
  698POPI   C1B11121   2.210  16.781   6.228  0.0331 -0.1456 -0.2466
  698POPI   C2B11122   2.220  16.745   6.669  0.1528 -0.2731  0.1012
  698POPI   C3B11123   1.922  16.455   6.943  0.0309  0.1757 -0.2120
  698POPI   C4B11124   1.726  16.206   7.259  0.0407  0.1700  0.0966
  699POPI    C111125   4.725  13.981   5.108 -0.1895  0.0741 -0.0793
  699POPI    C211126   4.694  13.754   4.779  0.0246 -0.0460 -0.0189
  699POPI    C311127   4.741  14.150   4.746  0.1309 -0.0680 -0.1349
  699POPI   PO411128   4.934  13.858   5.286 -0.0360  0.2466  0.0772
  699POPI   GL111129   5.046  14.137   5.575 -0.0902  0.0631 -0.4426
  699POPI   GL211130   5.322  14.214   5.616 -0.2218 -0.1359  0.3647
  699POPI   C1A11131   5.026  14.280   5.964 -0.0028  0.0168 -0.3007
  699POPI   D2A11132   5.255  14.448   6.297 -0.1120  0.1878  0.3476
  699POPI   C3A11133   5.151  14.494   6.656 -0.0482 -0.0938 -0.1128
  699POPI   C4A11134   5.145  14.409   7.058 -0.1762  0.0895 -0.1555
  699POPI   C1B11135   5.532  14.154   5.935  0.1265  0.0943 -0.0450
  699POPI   C2B11136   5.732  14.228   6.294 -0.0750 -0.2010  0.0456
  699POPI   C3B11137   5.768  14.185   6.705 -0.2761 -0.2895  0.3669
  699POPI   C4B11138   6.033  14.239   7.138  0.0314 -0.1676 -0.0098
  700POPI    C111139   2.380  13.829   5.179  0.0346 -0.2243 -0.0467
  700POPI    C211140   2.396  13.966   4.803 -0.1247  0.1161  0.0671
  700POPI    C311141   2.734  13.901   5.007 -0.0392 -0.0208 -0.1161
  700POPI   PO411142   2.237  14.004   5.320 -0.3164 -0.0314  0.0657
  700POPI   GL111143   2.332  14.074   5.803  0.2568  0.1360 -0.0114
  700POPI   GL211144   2.499  14.326   5.961  0.1088 -0.2188  0.1428
  700POPI   C1A11145   2.352  13.881   6.142  0.0561  0.0120  0.1949
  700POPI   D2A11146   2.273  13.721   6.422 -0.0787  0.2679  0.2654
  700POPI   C3A11147   2.226  13.935   6.761 -0.0160  0.0053 -0.3848
  700POPI   C4A11148   2.441  13.870   7.119  0.0089 -0.0522  0.0212
  700POPI   C1B11149   2.209  14.362   6.359 -0.1363  0.0517 -0.0961
  700POPI   C2B11150   1.950  14.378   6.726 -0.0738  0.3708 -0.0656
  700POPI   C3B11151   1.675  14.282   7.005  0.0607  0.0936 -0.3796
  700POPI   C4B11152   1.423  13.950   7.259  0.1504 -0.0486  0.1958
  701POPI    C111153   9.422   7.290   5.522 -0.3303  0.3378 -0.0330
  701POPI    C211154   9.452   7.678   5.430  0.2027  0.2830 -0.1250
  701POPI    C311155   9.408   7.407   5.139  0.3908  0.2313 -0.1065
  701POPI   PO411156   9.567   7.354   5.797 -0.0193 -0.1307  0.0194
  701POPI   GL111157   9.808   7.486   6.142  0.1478  0.1473 -0.0560
  701POPI   GL211158  10.082   7.425   6.142 -0.1668  0.1118  0.0539
  701POPI   C1A11159   9.852   7.622   6.540 -0.4507 -0.1252  0.0966
  701POPI   D2A11160  10.064   7.788   6.883  0.2564  0.0576  0.1757
  701POPI   C3A11161   9.958   7.707   7.345 -0.1681 -0.3339  0.2306
  701POPI   C4A11162   9.864   7.718   7.750 -0.0189 -0.0962  0.0501
  701POPI   C1B11163  10.211   7.175   6.518 -0.1500 -0.0258  0.1602
  701POPI   C2B11164  10.019   7.259   6.854 -0.2436  0.2957  0.0777
  701POPI   C3B11165   9.925   7.150   7.266 -0.0408 -0.3196  0.1381
  701POPI   C4B11166   9.519   7.219   7.388 -0.0835 -0.1186  0.2353
  702POPI    C111167  17.928  10.077   5.340 -0.0493  0.1085  0.1953
  702POPI    C211168  17.740  10.355   5.122 -0.1666 -0.2000 -0.1052
  702POPI    C311169  18.107  10.233   5.018  0.0537  0.1254  0.2599
  702POPI   PO411170  17.939  10.248   5.610 -0.0572 -0.1239  0.0624
  702POPI   GL111171  18.053  10.308   5.993  0.1408 -0.2927 -0.2724
  702POPI   GL211172  18.162  10.211   6.251 -0.0113  0.2787  0.2855
  702POPI   C1A11173  17.742  10.469   6.302  0.0560 -0.1396 -0.1590
  702POPI   D2A11174  17.400  10.552   6.379  0.2649 -0.0589 -0.0631
  702POPI   C3A11175  17.395  10.526   6.791  0.1146 -0.0779 -0.1086
  702POPI   C4A11176  17.263  10.555   7.182 -0.1326 -0.2644  0.0401
  702POPI   C1B11177  17.989  10.213   6.697 -0.0183  0.4210 -0.0516
  702POPI   C2B11178  18.045  10.039   7.156  0.2157 -0.0848  0.0296
  702POPI   C3B11179  18.085  10.032   7.602  0.1414  0.1078  0.0171
  702POPI   C4B11180  18.014   9.966   7.998 -0.0304  0.0108 -0.0097
  703POPI    C111181   9.011  12.886   5.585  0.1272  0.1278 -0.0189
  703POPI    C211182   8.789  13.218   5.560 -0.3829 -0.2078 -0.0918
  703POPI    C311183   9.003  13.096   5.245 -0.2598  0.0031 -0.0917
  703POPI   PO411184   8.850  12.724   5.802 -0.0377  0.0007 -0.0791
  703POPI   GL111185   8.768  13.009   6.162 -0.1122  0.1729  0.1370
  703POPI   GL211186   8.975  13.279   6.071 -0.3812  0.1138 -0.1129
  703POPI   C1A11187   8.519  12.743   6.383 -0.1949  0.0717  0.2755
  703POPI   D2A11188   8.329  12.446   6.754  0.2106  0.3275  0.1279
  703POPI   C3A11189   8.229  12.612   7.215 -0.1557  0.2380 -0.0288
  703POPI   C4A11190   8.282  12.699   7.696 -0.1390  0.0508  0.0040
  703POPI   C1B11191   9.115  13.246   6.521 -0.0722  0.0345  0.0252
  703POPI   C2B11192   9.118  13.359   6.945  0.3210  0.1270 -0.2514
  703POPI   C3B11193   8.863  13.302   7.408 -0.1302 -0.2346 -0.0370
  703POPI   C4B11194   8.950  13.476   7.835 -0.1447 -0.2497  0.1423
  704POPI    C111195   6.071   8.164   5.450 -0.1566  0.1617 -0.0268
  704POPI    C211196   5.953   8.288   5.088 -0.1058  0.2201 -0.0235
  704POPI    C311197   6.139   7.936   5.128 -0.2099  0.1630 -0.0390
  704POPI   PO411198   6.213   8.363   5.577 -0.0037 -0.0953  0.0664
  704POPI   GL111199   6.035   8.431   5.925  0.0339 -0.0056  0.0891
  704POPI   GL211200   5.892   8.758   5.789  0.0096  0.0465 -0.0670
  704POPI   C1A11201   6.206   8.521   6.279 -0.0422  0.0018  0.0171
  704POPI   D2A11202   6.175   8.278   6.635  0.1544  0.0986  0.1763
  704POPI   C3A11203   6.086   8.376   7.084  0.1761  0.1827  0.1655
  704POPI   C4A11204   6.317   8.347   7.429  0.1234 -0.2942 -0.0392
  704POPI   C1B11205   5.698   8.765   6.236 -0.3546  0.0524 -0.2103
  704POPI   C2B11206   5.729   8.664   6.675 -0.0538  0.2151 -0.1415
  704POPI   C3B11207   5.605   8.542   7.023  0.0676  0.1445  0.0120
  704POPI   C4B11208   5.701   8.618   7.423 -0.0548 -0.0790 -0.3103
  705POPI    C111209  14.728   3.956   5.396 -0.0994  0.0880 -0.3975
  705POPI    C211210  14.637   3.588   5.268 -0.3439  0.0002  0.0108
  705POPI    C311211  14.354   3.871   5.282 -0.1837  0.1737 -0.1904
  705POPI   PO411212  14.959   3.935   5.547  0.0543 -0.2458  0.0421
  705POPI   GL111213  14.917   3.936   5.985  0.0576  0.1725 -0.3216
  705POPI   GL211214  14.782   4.266   5.891  0.2175  0.0604  0.4045
  705POPI   C1A11215  15.088   3.961   6.427  0.1211 -0.0714  0.0215
  705POPI   D2A11216  15.326   4.189   6.677  0.0377  0.0721  0.2196
  705POPI   C3A11217  15.207   4.629   6.696 -0.0415  0.2252 -0.1152
  705POPI   C4A11218  15.467   4.955   6.650 -0.0849 -0.3261  0.0554
  705POPI   C1B11219  14.791   4.415   6.309 -0.0211 -0.0184  0.1403
  705POPI   C2B11220  14.825   4.327   6.677 -0.0065  0.0042 -0.3653
  705POPI   C3B11221  14.807   3.999   6.985 -0.0524 -0.1295  0.0706
  705POPI   C4B11222  15.075   3.690   6.899 -0.2528  0.1372  0.1692
  706POPI    C111223  11.310  12.976   5.490  0.0388 -0.0108 -0.2899
  706POPI    C211224  11.388  12.667   5.248 -0.0905 -0.2394 -0.0461
  706POPI    C311225  11.012  12.743   5.359 -0.0802  0.1094 -0.2350
  706POPI   PO411226  11.493  12.905   5.655 -0.0956 -0.1199 -0.0757
  706POPI   GL111227  11.530  12.889   6.018 -0.2186 -0.2420  0.3202
  706POPI   GL211228  11.652  12.643   6.089  0.2734  0.0837 -0.3193
  706POPI   C1A11229  11.553  13.172   6.505  0.1022 -0.3062 -0.1068
  706POPI   D2A11230  11.638  13.047   6.914 -0.0060 -0.1882  0.2728
  706POPI   C3A11231  11.606  13.396   7.044 -0.0882 -0.0777  0.1118
  706POPI   C4A11232  11.448  13.750   7.398 -0.1799  0.1434 -0.0328
  706POPI   C1B11233  11.333  12.675   6.520 -0.2993  0.1073  0.1561
  706POPI   C2B11234  11.217  12.730   6.915 -0.2926 -0.1872 -0.2223
  706POPI   C3B11235  10.927  12.627   7.325  0.2620  0.0169 -0.0188
  706POPI   C4B11236  10.705  12.267   7.445 -0.1148 -0.1807 -0.3017
  707POPI    C111237   7.314  11.650   5.157  0.2073 -0.0640  0.0550
  707POPI    C211238   7.043  11.944   5.143  0.0252 -0.2257  0.1392
  707POPI    C311239   7.353  11.945   4.890  0.0834  0.0923  0.2074
  707POPI   PO411240   7.253  11.572   5.488  0.2448 -0.1460  0.1088
  707POPI   GL111241   7.341  11.372   5.870  0.0290 -0.2393 -0.2118
  707POPI   GL211242   7.192  11.096   5.819 -0.1952 -0.2683 -0.2363
  707POPI   C1A11243   6.960  11.327   6.139 -0.0027 -0.0398  0.2243
  707POPI   D2A11244   6.662  11.644   6.241 -0.0236  0.0768  0.0906
  707POPI   C3A11245   6.476  11.717   6.636  0.1076 -0.1097 -0.1506
  707POPI   C4A11246   6.518  11.886   6.954  0.1453 -0.2802 -0.1381
  707POPI   C1B11247   7.387  11.131   6.289 -0.0970 -0.0598  0.0420
  707POPI   C2B11248   7.423  11.006   6.713 -0.2603  0.1082  0.2017
  707POPI   C3B11249   7.304  10.881   7.004  0.2424 -0.2253  0.0624
  707POPI   C4B11250   7.263  11.117   7.392  0.0294 -0.1205  0.0969
  708POPI    C111251  13.601  10.598   5.546  0.0581 -0.2248 -0.0005
  708POPI    C211252  13.595  10.198   5.543  0.0976 -0.2249 -0.1602
  708POPI    C311253  13.706  10.398   5.215  0.0338 -0.0821 -0.0953
  708POPI   PO411254  13.701  10.615   5.798 -0.0958 -0.2734  0.0073
  708POPI   GL111255  14.054  10.767   6.137 -0.1457 -0.1552 -0.0558
  708POPI   GL211256  14.377  10.683   5.989  0.2740 -0.0974  0.1021
  708POPI   C1A11257  14.252  10.704   6.443 -0.1677  0.2333 -0.0393
  708POPI   D2A11258  14.561  10.712   6.795  0.0947 -0.0035 -0.1475
  708POPI   C3A11259  14.716  11.070   7.058  0.3993  0.0746 -0.5944
  708POPI   C4A11260  14.437  11.476   7.199 -0.0774  0.1742  0.0197
  708POPI   C1B11261  14.761  10.769   6.224 -0.1677  0.0267 -0.1938
  708POPI   C2B11262  14.965  10.562   6.553  0.3160 -0.0965  0.2367
  708POPI   C3B11263  15.041  10.649   7.004 -0.1564  0.1689  0.1739
  708POPI   C4B11264  15.081  10.555   7.455 -0.1950  0.4128 -0.3530
  709POPI    C111265   2.121   6.855   5.437  0.0777  0.3942 -0.2620
  709POPI    C211266   2.012   6.484   5.335  0.2110  0.1856  0.3128
  709POPI    C311267   1.970   6.784   5.074  0.0770 -0.2240 -0.1521
  709POPI   PO411268   2.088   6.883   5.729 -0.1628 -0.1208  0.2486
  709POPI   GL111269   2.089   6.745   6.139  0.2708 -0.2875 -0.0925
  709POPI   GL211270   2.210   6.556   6.341  0.3188 -0.5182  0.1435
  709POPI   C1A11271   1.716   6.901   6.420 -0.3212  0.0232 -0.1338
  709POPI   D2A11272   1.725   7.084   6.847 -0.1296  0.0508  0.1872
  709POPI   C3A11273   1.520   7.225   7.116 -0.2057 -0.2331  0.0269
  709POPI   C4A11274   1.285   7.492   7.361 -0.1288 -0.2046 -0.0894
  709POPI   C1B11275   2.436   6.467   6.766  0.0397 -0.0798  0.0097
  709POPI   C2B11276   2.428   6.352   7.131 -0.1265  0.0525  0.0830
  709POPI   C3B11277   2.559   6.097   7.479  0.1961 -0.0874 -0.2505
  709POPI   C4B11278   2.509   5.738   7.815  0.2342  0.0639  0.2287
  710POPI    C111279   2.298  12.082   5.418 -0.1036  0.0018 -0.0540
  710POPI    C211280   1.978  12.257   5.255  0.1500  0.1979 -0.3537
  710POPI    C311281   2.339  12.306   5.089  0.3211 -0.1102 -0.0845
  710POPI   PO411282   2.163  11.806   5.488  0.1261  0.0226  0.0802
  710POPI   GL111283   2.094  11.654   5.884 -0.0459  0.2578 -0.0350
  710POPI   GL211284   2.397  11.441   5.947 -0.0461 -0.1282 -0.0064
  710POPI   C1A11285   1.850  11.885   6.333  0.0252  0.0445 -0.0142
  710POPI   D2A11286   1.660  12.147   6.595 -0.1328 -0.3617  0.1687
  710POPI   C3A11287   1.891  12.190   6.993 -0.1115  0.1695 -0.3805
  710POPI   C4A11288   1.978  12.234   7.474 -0.0301 -0.0185 -0.4138
  710POPI   C1B11289   2.447  11.686   6.326 -0.3385  0.1369  0.0089
  710POPI   C2B11290   2.630  11.831   6.732 -0.0448 -0.1802  0.1829
  710POPI   C3B11291   2.717  11.730   7.120  0.2369 -0.0084 -0.1806
  710POPI   C4B11292   2.923  11.954   7.447  0.1687 -0.3464  0.0640
  711POPI    C111293  18.531   5.217   5.354  0.0278 -0.0850  0.0582
  711POPI    C211294  18.250   5.120   5.086  0.0877 -0.0844 -0.0048
  711POPI    C311295  18.579   5.316   4.970  0.0513  0.0348  0.0915
  711POPI   PO411296  18.645   5.021   5.536  0.0999 -0.2543  0.0833
  711POPI   GL111297  18.718   4.865   5.961  0.0703  0.1176  0.1065
  711POPI   GL211298  18.606   4.658   6.196 -0.0504 -0.4744  0.0994
  711POPI   C1A11299  18.713   5.153   6.293  0.1413 -0.3251  0.0896
  711POPI   D2A11300  19.036   5.245   6.578  0.2456 -0.2813 -0.0544
  711POPI   C3A11301  19.181   5.709   6.700  0.2967  0.1810  0.1379
  711POPI   C4A11302  18.956   6.030   6.634 -0.0121 -0.2931  0.1505
  711POPI   C1B11303  18.645   4.776   6.636  0.2599 -0.0453  0.1059
  711POPI   C2B11304  18.607   5.082   6.814  0.0065 -0.1803 -0.0677
  711POPI   C3B11305  18.687   5.462   7.018 -0.1301 -0.0009  0.3061
  711POPI   C4B11306  18.967   5.835   7.119  0.0176  0.2769  0.1149
  712POPI    C111307   2.710   2.081   5.195  0.2318 -0.0657 -0.0211
  712POPI    C211308   2.841   2.457   5.156 -0.2959  0.1313  0.0252
  712POPI    C311309   2.866   2.203   4.847  0.2336  0.1412  0.0512
  712POPI   PO411310   2.431   2.062   5.355  0.2984 -0.1020  0.3056
  712POPI   GL111311   2.244   1.785   5.574 -0.0598  0.0270  0.1161
  712POPI   GL211312   2.536   1.664   5.673 -0.1620  0.2004  0.1015
  712POPI   C1A11313   2.068   1.892   5.913 -0.2263  0.0465  0.0399
  712POPI   D2A11314   1.682   2.096   6.128 -0.3180 -0.2517 -0.0435
  712POPI   C3A11315   1.420   2.396   5.826 -0.0988  0.2589  0.2375
  712POPI   C4A11316   1.058   2.682   5.640 -0.6700  0.1221  0.1307
  712POPI   C1B11317   2.538   1.728   6.192 -0.1933 -0.3428  0.0562
  712POPI   C2B11318   2.304   1.740   6.527  0.2682 -0.0449  0.2805
  712POPI   C3B11319   2.199   1.585   6.986  0.3166  0.2853 -0.0315
  712POPI   C4B11320   2.179   1.606   7.370 -0.1150 -0.0687 -0.2281
  713POPI    C111321  16.914   7.184   5.236  0.1751  0.3201  0.0215
  713POPI    C211322  17.159   6.932   5.046 -0.1706 -0.0195  0.0145
  713POPI    C311323  16.918   7.173   4.836 -0.1840 -0.0272  0.0211
  713POPI   PO411324  16.846   7.071   5.521  0.0012  0.1199  0.1093
  713POPI   GL111325  16.500   7.173   5.886 -0.1510 -0.0837  0.1018
  713POPI   GL211326  16.403   7.003   6.011 -0.3992  0.1873 -0.1257
  713POPI   C1A11327  16.531   7.540   6.232  0.2390 -0.0005 -0.0219
  713POPI   D2A11328  16.945   7.776   6.262  0.1181 -0.1930  0.0036
  713POPI   C3A11329  17.221   8.093   6.583  0.2795 -0.2682  0.0756
  713POPI   C4A11330  17.540   8.132   6.937 -0.1433 -0.2061  0.1585
  713POPI   C1B11331  16.672   7.062   6.346 -0.0965 -0.1216  0.2961
  713POPI   C2B11332  16.956   6.923   6.649 -0.1852 -0.3079  0.0013
  713POPI   C3B11333  17.268   7.149   7.048  0.1173 -0.2112  0.1677
  713POPI   C4B11334  17.296   7.114   7.470  0.1860 -0.0274  0.2462
  714POPI    C111335   7.149  14.365   5.012 -0.4207  0.6273 -0.0046
  714POPI    C211336   6.895  14.379   4.703 -0.1366 -0.0702 -0.2910
  714POPI    C311337   7.287  14.334   4.637 -0.0098  0.2892  0.1668
  714POPI   PO411338   7.012  14.164   5.160 -0.0357 -0.1332  0.0744
  714POPI   GL111339   6.883  13.995   5.561 -0.0193  0.0906  0.0909
  714POPI   GL211340   6.604  13.838   5.743 -0.0682  0.0767  0.2215
  714POPI   C1A11341   7.050  13.712   5.796  0.2547 -0.1303  0.2241
  714POPI   D2A11342   7.111  13.271   5.839 -0.1611 -0.0422  0.3963
  714POPI   C3A11343   7.099  12.929   6.133 -0.1155 -0.0877 -0.0976
  714POPI   C4A11344   7.126  12.815   6.628  0.0379  0.1099 -0.1191
  714POPI   C1B11345   6.594  13.769   6.187 -0.0865  0.1749 -0.1462
  714POPI   C2B11346   6.705  13.541   6.616 -0.3529 -0.1390  0.0438
  714POPI   C3B11347   6.826  13.395   6.951  0.1482 -0.3589 -0.1638
  714POPI   C4B11348   7.077  13.410   7.341 -0.1724 -0.1461  0.0249
  715POPI    C111349   9.957  12.723   5.520  0.0496  0.0024 -0.1086
  715POPI    C211350  10.082  12.993   5.252 -0.2264  0.2304 -0.0137
  715POPI    C311351  10.027  12.612   5.142 -0.1263  0.2753 -0.2248
  715POPI   PO411352  10.082  12.775   5.729 -0.1748 -0.2500  0.0646
  715POPI   GL111353  10.105  12.632   6.093  0.2306  0.1761  0.1871
  715POPI   GL211354   9.845  12.755   6.240  0.0885 -0.0852  0.0956
  715POPI   C1A11355  10.095  12.659   6.598  0.1253  0.1809 -0.2280
  715POPI   D2A11356   9.879  12.587   6.962  0.1215  0.1967 -0.1060
  715POPI   C3A11357   9.661  12.814   7.286  0.2694  0.1851  0.2782
  715POPI   C4A11358   9.849  12.908   7.658  0.0951 -0.0692  0.2946
  715POPI   C1B11359   9.590  12.885   6.557 -0.1829 -0.1452  0.1889
  715POPI   C2B11360   9.330  12.643   6.863  0.0414 -0.0762  0.3445
  715POPI   C3B11361   9.155  12.935   7.183  0.1334 -0.0143 -0.0263
  715POPI   C4B11362   9.193  12.874   7.608 -0.0182  0.2668  0.0976
  716POPI    C111363  17.282  14.225   5.249 -0.1250  0.0774 -0.0178
  716POPI    C211364  16.967  14.068   5.060 -0.1163 -0.0847  0.0996
  716POPI    C311365  17.312  13.867   5.074 -0.0155  0.0786 -0.0022
  716POPI   PO411366  17.142  14.436   5.464 -0.0121 -0.4516  0.1373
  716POPI   GL111367  17.084  14.349   5.850  0.2329 -0.3815 -0.0382
  716POPI   GL211368  16.754  14.355   5.899 -0.0293  0.1051  0.1169
  716POPI   C1A11369  17.279  14.313   6.125  0.0014 -0.0427  0.2088
  716POPI   D2A11370  17.763  14.321   6.381 -0.0328 -0.2780  0.0301
  716POPI   C3A11371  18.149  14.432   6.127  0.0575 -0.2789 -0.0136
  716POPI   C4A11372  18.403  14.616   5.874 -0.0942  0.0518 -0.0231
  716POPI   C1B11373  16.768  14.168   6.270 -0.0427  0.4291  0.0193
  716POPI   C2B11374  17.010  14.074   6.734 -0.1642 -0.2900 -0.0977
  716POPI   C3B11375  17.105  14.319   7.187 -0.1591 -0.2622 -0.3006
  716POPI   C4B11376  17.040  14.559   7.462  0.1159  0.2628 -0.0488
  717POPI    C111377   9.484   8.729   5.414 -0.0512  0.0892 -0.0687
  717POPI    C211378   9.670   8.963   5.680 -0.0818 -0.0071  0.0381
  717POPI    C311379   9.758   8.994   5.291  0.0455  0.0551  0.0712
  717POPI   PO411380   9.443   8.481   5.570 -0.1707 -0.0019  0.0056
  717POPI   GL111381   9.392   8.407   5.974 -0.0917 -0.0566  0.0395
  717POPI   GL211382   9.129   8.539   5.908  0.3131 -0.1837 -0.0773
  717POPI   C1A11383   9.343   8.621   6.369 -0.0101  0.2419 -0.0578
  717POPI   D2A11384   8.983   8.720   6.730  0.3825  0.2849  0.3454
  717POPI   C3A11385   8.626   8.562   6.884 -0.1581  0.1667 -0.3243
  717POPI   C4A11386   8.622   8.044   6.931  0.1220  0.1975 -0.2078
  717POPI   C1B11387   8.887   8.634   6.192  0.0004 -0.0859 -0.3830
  717POPI   C2B11388   8.463   8.629   6.386  0.2826 -0.4043 -0.2281
  717POPI   C3B11389   8.202   8.294   6.752 -0.3142  0.1411 -0.2018
  717POPI   C4B11390   8.193   7.981   7.146  0.4107 -0.0224  0.0020
  718POPI    C111391   2.856   1.280   5.225 -0.1964  0.0934  0.0006
  718POPI    C211392   2.595   1.148   4.952 -0.0731  0.0325 -0.0893
  718POPI    C311393   2.581   1.529   5.074 -0.1130  0.0669 -0.1991
  718POPI   PO411394   2.799   1.100   5.434 -0.0894  0.2573  0.0105
  718POPI   GL111395   3.176   0.998   5.721  0.3619 -0.2982 -0.1008
  718POPI   GL211396   3.091   1.379   5.792 -0.2469 -0.0642 -0.0817
  718POPI   C1A11397   3.050   0.972   6.103 -0.1406  0.0373 -0.0524
  718POPI   D2A11398   2.994   1.021   6.546 -0.1610  0.0613  0.1166
  718POPI   C3A11399   3.072   1.314   6.904  0.3119 -0.2122  0.0181
  718POPI   C4A11400   3.189   1.311   7.382 -0.2782  0.1531  0.0892
  718POPI   C1B11401   3.053   1.467   6.209 -0.0111 -0.1553  0.1165
  718POPI   C2B11402   2.824   1.667   6.557 -0.1796  0.0349  0.2198
  718POPI   C3B11403   2.640   1.782   6.913  0.4421 -0.1875 -0.0642
  718POPI   C4B11404   2.227   2.046   7.053 -0.1453  0.1196 -0.1131
  719POPI    C111405  13.794  16.287   5.115  0.1740  0.0618 -0.0608
  719POPI    C211406  13.867  15.927   4.956 -0.0720  0.0079 -0.0546
  719POPI    C311407  13.589  16.166   4.794 -0.1191  0.0726  0.1187
  719POPI   PO411408  13.838  16.231   5.385 -0.1300  0.1033 -0.1456
  719POPI   GL111409  13.872  16.249   5.843 -0.0499 -0.1423  0.0088
  719POPI   GL211410  14.175  16.085   5.874  0.0889  0.0092  0.0152
  719POPI   C1A11411  13.541  16.404   6.052 -0.1222 -0.1973  0.1735
  719POPI   D2A11412  13.163  16.348   6.327 -0.2750  0.1704  0.0335
  719POPI   C3A11413  13.290  16.101   6.703 -0.0003 -0.1849 -0.2909
  719POPI   C4A11414  13.493  16.013   7.066 -0.0400 -0.2823 -0.2560
  719POPI   C1B11415  14.240  15.956   6.293  0.0624 -0.2225 -0.0149
  719POPI   C2B11416  13.975  15.972   6.748  0.1295  0.2338 -0.2322
  719POPI   C3B11417  14.010  15.723   7.073  0.2884 -0.1709  0.1681
  719POPI   C4B11418  14.358  15.589   7.299 -0.0387  0.0847  0.1831
  720POPI    C111419  11.542  13.738   5.790 -0.0090 -0.0897 -0.1765
  720POPI    C211420  11.318  13.974   5.558  0.1520 -0.0348 -0.2772
  720POPI    C311421  11.389  13.596   5.449 -0.2527 -0.1890 -0.0289
  720POPI   PO411422  11.471  13.781   6.074 -0.2777  0.0986  0.3766
  720POPI   GL111423  11.270  13.556   6.355 -0.0518  0.2687 -0.1457
  720POPI   GL211424  11.025  13.796   6.256 -0.1674 -0.0761 -0.1407
  720POPI   C1A11425  11.425  13.687   6.702  0.1831 -0.0974 -0.1867
  720POPI   D2A11426  11.672  13.991   7.035  0.3492 -0.1958  0.1069
  720POPI   C3A11427  11.636  14.338   7.188  0.1160 -0.1786  0.4264
  720POPI   C4A11428  11.430  14.650   7.028 -0.0369  0.1140  0.0513
  720POPI   C1B11429  10.848  14.093   6.477 -0.2741  0.0570 -0.2327
  720POPI   C2B11430  10.534  14.110   6.954  0.1422  0.1263  0.1745
  720POPI   C3B11431  10.685  14.418   7.398  0.0212  0.1584  0.1835
  720POPI   C4B11432  11.008  14.512   7.615 -0.0918  0.1817  0.3275
  721POPI    C111433   5.310   4.376   5.388  0.1396 -0.0098  0.0862
  721POPI    C211434   5.515   4.384   5.045 -0.0369 -0.1267 -0.0238
  721POPI    C311435   5.126   4.475   5.047 -0.0389 -0.1354  0.1446
  721POPI   PO411436   5.436   4.378   5.542  0.0644  0.2028 -0.0779
  721POPI   GL111437   5.344   4.387   5.963  0.1248  0.1187  0.0415
  721POPI   GL211438   5.034   4.367   5.994  0.1941  0.1211  0.1402
  721POPI   C1A11439   5.277   4.336   6.405 -0.0251 -0.1752  0.1078
  721POPI   D2A11440   5.355   4.243   6.843  0.0844  0.0653  0.4673
  721POPI   C3A11441   5.269   4.095   7.201 -0.1595  0.3110  0.0342
  721POPI   C4A11442   5.517   3.895   7.524 -0.0620  0.0433  0.0735
  721POPI   C1B11443   4.758   4.494   6.315  0.2516  0.1625 -0.1173
  721POPI   C2B11444   4.935   4.520   6.722 -0.1380 -0.0363  0.1500
  721POPI   C3B11445   4.872   4.283   6.945  0.0365  0.2736  0.2941
  721POPI   C4B11446   5.015   4.511   7.402 -0.1737 -0.0963 -0.3085
  722POPI    C111447   7.802  10.919   5.014  0.0219  0.1178  0.2476
  722POPI    C211448   7.430  10.777   5.053  0.0420 -0.0128 -0.0182
  722POPI    C311449   7.492  11.131   4.878  0.0258  0.1243  0.2489
  722POPI   PO411450   7.878  10.840   5.363 -0.0349 -0.0020  0.0014
  722POPI   GL111451   8.260  11.154   5.607 -0.2972  0.2407 -0.0031
  722POPI   GL211452   8.522  11.057   5.718 -0.0135 -0.0717  0.0506
  722POPI   C1A11453   8.260  11.557   5.822 -0.1424  0.2763 -0.0971
  722POPI   D2A11454   8.218  11.722   6.239 -0.1620  0.4991 -0.2694
  722POPI   C3A11455   8.161  11.469   6.599  0.0083  0.0555  0.0737
  722POPI   C4A11456   8.059  11.633   6.991 -0.0888  0.0466 -0.1391
  722POPI   C1B11457   8.651  10.825   6.039  0.0508 -0.0439  0.2981
  722POPI   C2B11458   8.904  11.070   6.400 -0.1826 -0.3495 -0.0802
  722POPI   C3B11459   8.792  11.099   6.819 -0.1119 -0.0461 -0.1105
  722POPI   C4B11460   8.380  11.078   6.980  0.0756 -0.0268  0.0161
  723POPI    C111461  12.490  11.294   5.601  0.0556 -0.1162  0.0575
  723POPI    C211462  12.741  11.052   5.404 -0.1227 -0.1045 -0.1879
  723POPI    C311463  12.723  11.441   5.310 -0.2232 -0.1030 -0.1633
  723POPI   PO411464  12.568  11.265   5.874  0.1001  0.1822  0.2646
  723POPI   GL111465  12.579  11.168   6.298  0.0891  0.2862 -0.0923
  723POPI   GL211466  12.939  11.208   6.253 -0.1516 -0.2952 -0.1123
  723POPI   C1A11467  12.499  10.958   6.667  0.2818  0.1012 -0.0363
  723POPI   D2A11468  12.523  10.820   7.151 -0.0139  0.0141 -0.1155
  723POPI   C3A11469  12.493  10.728   7.584  0.3214  0.0127  0.1907
  723POPI   C4A11470  12.840  10.508   7.796 -0.0388 -0.1495  0.0253
  723POPI   C1B11471  12.809  11.365   6.726  0.0643 -0.1247  0.1396
  723POPI   C2B11472  12.777  11.245   7.054 -0.1353  0.1268  0.2009
  723POPI   C3B11473  12.609  11.228   7.472 -0.1032 -0.1559  0.0258
  723POPI   C4B11474  12.286  11.231   7.851 -0.0133 -0.0184  0.3676
  724POPI    C111475  16.975  12.573   5.351  0.1191  0.1805  0.1816
  724POPI    C211476  16.724  12.484   5.650  0.1280 -0.1898  0.0834
  724POPI    C311477  16.587  12.512   5.275  0.1477  0.1036  0.0957
  724POPI   PO411478  17.195  12.433   5.374 -0.1978  0.1105  0.2126
  724POPI   GL111479  17.323  12.407   5.820 -0.3491 -0.0574 -0.0093
  724POPI   GL211480  17.260  12.133   5.753 -0.0641  0.4873 -0.2980
  724POPI   C1A11481  17.272  12.577   6.256  0.2109 -0.2750  0.0919
  724POPI   D2A11482  17.307  12.541   6.780  0.2650  0.0538 -0.0117
  724POPI   C3A11483  17.558  12.687   7.055  0.0580 -0.1329 -0.1842
  724POPI   C4A11484  17.335  13.055   7.078  0.1897 -0.1056  0.2263
  724POPI   C1B11485  17.282  11.983   6.206 -0.0715 -0.1367 -0.1611
  724POPI   C2B11486  17.310  11.798   6.564 -0.0247  0.1430 -0.0599
  724POPI   C3B11487  17.295  11.487   6.979  0.0768 -0.0003  0.1628
  724POPI   C4B11488  16.899  11.235   6.899  0.2422  0.1846  0.0019
  725POPI    C111489   4.490  13.038   5.391  0.1630 -0.1519 -0.0154
  725POPI    C211490   4.264  12.787   5.177  0.1436 -0.0449 -0.1212
  725POPI    C311491   4.614  12.915   5.031  0.3207 -0.2860  0.0833
  725POPI   PO411492   4.290  13.167   5.599 -0.1632 -0.0927  0.0533
  725POPI   GL111493   4.331  12.995   6.046 -0.2486  0.1044 -0.1342
  725POPI   GL211494   4.162  13.189   6.124 -0.1600 -0.2608 -0.2052
  725POPI   C1A11495   4.381  12.662   6.310 -0.2019 -0.1952  0.0128
  725POPI   D2A11496   4.281  12.496   6.689 -0.0670  0.0407  0.2319
  725POPI   C3A11497   4.470  12.601   7.090 -0.2428 -0.1154  0.2566
  725POPI   C4A11498   4.616  12.807   7.467  0.1212  0.4101 -0.0457
  725POPI   C1B11499   4.201  13.213   6.574 -0.0324  0.3428 -0.0060
  725POPI   C2B11500   4.178  13.073   7.008 -0.0857  0.3182 -0.0144
  725POPI   C3B11501   4.344  13.308   7.397  0.0043  0.0621 -0.1671
  725POPI   C4B11502   4.270  13.478   7.872  0.0581  0.0590 -0.0815
  726POPI    C111503   1.086   1.182   5.290 -0.2126 -0.1665  0.0543
  726POPI    C211504   1.093   1.579   5.339 -0.0184 -0.1712  0.0708
  726POPI    C311505   1.079   1.423   4.971  0.1105 -0.1501  0.0564
  726POPI   PO411506   1.262   1.082   5.392  0.0209  0.0711 -0.0022
  726POPI   GL111507   1.419   1.034   5.727  0.1411  0.1267 -0.1704
  726POPI   GL211508   1.494   1.361   5.772 -0.2227  0.3955 -0.1933
  726POPI   C1A11509   1.227   1.045   6.112 -0.3169  0.1555 -0.2418
  726POPI   D2A11510   0.901   0.862   6.334 -0.1002  0.2113  0.3010
  726POPI   C3A11511   0.824   0.709   6.680  0.0568 -0.0259  0.0772
  726POPI   C4A11512   0.897   0.719   7.097 -0.1315  0.0675  0.0605
  726POPI   C1B11513   1.640   1.495   6.045  0.1017 -0.3323  0.0691
  726POPI   C2B11514   1.450   1.652   6.374  0.0336  0.1607 -0.1435
  726POPI   C3B11515   1.206   1.634   6.728  0.0191 -0.1215 -0.3028
  726POPI   C4B11516   1.176   1.681   7.185  0.4123 -0.1936 -0.2058
  727POPI    C111517   0.831   8.446   5.854 -0.1061 -0.0389  0.0030
  727POPI    C211518   0.721   8.243   5.527  0.1427 -0.0229 -0.0931
  727POPI    C311519   1.049   8.471   5.519 -0.0598  0.2809  0.0536
  727POPI   PO411520   0.583   8.567   5.948 -0.1909  0.0127 -0.3525
  727POPI   GL111521   0.326   8.321   6.236  0.1516  0.2845  0.2179
  727POPI   GL211522   0.206   8.025   6.293 -0.2139 -0.1468  0.2926
  727POPI   C1A11523   0.333   8.285   6.682  0.1025  0.1556  0.1677
  727POPI   D2A11524   0.399   8.206   6.979 -0.0419 -0.0886 -0.2494
  727POPI   C3A11525   0.275   8.123   7.427 -0.0833  0.2816 -0.1898
  727POPI   C4A11526   0.143   8.346   7.723 -0.0240 -0.0208 -0.2781
  727POPI   C1B11527   0.401   7.786   6.633 -0.4735 -0.2818 -0.1750
  727POPI   C2B11528   0.642   7.678   6.879  0.0309  0.0141 -0.2007
  727POPI   C3B11529   0.696   7.701   7.250 -0.1842  0.2575  0.3320
  727POPI   C4B11530   0.604   7.901   7.669 -0.1144 -0.0044 -0.3041
  728POPI    C111531   1.951  10.759   5.113  0.3903  0.0834 -0.0076
  728POPI    C211532   2.158  10.871   4.790  0.1229  0.0900 -0.1800
  728POPI    C311533   1.853  10.616   4.753  0.1104  0.0657  0.0733
  728POPI   PO411534   2.124  10.907   5.312  0.0852 -0.0407  0.0412
  728POPI   GL111535   2.136  10.908   5.738  0.0151 -0.1583  0.2312
  728POPI   GL211536   2.401  10.931   5.818  0.1999  0.0710 -0.1741
  728POPI   C1A11537   2.053  10.863   6.204  0.1708  0.2188  0.0208
  728POPI   D2A11538   2.187  10.983   6.587  0.0169 -0.0262 -0.1540
  728POPI   C3A11539   2.096  10.954   6.983 -0.0646  0.1876 -0.2316
  728POPI   C4A11540   2.202  11.044   7.376  0.2336 -0.0416 -0.1596
  728POPI   C1B11541   2.591  11.103   6.174  0.0868  0.0586  0.0681
  728POPI   C2B11542   2.586  11.345   6.643  0.0391  0.3961  0.2169
  728POPI   C3B11543   2.473  11.239   6.986 -0.1597 -0.0435  0.1653
  728POPI   C4B11544   2.579  11.403   7.465  0.2133  0.0173  0.0926
  729POPI    C111545   0.534  18.139   5.156  0.1289 -0.0682  0.1801
  729POPI    C211546   0.393  17.823   4.956  0.0100 -0.0150  0.1792
  729POPI    C311547   0.708  18.025   4.814 -0.0992  0.0474  0.0233
  729POPI   PO411548   0.523  18.108   5.361  0.1122  0.2434 -0.1509
  729POPI   GL111549   0.642  17.916   5.672  0.1030  0.0444  0.1382
  729POPI   GL211550   1.015  18.036   5.676  0.1891 -0.0926 -0.0647
  729POPI   C1A11551   0.275  17.995   6.002  0.0353 -0.0398  0.2310
  729POPI   D2A11552   0.095  18.262   6.327 -0.0176  0.0717 -0.0024
  729POPI   C3A11553  -0.025  18.003   6.666 -0.2261  0.0399  0.0032
  729POPI   C4A11554   0.135  17.621   6.941 -0.1273  0.0095 -0.3535
  729POPI   C1B11555   0.773  18.257   6.015 -0.0963 -0.1672  0.0443
  729POPI   C2B11556   0.915  18.231   6.456  0.1023  0.0874 -0.0573
  729POPI   C3B11557   0.991  18.018   6.785 -0.0055 -0.1725 -0.4354
  729POPI   C4B11558   1.006  17.935   7.202  0.1170  0.0087  0.1677
  730POPI    C111559  15.346  11.177   5.484  0.4285 -0.0277  0.1265
  730POPI    C211560  15.301  11.283   5.101 -0.2785 -0.2394  0.1374
  730POPI    C311561  15.514  10.958   5.194 -0.0277 -0.1364 -0.0638
  730POPI   PO411562  15.210  11.281   5.644 -0.3208  0.3951  0.0198
  730POPI   GL111563  15.183  11.401   6.046  0.1253 -0.0779 -0.0112
  730POPI   GL211564  15.273  11.627   6.105  0.0613 -0.1686 -0.3207
  730POPI   C1A11565  14.977  11.256   6.287  0.2195  0.2488  0.3087
  730POPI   D2A11566  14.949  11.064   6.648  0.1841 -0.0027  0.0368
  730POPI   C3A11567  15.153  11.242   6.926  0.1709 -0.1501  0.2196
  730POPI   C4A11568  15.392  11.428   7.236  0.3196  0.2801 -0.3843
  730POPI   C1B11569  15.368  11.485   6.544  0.0570  0.0740  0.2995
  730POPI   C2B11570  15.636  11.377   6.858 -0.2010  0.0831  0.0811
  730POPI   C3B11571  15.868  11.236   7.329  0.0993  0.0404 -0.0611
  730POPI   C4B11572  15.855  10.880   7.546 -0.1162  0.0826 -0.0871
  731POPI    C111573   9.307  16.830   5.081 -0.1393 -0.1214 -0.0814
  731POPI    C211574   9.659  16.686   4.956 -0.1808 -0.2972  0.0016
  731POPI    C311575   9.550  17.058   4.860 -0.0395 -0.2945 -0.1527
  731POPI   PO411576   9.276  16.789   5.368 -0.2163 -0.1078  0.1162
  731POPI   GL111577   9.391  16.588   5.735 -0.1448 -0.0301  0.0590
  731POPI   GL211578   9.263  16.335   5.758 -0.1896  0.2749 -0.1391
  731POPI   C1A11579   9.437  16.813   6.056  0.1702 -0.2859 -0.0604
  731POPI   D2A11580   9.382  16.740   6.432 -0.3287  0.1426  0.1029
  731POPI   C3A11581   9.588  16.846   6.775 -0.2539  0.1655 -0.0815
  731POPI   C4A11582   9.749  16.942   7.236  0.2137  0.0780 -0.0759
  731POPI   C1B11583   9.118  16.233   6.136  0.3025  0.0048  0.1391
  731POPI   C2B11584   9.095  16.334   6.562 -0.0836  0.3535  0.1564
  731POPI   C3B11585   9.294  16.472   6.982  0.0748 -0.0146  0.2759
  731POPI   C4B11586   9.371  16.475   7.317 -0.0015 -0.0337 -0.1079
  732POPI    C111587  16.138  14.389   5.555  0.0638  0.0952 -0.0622
  732POPI    C211588  15.939  14.595   5.834 -0.0328 -0.1277  0.0360
  732POPI    C311589  15.744  14.448   5.517 -0.0261 -0.3389  0.1279
  732POPI   PO411590  16.319  14.274   5.722  0.0964 -0.1770 -0.4014
  732POPI   GL111591  16.230  14.060   6.074  0.0551  0.2279  0.0327
  732POPI   GL211592  15.921  14.241   6.150  0.1546 -0.2614 -0.0941
  732POPI   C1A11593  16.229  14.170   6.507 -0.0286  0.3117  0.0413
  732POPI   D2A11594  16.268  14.190   6.889  0.3882 -0.0873  0.1192
  732POPI   C3A11595  15.909  14.311   7.110  0.3080 -0.0352  0.0063
  732POPI   C4A11596  15.859  14.290   7.589  0.0105 -0.0765  0.1436
  732POPI   C1B11597  15.507  14.254   6.210  0.0527  0.3194 -0.0816
  732POPI   C2B11598  15.269  13.957   6.499 -0.0364 -0.4385  0.1394
  732POPI   C3B11599  15.096  13.798   6.927  0.0850 -0.1278 -0.1571
  732POPI   C4B11600  14.843  14.109   7.112 -0.3755 -0.0826 -0.0374
  733POPI    C111601  11.175  15.495   5.229  0.1301 -0.1513  0.1064
  733POPI    C211602  11.178  15.483   4.829 -0.3754  0.0472  0.0888
  733POPI    C311603  11.039  15.171   5.037 -0.1823 -0.0261  0.1098
  733POPI   PO411604  11.057  15.766   5.319 -0.1382 -0.1895  0.0682
  733POPI   GL111605  11.159  15.909   5.751  0.1933 -0.1096 -0.0045
  733POPI   GL211606  11.001  16.174   5.694 -0.1843 -0.1771  0.0876
  733POPI   C1A11607  10.986  15.649   6.011 -0.1000  0.0652  0.0039
  733POPI   D2A11608  11.059  15.397   6.378 -0.1219  0.0175  0.1257
  733POPI   C3A11609  10.862  15.523   6.793  0.0067  0.2572  0.4298
  733POPI   C4A11610  11.189  15.519   7.224  0.1485  0.2346  0.2293
  733POPI   C1B11611  10.714  16.084   6.019 -0.1904 -0.0977 -0.5358
  733POPI   C2B11612  10.540  16.189   6.392  0.1831  0.0895 -0.2299
  733POPI   C3B11613  10.729  16.073   6.862 -0.2695  0.2250 -0.4083
  733POPI   C4B11614  10.893  15.878   7.276  0.3426  0.2628 -0.0686
  734POPI    C111615  11.517   3.083   6.163  0.2728  0.0218 -0.0334
  734POPI    C211616  11.522   3.207   5.782 -0.0806 -0.1639 -0.1026
  734POPI    C311617  11.370   3.442   6.067 -0.3090 -0.2389 -0.1604
  734POPI   PO411618  11.500   2.749   6.020 -0.3133  0.0366 -0.1801
  734POPI   GL111619  11.777   2.546   6.275  0.1590  0.3992 -0.1593
  734POPI   GL211620  11.857   2.399   6.505 -0.2917 -0.1111  0.0205
  734POPI   C1A11621  11.600   2.736   6.712 -0.3876  0.0016 -0.3353
  734POPI   D2A11622  11.651   2.577   7.153 -0.1621 -0.0380  0.2281
  734POPI   C3A11623  11.947   2.710   7.422 -0.2911 -0.3345  0.1164
  734POPI   C4A11624  12.186   2.903   7.693  0.0331 -0.3474 -0.1760
  734POPI   C1B11625  11.794   2.226   6.832 -0.0105  0.2035  0.1776
  734POPI   C2B11626  11.461   2.102   7.115  0.1144 -0.1647  0.1149
  734POPI   C3B11627  11.269   2.353   7.396  0.2383 -0.0715 -0.1041
  734POPI   C4B11628  10.995   2.324   7.727 -0.1342  0.0469 -0.2490
  735POPI    C111629  10.932   4.827   5.702  0.4855  0.5175 -0.1346
  735POPI    C211630  10.677   4.957   5.423 -0.1032 -0.1304  0.0701
  735POPI    C311631  11.036   4.815   5.316 -0.1235  0.0848 -0.3008
  735POPI   PO411632  10.734   4.658   5.864  0.1397 -0.1621  0.1717
  735POPI   GL111633  10.767   4.558   6.281  0.1660  0.0260 -0.1403
  735POPI   GL211634  11.097   4.476   6.446  0.0846 -0.0158  0.5116
  735POPI   C1A11635  10.778   4.670   6.746  0.4391 -0.1308 -0.0376
  735POPI   D2A11636  10.611   4.741   7.192 -0.2369 -0.0215 -0.0644
  735POPI   C3A11637  10.701   4.520   7.557 -0.1563  0.2800  0.0205
  735POPI   C4A11638  11.091   4.595   7.843  0.1002 -0.1299 -0.2404
  735POPI   C1B11639  11.402   4.460   6.725 -0.3008 -0.1006 -0.3863
  735POPI   C2B11640  11.568   4.640   7.059 -0.0157  0.0236 -0.0895
  735POPI   C3B11641  11.536   4.580   7.516  0.0137 -0.1219  0.2222
  735POPI   C4B11642  11.615   4.353   7.894  0.1860 -0.2950 -0.0465
  736POPI    C111643  10.351   8.208   5.517 -0.0888  0.0637 -0.0012
  736POPI    C211644  10.593   7.964   5.722 -0.0638 -0.0493 -0.1624
  736POPI    C311645  10.710   8.112   5.370 -0.2170 -0.0797 -0.2269
  736POPI   PO411646  10.226   8.282   5.776 -0.0257 -0.2758  0.2977
  736POPI   GL111647   9.879   8.528   5.979 -0.1290  0.1468 -0.1376
  736POPI   GL211648  10.096   8.417   6.237 -0.0018  0.0008  0.0179
  736POPI   C1A11649   9.828   8.891   6.284 -0.0811 -0.0727 -0.4051
  736POPI   D2A11650   9.761   9.177   6.529  0.1835 -0.0744  0.4517
  736POPI   C3A11651   9.551   9.189   6.896  0.0912 -0.2163  0.2126
  736POPI   C4A11652   9.413   9.156   7.208  0.0193 -0.0704 -0.3087
  736POPI   C1B11653  10.082   8.203   6.549 -0.0080  0.1783  0.1917
  736POPI   C2B11654  10.183   8.309   6.999  0.1386  0.2139  0.0535
  736POPI   C3B11655  10.015   8.396   7.288 -0.2404 -0.0438 -0.3592
  736POPI   C4B11656  10.075   8.147   7.604 -0.0297 -0.3110 -0.2035
  737POPI    C111657  10.566   9.038   5.782  0.0569  0.1382 -0.1806
  737POPI    C211658  10.200   8.880   5.808  0.1171  0.0213 -0.0296
  737POPI    C311659  10.452   8.853   6.118  0.3088 -0.0367 -0.1888
  737POPI   PO411660  10.507   9.258   5.694  0.1337 -0.1780  0.2401
  737POPI   GL111661  10.205   9.480   5.925 -0.0216  0.0165 -0.0457
  737POPI   GL211662  10.302   9.338   6.141  0.1488 -0.1237 -0.1823
  737POPI   C1A11663  10.005   9.889   6.154  0.1859 -0.1438 -0.0112
  737POPI   D2A11664   9.925  10.272   6.271 -0.2828  0.0181 -0.0498
  737POPI   C3A11665   9.997  10.352   6.756 -0.0903 -0.1518  0.2161
  737POPI   C4A11666  10.063  10.423   7.139 -0.0124  0.1127  0.2171
  737POPI   C1B11667  10.266   9.106   6.547 -0.0729  0.5496 -0.1737
  737POPI   C2B11668  10.156   9.180   6.931  0.0040  0.3821  0.0708
  737POPI   C3B11669   9.923   9.433   7.199  0.0406 -0.2639  0.3055
  737POPI   C4B11670   9.973   9.620   7.482  0.2108 -0.0132 -0.1171
  738POPI    C111671   4.462   9.468   5.192  0.1109 -0.0737 -0.0345
  738POPI    C211672   4.628   9.826   5.129 -0.0638 -0.0343 -0.2879
  738POPI    C311673   4.827   9.493   5.031  0.0468 -0.0035 -0.1705
  738POPI   PO411674   4.287   9.543   5.398  0.0505  0.0546 -0.1726
  738POPI   GL111675   4.187   9.475   5.780 -0.2168 -0.0481  0.2675
  738POPI   GL211676   3.978   9.787   5.874 -0.2673  0.2773  0.1853
  738POPI   C1A11677   4.372   9.547   6.164  0.2471 -0.0481  0.1548
  738POPI   D2A11678   4.450   9.427   6.595 -0.1361 -0.2868 -0.1825
  738POPI   C3A11679   4.713   9.163   6.768  0.0944  0.0867 -0.0746
  738POPI   C4A11680   4.846   9.257   7.260 -0.1612 -0.0626 -0.4312
  738POPI   C1B11681   3.851   9.749   6.350 -0.0414 -0.2453 -0.4019
  738POPI   C2B11682   3.818   9.760   6.835  0.1344 -0.1822  0.0687
  738POPI   C3B11683   4.019   9.923   7.205 -0.1833 -0.0556 -0.2088
  738POPI   C4B11684   4.095   9.746   7.637 -0.1308  0.1272 -0.1112
  739POPI    C111685   8.502  18.262   5.471 -0.0669  0.0309 -0.1412
  739POPI    C211686   8.645  18.397   5.122 -0.0711  0.2328 -0.0663
  739POPI    C311687   8.422  18.065   5.132  0.2214  0.0276 -0.2101
  739POPI   PO411688   8.364  18.534   5.545 -0.1552 -0.1941  0.6921
  739POPI   GL111689   8.089  18.597   5.953  0.1437  0.2595  0.0204
  739POPI   GL211690   7.798  18.396   5.740  0.2506  0.0425  0.0727
  739POPI   C1A11691   8.058  18.615   6.453  0.0386  0.0377 -0.3155
  739POPI   D2A11692   8.124  18.589   6.870  0.0291  0.1013  0.0522
  739POPI   C3A11693   7.809  18.732   7.110 -0.0332 -0.0029  0.2578
  739POPI   C4A11694   7.853  19.029   7.413  0.1102  0.2471 -0.3218
  739POPI   C1B11695   7.475  18.528   5.944 -0.2306 -0.0434 -0.0062
  739POPI   C2B11696   7.613  18.712   6.250  0.1580 -0.0388 -0.0603
  739POPI   C3B11697   7.621  18.878   6.656  0.1165  0.2578  0.0444
  739POPI   C4B11698   7.610  19.228   7.052  0.1770  0.1969  0.1391
  740POPI    C111699  15.975   1.635   5.588 -0.1489 -0.1734  0.2396
  740POPI    C211700  15.645   1.770   5.770  0.1238  0.3673  0.3518
  740POPI    C311701  15.758   1.925   5.419  0.0009 -0.1587  0.0691
  740POPI   PO411702  15.938   1.399   5.546  0.1813 -0.0552  0.0056
  740POPI   GL111703  16.178   1.167   5.908 -0.2455 -0.0791 -0.1157
  740POPI   GL211704  15.840   1.244   6.003 -0.2156 -0.0365  0.0021
  740POPI   C1A11705  16.106   1.000   6.340 -0.0012  0.2159  0.1609
  740POPI   D2A11706  15.976   0.901   6.801  0.1485 -0.1930 -0.0405
  740POPI   C3A11707  16.124   0.797   7.129 -0.0434  0.3391 -0.5741
  740POPI   C4A11708  16.504   0.721   7.293 -0.2891  0.1168 -0.4598
  740POPI   C1B11709  15.684   1.315   6.430 -0.2401 -0.0194 -0.0172
  740POPI   C2B11710  15.582   1.260   6.873  0.1014  0.0399  0.2077
  740POPI   C3B11711  15.526   1.464   7.217  0.1604 -0.0701 -0.0610
  740POPI   C4B11712  15.564   1.412   7.670 -0.0917 -0.2096 -0.1797
  741POPI    C111713   5.410  16.062   4.998  0.2908  0.1830  0.1945
  741POPI    C211714   5.256  15.911   4.661  0.2553 -0.0984  0.3342
  741POPI    C311715   5.278  16.308   4.710  0.2531 -0.0546  0.0058
  741POPI   PO411716   5.307  15.897   5.315 -0.2152 -0.2592 -0.1743
  741POPI   GL111717   5.009  15.832   5.657  0.2916  0.0024  0.1256
  741POPI   GL211718   5.281  16.191   5.680 -0.1859  0.0226  0.0272
  741POPI   C1A11719   5.044  16.043   6.107  0.0495  0.0220  0.3800
  741POPI   D2A11720   5.000  16.035   6.586 -0.0085 -0.1845  0.2139
  741POPI   C3A11721   4.694  16.085   6.971  0.3916 -0.1332  0.0865
  741POPI   C4A11722   4.290  15.904   7.123 -0.2169  0.0872  0.1062
  741POPI   C1B11723   5.514  16.167   6.076 -0.0329  0.2597  0.2673
  741POPI   C2B11724   5.466  16.200   6.525 -0.0359 -0.0020 -0.3142
  741POPI   C3B11725   5.576  16.601   6.779 -0.4248  0.4136 -0.0358
  741POPI   C4B11726   5.326  16.785   7.202  0.0700 -0.2777  0.0273
  742POPI    C111727   6.495   9.228   5.233  0.1078 -0.1273  0.1754
  742POPI    C211728   6.645   8.857   5.218  0.3289 -0.0465  0.3323
  742POPI    C311729   6.760   9.130   4.950 -0.2173 -0.2245 -0.1008
  742POPI   PO411730   6.519   9.255   5.520 -0.0704 -0.2327  0.2504
  742POPI   GL111731   6.642   9.415   5.806  0.2034  0.2138  0.1991
  742POPI   GL211732   6.996   9.454   5.813  0.0659  0.0528 -0.3797
  742POPI   C1A11733   6.497   9.421   6.207 -0.2986  0.0517 -0.3163
  742POPI   D2A11734   6.428   9.429   6.601 -0.1392 -0.1814  0.1099
  742POPI   C3A11735   6.435   9.756   6.846  0.3782 -0.1041 -0.1134
  742POPI   C4A11736   6.703   9.963   7.117 -0.2315 -0.1134 -0.1883
  742POPI   C1B11737   7.153   9.348   6.209  0.0536 -0.0571  0.0593
  742POPI   C2B11738   7.001   9.403   6.592 -0.0076  0.5803  0.0337
  742POPI   C3B11739   7.159   9.365   6.973 -0.0620  0.1206  0.1510
  742POPI   C4B11740   7.358   9.551   7.394 -0.1471  0.0115  0.0030
  743POPI    C111741  10.008  11.379   5.696  0.1228  0.0105  0.2231
  743POPI    C211742  10.017  11.770   5.778  0.1283  0.1101 -0.2255
  743POPI    C311743   9.683  11.604   5.634  0.1462 -0.0387 -0.0980
  743POPI   PO411744  10.114  11.252   5.939 -0.0307  0.2916 -0.0339
  743POPI   GL111745  10.331  11.367   6.264  0.0650 -0.1822 -0.2677
  743POPI   GL211746  10.353  11.692   6.199 -0.0922 -0.1339 -0.1712
  743POPI   C1A11747  10.382  11.049   6.569  0.0669  0.2230  0.0586
  743POPI   D2A11748  10.433  10.700   6.860 -0.0889 -0.2908 -0.1199
  743POPI   C3A11749  10.384  10.745   7.302 -0.2306 -0.0623  0.0312
  743POPI   C4A11750  10.016  10.670   7.572 -0.0866 -0.3858 -0.0909
  743POPI   C1B11751  10.174  12.093   6.398 -0.0423 -0.0502  0.2230
  743POPI   C2B11752  10.133  12.222   6.793  0.0908 -0.0326 -0.0991
  743POPI   C3B11753  10.171  12.277   7.228 -0.2976  0.0002  0.0780
  743POPI   C4B11754  10.108  12.336   7.578  0.0279 -0.4337 -0.0281
  744POPS   CNO11755   4.165   4.068   5.791 -0.4324  0.0461 -0.0905
  744POPS   PO411756   3.845   4.330   5.650  0.2648  0.2767 -0.4659
  744POPS   GL111757   3.775   4.277   6.116 -0.0292  0.0928  0.1684
  744POPS   GL211758   3.427   4.487   6.126  0.0881  0.1531 -0.0277
  744POPS   C1A11759   3.795   4.244   6.550  0.2091  0.3821 -0.3737
  744POPS   D2A11760   3.533   4.012   6.876 -0.2924  0.1121  0.0884
  744POPS   C3A11761   3.593   3.781   7.283 -0.3489  0.3017 -0.3896
  744POPS   C4A11762   3.717   3.691   7.725 -0.0112 -0.3019  0.0115
  744POPS   C1B11763   3.374   4.556   6.582 -0.1109  0.1403  0.0998
  744POPS   C2B11764   3.199   4.761   6.852  0.1507  0.0456  0.1011
  744POPS   C3B11765   3.272   4.898   7.224  0.2063 -0.0235  0.2241
  744POPS   C4B11766   3.246   4.983   7.669  0.1743  0.0990  0.0178
  745POPS   CNO11767   6.812   4.767   5.279 -0.1596  0.2140 -0.0733
  745POPS   PO411768   7.198   4.571   5.304  0.0772  0.1517 -0.0410
  745POPS   GL111769   7.184   4.619   5.737 -0.2116  0.0556 -0.1538
  745POPS   GL211770   7.446   4.773   5.774 -0.1927 -0.0845 -0.0916
  745POPS   C1A11771   7.181   4.489   6.183  0.2767 -0.1933 -0.1833
  745POPS   D2A11772   7.425   4.551   6.485 -0.1052  0.3329 -0.0180
  745POPS   C3A11773   7.429   4.144   6.721 -0.1079 -0.0281 -0.1509
  745POPS   C4A11774   7.570   4.031   7.094  0.1667  0.2287  0.0734
  745POPS   C1B11775   7.548   4.852   6.182 -0.0948  0.2036  0.0709
  745POPS   C2B11776   7.943   4.990   6.545 -0.0202 -0.0750  0.2414
  745POPS   C3B11777   8.226   4.971   6.881 -0.0724 -0.1831 -0.2809
  745POPS   C4B11778   8.238   5.097   7.301  0.0835 -0.2208 -0.0020
  746POPS   CNO11779  14.563  15.403   5.552  0.0308  0.1829  0.1007
  746POPS   PO411780  14.621  15.755   5.365  0.1361 -0.1161 -0.0710
  746POPS   GL111781  14.791  15.788   5.794  0.2283 -0.0436  0.0962
  746POPS   GL211782  14.587  15.661   6.045 -0.1522  0.1617  0.2909
  746POPS   C1A11783  15.058  15.621   6.152 -0.5200  0.2454  0.0809
  746POPS   D2A11784  15.158  15.695   6.533 -0.1689 -0.1039  0.0017
  746POPS   C3A11785  14.925  15.718   6.908 -0.0182 -0.1877 -0.1032
  746POPS   C4A11786  15.059  15.653   7.290  0.0448  0.1254  0.1522
  746POPS   C1B11787  14.682  15.589   6.447 -0.1823 -0.0049 -0.0845
  746POPS   C2B11788  14.316  15.586   6.703  0.1467 -0.1958 -0.1667
  746POPS   C3B11789  14.062  15.247   6.996  0.0144  0.4508 -0.1593
  746POPS   C4B11790  13.880  15.211   7.325  0.2696  0.0390  0.0622
  747POPS   CNO11791  17.257   7.373   5.558  0.2153  0.1617  0.0620
  747POPS   PO411792  17.669   7.325   5.503 -0.3446  0.1618 -0.4199
  747POPS   GL111793  17.568   7.359   5.985 -0.0824  0.0170 -0.1291
  747POPS   GL211794  17.410   7.627   6.132  0.0310  0.1141  0.0615
  747POPS   C1A11795  17.282   7.203   6.362 -0.2343  0.1918 -0.0667
  747POPS   D2A11796  16.968   7.437   6.638  0.0227  0.0296  0.1122
  747POPS   C3A11797  16.634   7.466   6.924  0.1051  0.1194 -0.3542
  747POPS   C4A11798  16.415   7.533   7.364  0.0703  0.0590 -0.0708
  747POPS   C1B11799  17.409   7.667   6.589  0.0027 -0.0467  0.0410
  747POPS   C2B11800  17.251   7.735   6.962  0.4120 -0.1038  0.0276
  747POPS   C3B11801  17.303   7.670   7.482  0.3421 -0.0748  0.2165
  747POPS   C4B11802  17.170   7.708   7.926 -0.2240 -0.0653 -0.1057
  748POPS   CNO11803  11.586   7.050   5.978  0.1592 -0.0748 -0.3350
  748POPS   PO411804  12.101   6.980   5.782  0.1165  0.3113 -0.0305
  748POPS   GL111805  12.096   6.776   6.058 -0.0108  0.2110 -0.0833
  748POPS   GL211806  11.843   6.783   6.272  0.4181 -0.0665 -0.0052
  748POPS   C1A11807  12.274   6.576   6.384  0.0238  0.0827  0.0308
  748POPS   D2A11808  12.396   6.509   6.757 -0.2773  0.0902 -0.1333
  748POPS   C3A11809  12.802   6.401   6.926  0.1758  0.2575  0.1247
  748POPS   C4A11810  13.194   6.468   6.991 -0.0405  0.0661 -0.0590
  748POPS   C1B11811  11.466   6.761   6.491 -0.1879 -0.0498 -0.1533
  748POPS   C2B11812  11.170   6.766   6.780  0.1917 -0.3007 -0.2260
  748POPS   C3B11813  11.111   6.703   7.290 -0.1597 -0.2357  0.0673
  748POPS   C4B11814  11.013   6.831   7.687  0.0726  0.0353  0.2356
  749POPS   CNO11815   2.410   9.654   5.298 -0.0601  0.0916 -0.0006
  749POPS   PO411816   2.162   9.918   5.440 -0.0398 -0.1889 -0.0882
  749POPS   GL111817   2.273   9.656   5.805  0.0419  0.1261  0.1110
  749POPS   GL211818   2.194   9.850   6.086  0.1256 -0.1493 -0.0034
  749POPS   C1A11819   2.554   9.351   6.030 -0.3202  0.4673  0.0298
  749POPS   D2A11820   2.709   8.897   6.057 -0.0267  0.1409 -0.2428
  749POPS   C3A11821   2.902   8.747   6.428 -0.1595 -0.3650  0.0729
  749POPS   C4A11822   3.301   8.785   6.585  0.1810 -0.1416  0.0444
  749POPS   C1B11823   2.144   9.807   6.556 -0.2109 -0.1433 -0.0296
  749POPS   C2B11824   1.870   9.897   6.838 -0.1467  0.1664  0.0045
  749POPS   C3B11825   1.762  10.159   7.140 -0.1948  0.2880 -0.2192
  749POPS   C4B11826   1.637  10.351   7.549 -0.1629  0.2846  0.0322
  750POPS   CNO11827   0.749  11.644   5.762 -0.3110 -0.0346  0.3491
  750POPS   PO411828   0.358  11.474   5.510 -0.3075 -0.0708  0.1921
  750POPS   GL111829   0.278  11.409   5.942  0.1072 -0.0692 -0.0684
  750POPS   GL211830   0.552  11.344   6.193  0.1157  0.1538  0.2317
  750POPS   C1A11831  -0.005  11.303   6.321 -0.0969  0.1780  0.0195
  750POPS   D2A11832  -0.017  11.183   6.781 -0.2333  0.0964 -0.2650
  750POPS   C3A11833   0.191  11.469   7.156  0.1636  0.2402 -0.1896
  750POPS   C4A11834   0.560  11.732   7.216  0.3662 -0.2388 -0.1236
  750POPS   C1B11835   0.394  11.592   6.577  0.3001  0.2693 -0.1313
  750POPS   C2B11836   0.004  11.786   6.893  0.0910 -0.0610  0.2267
  750POPS   C3B11837  -0.386  11.583   7.091  0.1545  0.1166 -0.0611
  750POPS   C4B11838  -0.798  11.648   7.038  0.2433 -0.3262 -0.1971
  751POPS   CNO11839   3.524   8.042   5.134 -0.0631  0.0640  0.3638
  751POPS   PO411840   3.420   7.773   5.397 -0.2461 -0.2771  0.0183
  751POPS   GL111841   3.574   7.746   5.801  0.2972  0.8453 -0.0043
  751POPS   GL211842   3.886   7.799   5.838 -0.3164  0.0208  0.2422
  751POPS   C1A11843   3.531   7.629   6.219  0.0074 -0.1211 -0.0303
  751POPS   D2A11844   3.610   7.606   6.622 -0.0053 -0.0283  0.2202
  751POPS   C3A11845   3.664   7.778   7.097  0.0609 -0.1175  0.3775
  751POPS   C4A11846   3.748   8.088   7.302  0.0227 -0.1757 -0.0838
  751POPS   C1B11847   3.732   8.142   6.134 -0.1021  0.0556  0.1933
  751POPS   C2B11848   3.695   8.488   6.422 -0.2521 -0.1144  0.0228
  751POPS   C3B11849   3.829   8.763   6.619 -0.0005 -0.3106 -0.0953
  751POPS   C4B11850   3.832   8.940   7.085  0.2457  0.1553  0.0356
  752POPS   CNO11851  10.984  13.694   5.770 -0.2164  0.0987  0.1529
  752POPS   PO411852  10.881  13.350   5.883  0.0832  0.2119  0.0904
  752POPS   GL111853  10.846  13.206   6.194  0.1084 -0.4546 -0.2106
  752POPS   GL211854  11.128  13.074   6.262 -0.0612  0.0579 -0.0184
  752POPS   C1A11855  10.820  12.771   6.495  0.0297 -0.2691 -0.1779
  752POPS   D2A11856  10.512  12.482   6.438 -0.0184 -0.0299 -0.1364
  752POPS   C3A11857  10.649  11.970   6.564  0.1627  0.0053 -0.2298
  752POPS   C4A11858  10.351  11.648   6.710  0.1060 -0.0109  0.0143
  752POPS   C1B11859  11.045  13.189   6.674 -0.3096  0.0164  0.2349
  752POPS   C2B11860  10.736  13.171   6.951  0.1254  0.2065  0.2595
  752POPS   C3B11861  10.649  13.054   7.348  0.2275  0.2662 -0.0982
  752POPS   C4B11862  10.425  13.268   7.643  0.5078  0.0111  0.1723
  753POPS   CNO11863   9.688  10.876   5.518  0.1639 -0.0005 -0.0419
  753POPS   PO411864   9.387  11.202   5.572  0.3743  0.1013 -0.1732
  753POPS   GL111865   9.614  11.131   6.052 -0.3098  0.0500  0.0457
  753POPS   GL211866   9.698  10.812   6.042 -0.2838 -0.2721  0.4004
  753POPS   C1A11867   9.398  11.047   6.422 -0.0885  0.2318  0.2234
  753POPS   D2A11868   9.492  11.097   6.879  0.0142 -0.6374  0.1942
  753POPS   C3A11869   9.177  11.162   7.132 -0.0298 -0.1130  0.2179
  753POPS   C4A11870   9.030  11.571   7.276 -0.2703  0.2219 -0.1948
  753POPS   C1B11871   9.878  10.870   6.423 -0.1096 -0.0662  0.4097
  753POPS   C2B11872   9.961  10.837   6.764  0.3187  0.0433 -0.1555
  753POPS   C3B11873   9.948  10.914   7.139 -0.2835  0.0949  0.3668
  753POPS   C4B11874   9.986  11.186   7.538 -0.1742 -0.1652 -0.1439
  754POPS   CNO11875   9.285   4.685   4.926 -0.4349  0.1483  0.1134
  754POPS   PO411876   9.062   4.461   5.243 -0.0087  0.2378 -0.0982
  754POPS   GL111877   9.006   4.524   5.695  0.4267 -0.1893 -0.0468
  754POPS   GL211878   9.236   4.702   5.871  0.2899 -0.0682  0.1266
  754POPS   C1A11879   8.702   4.650   5.941 -0.2099 -0.0376  0.0921
  754POPS   D2A11880   8.632   4.518   6.377  0.1081 -0.2086  0.0625
  754POPS   C3A11881   8.691   4.720   6.728  0.3698 -0.0809  0.0223
  754POPS   C4A11882   8.607   4.725   7.185 -0.0709 -0.0744  0.0535
  754POPS   C1B11883   9.112   4.630   6.310  0.1377  0.1155 -0.0617
  754POPS   C2B11884   9.214   4.717   6.730 -0.0279  0.0796 -0.0786
  754POPS   C3B11885   9.194   4.600   7.107 -0.1331  0.0856  0.2511
  754POPS   C4B11886   9.096   4.751   7.485 -0.2654  0.2378 -0.1333
  755POPS   CNO11887  11.828  12.509   5.540  0.0927 -0.0163 -0.1004
  755POPS   PO411888  11.659  12.232   5.426 -0.1012  0.0327 -0.1804
  755POPS   GL111889  11.667  12.111   5.906  0.4337  0.1957 -0.0300
  755POPS   GL211890  11.919  11.969   5.999 -0.1534 -0.1085  0.0276
  755POPS   C1A11891  11.667  12.051   6.428 -0.0614 -0.0204 -0.3344
  755POPS   D2A11892  11.488  12.269   6.727  0.2861 -0.3360 -0.0836
  755POPS   C3A11893  11.195  12.195   7.021 -0.1090 -0.0688 -0.0125
  755POPS   C4A11894  10.886  11.914   7.231 -0.2828  0.2313 -0.0732
  755POPS   C1B11895  12.202  11.989   6.403 -0.0012 -0.1714 -0.1907
  755POPS   C2B11896  12.138  12.043   6.790 -0.0664 -0.0555  0.1317
  755POPS   C3B11897  12.397  12.159   7.086  0.0730  0.1646  0.0084
  755POPS   C4B11898  12.314  12.182   7.510 -0.2702 -0.2531  0.0302
  756POPS   CNO11899  15.148   3.070   5.632  0.2804 -0.1868  0.1621
  756POPS   PO411900  15.084   3.461   5.606 -0.0880  0.1328  0.3285
  756POPS   GL111901  15.145   3.532   6.021 -0.3084  0.2805  0.0112
  756POPS   GL211902  14.852   3.489   6.142 -0.3024  0.1304 -0.0033
  756POPS   C1A11903  15.190   3.436   6.507  0.0734 -0.0785  0.0805
  756POPS   D2A11904  15.012   3.123   6.789  0.2882 -0.0206  0.0792
  756POPS   C3A11905  14.973   3.325   7.219 -0.3122 -0.2720  0.0498
  756POPS   C4A11906  14.716   3.157   7.588  0.1426  0.1322 -0.0070
  756POPS   C1B11907  14.734   3.581   6.500  0.3785 -0.2410 -0.1998
  756POPS   C2B11908  14.532   3.542   6.971 -0.0712  0.0713 -0.0163
  756POPS   C3B11909  14.517   3.672   7.357  0.1390 -0.1027 -0.2136
  756POPS   C4B11910  14.282   3.766   7.631  0.2981 -0.0601 -0.0215
  757POPS   CNO11911   1.160   9.836   6.159 -0.0822 -0.4407  0.1568
  757POPS   PO411912   1.379  10.095   5.899  0.2255  0.0943  0.2961
  757POPS   GL111913   1.148  10.375   6.190 -0.2903  0.2262 -0.0387
  757POPS   GL211914   1.014  10.631   6.055  0.0928  0.2827 -0.0495
  757POPS   C1A11915   1.071  10.597   6.573  0.1448 -0.0039 -0.1448
  757POPS   D2A11916   1.128  11.002   6.851 -0.2650  0.0996  0.1576
  757POPS   C3A11917   1.250  11.378   6.935 -0.1481 -0.0663  0.0444
  757POPS   C4A11918   1.352  11.558   7.293  0.0208  0.4975  0.2243
  757POPS   C1B11919   0.833  10.939   6.247 -0.1557  0.1639 -0.0382
  757POPS   C2B11920   0.656  11.087   6.716  0.1833  0.0645 -0.0686
  757POPS   C3B11921   0.821  11.266   7.129 -0.1819 -0.2842 -0.0881
  757POPS   C4B11922   1.038  11.281   7.626  0.2081 -0.2088  0.2051
  758POPS   CNO11923   7.995  15.346   5.165  0.1084  0.3788  0.0036
  758POPS   PO411924   7.656  15.085   5.362 -0.0284 -0.2434  0.0713
  758POPS   GL111925   7.506  14.995   5.780  0.3071 -0.1065 -0.0713
  758POPS   GL211926   7.739  15.145   6.009  0.0873 -0.1438 -0.1845
  758POPS   C1A11927   7.228  14.662   6.034  0.1847 -0.2077  0.0150
  758POPS   D2A11928   7.147  14.484   6.415 -0.1273 -0.1489 -0.1219
  758POPS   C3A11929   7.047  14.648   6.723  0.0228  0.3473  0.3625
  758POPS   C4A11930   6.947  14.519   7.132 -0.2810  0.0310 -0.2653
  758POPS   C1B11931   7.694  15.210   6.426  0.3929  0.0106 -0.1475
  758POPS   C2B11932   7.501  15.298   6.808 -0.0709  0.1697 -0.1781
  758POPS   C3B11933   7.625  15.397   7.235  0.1121 -0.2299  0.0127
  758POPS   C4B11934   7.779  15.618   7.540  0.2218 -0.3534 -0.2571
  759POPS   CNO11935   2.305  17.382   5.032 -0.0712 -0.2519 -0.2115
  759POPS   PO411936   2.435  17.670   5.314  0.0232 -0.0195 -0.0778
  759POPS   GL111937   2.568  17.488   5.653 -0.0107 -0.1545 -0.1696
  759POPS   GL211938   2.291  17.416   5.719 -0.2459 -0.1374 -0.0712
  759POPS   C1A11939   2.620  17.532   6.169  0.1562 -0.1911  0.0452
  759POPS   D2A11940   2.613  17.495   6.619 -0.2752 -0.1783  0.3196
  759POPS   C3A11941   2.921  17.771   6.810 -0.1141  0.0941 -0.0100
  759POPS   C4A11942   3.294  17.909   6.561  0.0102 -0.1035  0.2752
  759POPS   C1B11943   2.058  17.653   6.106  0.0477 -0.2001 -0.1537
  759POPS   C2B11944   2.172  17.697   6.607 -0.1163 -0.0100  0.0579
  759POPS   C3B11945   2.060  17.740   7.014  0.0378  0.0282  0.1359
  759POPS   C4B11946   2.045  17.786   7.527  0.0458  0.0926 -0.0779
  760POPS   CNO11947   9.244  16.332   5.151  0.2296  0.2942 -0.0058
  760POPS   PO411948   9.240  15.952   5.448 -0.2189 -0.0695  0.0473
  760POPS   GL111949   9.527  15.963   5.812  0.2382 -0.1140 -0.1085
  760POPS   GL211950   9.756  16.307   5.799  0.3548 -0.1142 -0.0104
  760POPS   C1A11951   9.420  15.871   6.208 -0.0310 -0.1318 -0.1312
  760POPS   D2A11952   9.408  15.884   6.670 -0.3290  0.1716  0.0540
  760POPS   C3A11953   9.185  15.488   6.853  0.0884 -0.1178  0.0271
  760POPS   C4A11954   9.236  15.154   6.797  0.2286  0.0963  0.1247
  760POPS   C1B11955   9.635  16.338   6.182 -0.0539  0.2463 -0.1485
  760POPS   C2B11956   9.619  16.315   6.583  0.1506  0.1955  0.0664
  760POPS   C3B11957   9.759  16.429   7.060 -0.1211 -0.1711  0.1740
  760POPS   C4B11958   9.795  16.288   7.470 -0.0282 -0.0125 -0.0686
  761POPS   CNO11959   9.546   2.776   5.456 -0.1350 -0.0844  0.1242
  761POPS   PO411960   9.708   2.454   5.680 -0.1408 -0.1518  0.1205
  761POPS   GL111961   9.685   2.453   6.080 -0.1156 -0.1238  0.1211
  761POPS   GL211962   9.506   2.796   6.005 -0.0461 -0.0690 -0.0948
  761POPS   C1A11963   9.969   2.363   6.455  0.0738  0.1674 -0.0782
  761POPS   D2A11964   9.719   2.456   6.774 -0.0758  0.3928 -0.1263
  761POPS   C3A11965   9.671   2.527   7.232 -0.2528  0.4440  0.1555
  761POPS   C4A11966   9.680   2.314   7.580 -0.2483  0.1543  0.2057
  761POPS   C1B11967   9.459   2.795   6.480 -0.2870 -0.4743 -0.1507
  761POPS   C2B11968   9.394   2.936   6.925 -0.1764  0.0774  0.0134
  761POPS   C3B11969   9.157   3.109   7.236 -0.0257 -0.0234 -0.1386
  761POPS   C4B11970   9.203   3.450   7.512  0.2574 -0.1468  0.0904
  762POPS   CNO11971   4.434  16.508   5.503 -0.0127  0.1348  0.0085
  762POPS   PO411972   4.869  16.718   5.443 -0.1884 -0.2482 -0.0917
  762POPS   GL111973   4.673  16.905   5.812 -0.0914  0.0986 -0.0034
  762POPS   GL211974   4.887  17.110   5.943 -0.1444 -0.0846  0.2008
  762POPS   C1A11975   4.255  16.750   5.981  0.0776 -0.0301 -0.2475
  762POPS   D2A11976   3.807  16.711   6.166  0.0114 -0.0767  0.1140
  762POPS   C3A11977   3.612  16.285   6.044  0.0585 -0.1193  0.2806
  762POPS   C4A11978   3.305  15.985   6.056 -0.0551 -0.0424 -0.0345
  762POPS   C1B11979   4.903  17.112   6.346  0.2023  0.0749 -0.0889
  762POPS   C2B11980   4.895  17.016   6.749  0.1078  0.0574 -0.1560
  762POPS   C3B11981   5.026  17.233   7.075 -0.0343  0.1702  0.0445
  762POPS   C4B11982   5.133  17.200   7.478  0.1078  0.3738 -0.0147
  763POPS   CNO11983   6.799   4.283   5.533 -0.2389  0.0857  0.2643
  763POPS   PO411984   6.400   4.034   5.431 -0.3230 -0.1919  0.2310
  763POPS   GL111985   6.297   4.145   5.761 -0.0439 -0.0625  0.2438
  763POPS   GL211986   6.353   4.307   5.931  0.0979 -0.2446 -0.3097
  763POPS   C1A11987   6.034   4.044   6.250  0.1559 -0.2552  0.3145
  763POPS   D2A11988   6.156   3.969   6.690  0.2040  0.1803  0.2493
  763POPS   C3A11989   6.200   4.096   7.121 -0.1117  0.0751 -0.1182
  763POPS   C4A11990   5.949   4.108   7.561  0.2569 -0.4067 -0.0304
  763POPS   C1B11991   6.360   4.519   6.415 -0.1746  0.0028 -0.1945
  763POPS   C2B11992   6.473   4.390   6.799  0.3658 -0.0143  0.0762
  763POPS   C3B11993   6.661   4.317   7.215 -0.0486  0.0376 -0.1117
  763POPS   C4B11994   6.879   4.520   7.509  0.0271  0.0089  0.0166
  764POPS   CNO11995   0.622  13.634   4.792 -0.0926 -0.1059 -0.0852
  764POPS   PO411996   0.566  14.029   4.941  0.2534  0.1541  0.0634
  764POPS   GL111997   0.721  14.156   5.338  0.2118 -0.0856  0.0884
  764POPS   GL211998   0.548  14.389   5.727  0.0733  0.0643  0.0492
  764POPS   C1A11999   0.908  13.987   5.660 -0.4267  0.1031  0.0909
  764POPS   D2A12000   0.932  14.149   5.981 -0.3683 -0.0732 -0.1071
  764POPS   C3A12001   1.268  14.331   6.031  0.0703 -0.3049  0.0285
  764POPS   C4A12002   1.469  14.599   5.847  0.2689  0.1093 -0.0463
  764POPS   C1B12003   0.803  14.677   5.986  0.0640  0.0343  0.2577
  764POPS   C2B12004   1.172  14.758   6.259  0.1527  0.2639 -0.0684
  764POPS   C3B12005   1.299  14.839   6.659  0.1843  0.4048  0.0431
  764POPS   C4B12006   1.621  14.819   6.764 -0.1229  0.1108  0.2628
  765POPS   CNO12007   0.182   4.092   5.227  0.1688  0.0543 -0.1398
  765POPS   PO412008   0.129   4.214   5.582 -0.0063 -0.0877 -0.2192
  765POPS   GL112009   0.274   4.519   5.881 -0.0710  0.3451  0.2444
  765POPS   GL212010   0.450   4.308   5.982 -0.1116  0.3290  0.3091
  765POPS   C1A12011   0.238   4.733   6.318  0.1967 -0.0205 -0.0071
  765POPS   D2A12012   0.334   4.799   6.677  0.0493 -0.0255 -0.1805
  765POPS   C3A12013   0.176   4.813   7.098  0.0054 -0.1145 -0.1100
  765POPS   C4A12014   0.178   4.545   7.426 -0.2114 -0.4470 -0.0756
  765POPS   C1B12015   0.611   4.335   6.325 -0.0543 -0.1131  0.2262
  765POPS   C2B12016   0.749   4.165   6.721  0.0949 -0.0034 -0.2793
  765POPS   C3B12017   0.879   4.173   7.179  0.2056  0.1451  0.0113
  765POPS   C4B12018   1.111   3.929   7.415  0.0253 -0.0709 -0.0203
  766POPS   CNO12019   0.972  16.948   5.247 -0.2936 -0.0698 -0.1139
  766POPS   PO412020   0.905  17.398   5.220 -0.4188  0.0876 -0.2202
  766POPS   GL112021   0.836  17.384   5.619 -0.2278 -0.0714 -0.1955
  766POPS   GL212022   0.750  17.076   5.701 -0.1651  0.2005  0.0843
  766POPS   C1A12023   0.928  17.517   6.029 -0.1268 -0.1489  0.0761
  766POPS   D2A12024   1.086  17.811   6.306 -0.1213  0.1241 -0.5336
  766POPS   C3A12025   1.005  17.555   6.689  0.0745 -0.3846  0.0138
  766POPS   C4A12026   1.095  17.466   7.057  0.5562 -0.0719  0.1221
  766POPS   C1B12027   0.632  17.137   6.157  0.1945  0.0092  0.1738
  766POPS   C2B12028   0.792  17.105   6.519  0.3151 -0.0851  0.2501
  766POPS   C3B12029   1.040  16.988   6.955  0.2041 -0.0961 -0.1696
  766POPS   C4B12030   1.362  17.020   7.164  0.1972 -0.1458  0.0377
  767POPS   CNO12031  14.505  10.259   5.256 -0.1677  0.0927  0.3433
  767POPS   PO412032  14.674  10.603   5.481  0.3091 -0.2388 -0.4070
  767POPS   GL112033  14.822  10.464   5.863 -0.0872 -0.1426 -0.1409
  767POPS   GL212034  15.137  10.412   5.969  0.0545 -0.0473  0.1034
  767POPS   C1A12035  14.802  10.123   6.174  0.4578  0.0334 -0.1350
  767POPS   D2A12036  14.956  10.018   6.537  0.1130  0.4550 -0.2123
  767POPS   C3A12037  15.307  10.163   6.807 -0.1615 -0.1913  0.0172
  767POPS   C4A12038  15.521  10.307   7.160 -0.1452 -0.0741 -0.1454
  767POPS   C1B12039  15.389  10.258   6.316  0.6225  0.1902 -0.0544
  767POPS   C2B12040  15.776  10.176   6.453 -0.1331 -0.1104  0.0904
  767POPS   C3B12041  15.882  10.384   6.759  0.0743 -0.1160  0.1035
  767POPS   C4B12042  16.047  10.721   7.042 -0.1462 -0.1021 -0.0992
  768POPS   CNO12043  16.479  17.818   5.551  0.1609  0.0039 -0.1315
  768POPS   PO412044  16.649  17.578   5.508  0.1780 -0.2439 -0.3529
  768POPS   GL112045  16.416  17.449   5.868  0.0979  0.1272 -0.0382
  768POPS   GL212046  16.158  17.519   5.911 -0.1116 -0.2007 -0.1042
  768POPS   C1A12047  16.394  17.331   6.317  0.1739  0.3227  0.0017
  768POPS   D2A12048  16.640  17.312   6.672  0.0236  0.1394 -0.2492
  768POPS   C3A12049  16.723  17.140   7.129  0.0600 -0.0278  0.1259
  768POPS   C4A12050  16.705  16.755   7.326 -0.2329 -0.1181 -0.2231
  768POPS   C1B12051  15.930  17.183   6.074 -0.0297 -0.0128 -0.2220
  768POPS   C2B12052  16.026  17.012   6.555  0.3465  0.2123 -0.1646
  768POPS   C3B12053  15.976  16.682   6.874  0.0352 -0.0038  0.1627
  768POPS   C4B12054  16.113  16.218   7.043  0.2149  0.1027  0.0149
  769POPS   CNO12055   1.618   6.321   5.039  0.0510 -0.4446  0.0071
  769POPS   PO412056   1.282   6.441   5.280  0.0721  0.1851 -0.1514
  769POPS   GL112057   1.269   6.422   5.705  0.0205 -0.1496  0.0815
  769POPS   GL212058   1.293   6.114   5.821 -0.1895  0.0545  0.3466
  769POPS   C1A12059   1.258   6.400   6.174 -0.1262  0.3780 -0.0341
  769POPS   D2A12060   1.308   6.081   6.502  0.2147 -0.2284  0.1778
  769POPS   C3A12061   1.234   6.141   6.893 -0.2264 -0.0747  0.0364
  769POPS   C4A12062   1.422   6.229   7.299  0.0295 -0.2486  0.0654
  769POPS   C1B12063   0.979   6.054   6.060 -0.1707  0.2495 -0.2602
  769POPS   C2B12064   0.643   5.884   6.189 -0.0988 -0.1528  0.1397
  769POPS   C3B12065   0.209   5.742   6.152 -0.2354  0.2420 -0.1718
  769POPS   C4B12066  -0.291   5.637   6.113  0.0043 -0.1961 -0.0644
  770POPS   CNO12067   8.171   0.797   5.663  0.1139 -0.1934 -0.2448
  770POPS   PO412068   7.892   0.493   5.509 -0.3125  0.0523  0.0646
  770POPS   GL112069   7.861   0.378   5.933  0.2763 -0.0479 -0.0699
  770POPS   GL212070   7.515   0.277   5.992 -0.2537  0.0081 -0.1099
  770POPS   C1A12071   7.926   0.345   6.386 -0.4115  0.1197 -0.0894
  770POPS   D2A12072   8.033   0.241   6.846 -0.2803  0.0902 -0.1466
  770POPS   C3A12073   8.105   0.578   7.206 -0.0021  0.3929 -0.0142
  770POPS   C4A12074   8.377   0.489   7.614  0.1192 -0.3445 -0.0393
  770POPS   C1B12075   7.395   0.319   6.374 -0.2864 -0.3314 -0.3690
  770POPS   C2B12076   7.210   0.413   6.739 -0.4903  0.3166 -0.2357
  770POPS   C3B12077   6.809   0.392   6.879 -0.0885  0.3067  0.1590
  770POPS   C4B12078   6.394   0.417   6.952  0.1263  0.0992  0.0460
  771POPS   CNO12079  17.751   0.770   5.452 -0.0629  0.1429 -0.1783
  771POPS   PO412080  17.491   0.566   5.406 -0.0190 -0.0053  0.0100
  771POPS   GL112081  17.219   0.433   5.694 -0.2215 -0.1608 -0.1912
  771POPS   GL212082  17.241   0.755   5.879  0.1098 -0.2706  0.1929
  771POPS   C1A12083  17.279   0.250   6.089 -0.1858  0.0380  0.2623
  771POPS   D2A12084  17.578   0.335   6.446  0.1417  0.1589 -0.1102
  771POPS   C3A12085  17.479   0.245   6.940  0.0979  0.0320 -0.0619
  771POPS   C4A12086  17.585   0.000   7.189 -0.0184  0.3125  0.0127
  771POPS   C1B12087  17.232   0.875   6.256 -0.1786 -0.1764 -0.0681
  771POPS   C2B12088  17.135   0.544   6.567  0.0054 -0.0169 -0.2240
  771POPS   C3B12089  17.098   0.123   6.566  0.0973  0.1544 -0.0561
  771POPS   C4B12090  17.136  -0.209   6.337  0.0543  0.3925 -0.1947
  772POPS   CNO12091   4.672   9.004   5.152 -0.0766  0.0102  0.1895
  772POPS   PO412092   4.566   8.730   5.473  0.1322 -0.4614 -0.2059
  772POPS   GL112093   4.830   8.801   5.816 -0.1249 -0.0158  0.1909
  772POPS   GL212094   4.804   8.610   6.082  0.2043  0.1532  0.1249
  772POPS   C1A12095   5.113   9.019   5.800 -0.0164  0.0006 -0.0120
  772POPS   D2A12096   5.526   9.257   5.740 -0.0306  0.0983 -0.1792
  772POPS   C3A12097   5.672   9.504   6.065  0.2321  0.3408  0.1013
  772POPS   C4A12098   6.014   9.496   6.397  0.0100 -0.1162  0.3022
  772POPS   C1B12099   4.877   8.319   6.378  0.0189  0.0042 -0.2229
  772POPS   C2B12100   4.694   8.229   6.821 -0.0125 -0.1071  0.1484
  772POPS   C3B12101   4.589   8.512   7.200 -0.2385  0.0162  0.2399
  772POPS   C4B12102   4.415   8.444   7.682 -0.0644 -0.2280  0.3505
  773POPS   CNO12103  15.770   8.165   5.215  0.1023 -0.2608 -0.1114
  773POPS   PO412104  15.327   8.147   5.374 -0.1494 -0.2731  0.1348
  773POPS   GL112105  15.271   7.897   5.770 -0.0119 -0.0551 -0.3153
  773POPS   GL212106  15.289   8.198   6.017 -0.2256 -0.0403 -0.0515
  773POPS   C1A12107  15.180   7.680   6.144 -0.0107 -0.0526  0.1018
  773POPS   D2A12108  15.256   7.656   6.449  0.0766 -0.1231  0.3873
  773POPS   C3A12109  15.000   7.821   6.805  0.1541  0.0820 -0.0294
  773POPS   C4A12110  15.132   7.923   7.197 -0.2378  0.1311  0.0202
  773POPS   C1B12111  15.177   8.176   6.399  0.0403  0.0750 -0.0103
  773POPS   C2B12112  15.082   8.363   6.880 -0.2980 -0.0610 -0.2155
  773POPS   C3B12113  15.257   8.383   7.188  0.1419  0.1110  0.0408
  773POPS   C4B12114  15.475   8.528   7.530 -0.0985 -0.1827  0.0045
  774POPS   CNO12115   3.568  10.927   5.351 -0.0190 -0.0207 -0.0245
  774POPS   PO412116   3.922  11.280   5.413  0.2551  0.0472  0.1091
  774POPS   GL112117   3.684  11.294   5.763 -0.0886  0.1057 -0.0754
  774POPS   GL212118   3.594  11.557   5.839 -0.0075  0.3718 -0.1472
  774POPS   C1A12119   3.492  11.202   6.180  0.2270 -0.0357 -0.3142
  774POPS   D2A12120   3.397  11.016   6.599 -0.0727  0.0671  0.1565
  774POPS   C3A12121   3.330  11.229   6.869  0.0477  0.2799  0.0083
  774POPS   C4A12122   2.989  11.290   7.157 -0.1630 -0.1237 -0.4030
  774POPS   C1B12123   3.657  11.647   6.318  0.1446  0.2128  0.0062
  774POPS   C2B12124   3.678  11.493   6.641 -0.0463 -0.0170  0.0309
  774POPS   C3B12125   3.823  11.315   7.137 -0.0675 -0.5177 -0.0785
  774POPS   C4B12126   3.880  11.335   7.579  0.1915  0.2644 -0.0607
  775POPS   CNO12127   8.714  14.286   5.232 -0.0025  0.1630 -0.0316
  775POPS   PO412128   8.680  14.708   5.477  0.1031 -0.0157 -0.0770
  775POPS   GL112129   8.748  14.628   5.874 -0.0556  0.2549 -0.0246
  775POPS   GL212130   8.954  14.800   6.055  0.0349  0.0240 -0.1007
  775POPS   C1A12131   8.558  14.518   6.251 -0.1319  0.0661 -0.0408
  775POPS   D2A12132   8.622  14.427   6.697 -0.0415 -0.1080  0.1762
  775POPS   C3A12133   8.519  14.111   6.851 -0.1075 -0.2567  0.0320
  775POPS   C4A12134   8.250  13.891   7.256  0.0318 -0.0629  0.1768
  775POPS   C1B12135   8.884  14.876   6.508 -0.1639  0.0593 -0.1599
  775POPS   C2B12136   9.088  14.689   6.860 -0.1022 -0.1860 -0.0447
  775POPS   C3B12137   9.347  14.873   7.220 -0.1540 -0.1186 -0.0371
  775POPS   C4B12138   9.373  15.308   7.409  0.1354 -0.1339 -0.1521
  776POPS   CNO12139   1.647   5.082   5.599 -0.0926  0.1243  0.0098
  776POPS   PO412140   1.919   4.858   5.337  0.0822 -0.0310 -0.2778
  776POPS   GL112141   2.087   4.769   5.768 -0.1374 -0.1698 -0.1045
  776POPS   GL212142   1.885   4.563   5.968 -0.1827 -0.0548  0.0747
  776POPS   C1A12143   1.968   4.901   6.295 -0.1096  0.2193  0.0129
  776POPS   D2A12144   1.729   4.749   6.533 -0.1905 -0.1904 -0.1411
  776POPS   C3A12145   1.498   4.664   6.854 -0.1166 -0.0218 -0.0847
  776POPS   C4A12146   1.235   4.564   7.276 -0.0130 -0.0151  0.0590
  776POPS   C1B12147   1.596   4.314   6.223 -0.0480 -0.1298  0.1663
  776POPS   C2B12148   1.758   4.185   6.751  0.1744 -0.2868  0.0317
  776POPS   C3B12149   2.129   4.096   6.950  0.0179  0.0567 -0.2292
  776POPS   C4B12150   2.309   3.867   7.355  0.0192  0.0683 -0.1419
  777POPS   CNO12151  15.951  17.988   5.736 -0.1983  0.2062  0.0726
  777POPS   PO412152  15.987  18.514   5.613  0.0147 -0.1860 -0.0047
  777POPS   GL112153  15.837  18.441   6.055  0.3332  0.0874 -0.2391
  777POPS   GL212154  15.537  18.630   6.046 -0.1730 -0.1867 -0.2373
  777POPS   C1A12155  15.727  18.352   6.448 -0.1911 -0.2594 -0.2354
  777POPS   D2A12156  15.868  18.316   6.704 -0.1184 -0.0719 -0.0919
  777POPS   C3A12157  15.946  17.966   6.858 -0.0875 -0.1823 -0.3088
  777POPS   C4A12158  15.816  17.804   7.292  0.1730 -0.2644 -0.0806
  777POPS   C1B12159  15.644  18.815   6.439  0.1540 -0.2512 -0.1012
  777POPS   C2B12160  15.612  18.758   6.888  0.0800 -0.1096 -0.3539
  777POPS   C3B12161  15.284  18.679   7.228 -0.0195 -0.0595  0.1604
  777POPS   C4B12162  14.984  18.749   7.494 -0.0521 -0.1202  0.1991
  778POPS   CNO12163  16.863   2.877   5.481  0.2293  0.2260 -0.0027
  778POPS   PO412164  16.452   2.887   5.697  0.1633  0.0597 -0.0873
  778POPS   GL112165  16.183   2.624   5.988  0.3182  0.0382 -0.0524
  778POPS   GL212166  16.082   2.849   6.152 -0.0110  0.2851 -0.0345
  778POPS   C1A12167  16.055   2.422   6.398  0.2116 -0.1460 -0.1117
  778POPS   D2A12168  16.021   2.469   6.845  0.1544  0.0848 -0.0833
  778POPS   C3A12169  15.594   2.640   6.941  0.1989 -0.2497  0.0020
  778POPS   C4A12170  15.337   2.974   7.202  0.0431 -0.0423  0.0357
  778POPS   C1B12171  15.832   2.883   6.602 -0.0164 -0.1588  0.5222
  778POPS   C2B12172  15.529   3.191   6.820 -0.1605 -0.1335 -0.1952
  778POPS   C3B12173  15.469   3.573   7.166 -0.1459  0.3016  0.0608
  778POPS   C4B12174  15.271   3.862   7.345 -0.2803  0.1761 -0.2985
  779POPS   CNO12175   0.624  14.963   5.658  0.1494 -0.0202 -0.0164
  779POPS   PO412176   0.358  15.117   5.253 -0.2304  0.3659 -0.0147
  779POPS   GL112177   0.103  14.948   5.537 -0.1063 -0.1054  0.0522
  779POPS   GL212178   0.057  14.535   5.610 -0.2545 -0.0988  0.0882
  779POPS   C1A12179  -0.076  15.096   5.956 -0.1348  0.1238 -0.1528
  779POPS   D2A12180  -0.167  14.797   6.251  0.0861 -0.0505 -0.0846
  779POPS   C3A12181  -0.062  14.843   6.657  0.2889 -0.2870  0.1088
  779POPS   C4A12182  -0.036  15.011   7.078  0.1981  0.3038 -0.4105
  779POPS   C1B12183   0.246  14.689   5.894 -0.0677 -0.0688 -0.3495
  779POPS   C2B12184   0.316  14.735   6.337 -0.1979 -0.0793 -0.0192
  779POPS   C3B12185   0.374  14.484   6.747  0.6056 -0.1053 -0.2116
  779POPS   C4B12186   0.684  14.537   7.136 -0.2183  0.0009 -0.0570
  780POPS   CNO12187  18.379  18.202   4.932  0.1126  0.1935  0.2432
  780POPS   PO412188  18.408  18.024   5.330 -0.1313  0.3912 -0.0037
  780POPS   GL112189  18.274  17.854   5.651  0.2157  0.2080  0.0999
  780POPS   GL212190  18.223  18.095   5.851  0.2609 -0.0069 -0.4039
  780POPS   C1A12191  18.211  17.631   5.964 -0.0988  0.2585  0.1100
  780POPS   D2A12192  18.018  17.248   6.193  0.1457 -0.1607 -0.0492
  780POPS   C3A12193  18.178  17.158   6.540 -0.0243  0.3236  0.1763
  780POPS   C4A12194  18.068  17.288   6.963 -0.2624  0.0145  0.1446
  780POPS   C1B12195  18.616  17.934   6.155  0.0859 -0.3055 -0.0984
  780POPS   C2B12196  18.849  17.530   6.268  0.0150 -0.4218  0.1409
  780POPS   C3B12197  19.175  17.329   6.612  0.1392  0.1998  0.2064
  780POPS   C4B12198  19.375  17.223   7.007 -0.2397 -0.1301  0.2025
  781POPS   CNO12199   4.634   6.451   5.452  0.0219  0.1569 -0.0677
  781POPS   PO412200   4.803   6.698   5.656 -0.2764  0.0480  0.2360
  781POPS   GL112201   4.796   6.983   5.972 -0.2517 -0.0833  0.1918
  781POPS   GL212202   4.492   7.253   5.965 -0.3896 -0.1782  0.3276
  781POPS   C1A12203   4.731   7.139   6.352 -0.0513  0.1388 -0.0491
  781POPS   D2A12204   4.573   7.110   6.724  0.2330 -0.0818 -0.1060
  781POPS   C3A12205   4.424   6.943   7.121 -0.0197  0.1406 -0.0561
  781POPS   C4A12206   4.367   6.467   7.181  0.1056 -0.4234  0.1779
  781POPS   C1B12207   4.350   7.434   6.326 -0.1548 -0.1603  0.0490
  781POPS   C2B12208   4.308   7.590   6.729  0.1522  0.1283  0.1222
  781POPS   C3B12209   4.247   8.000   6.932  0.2634  0.2312 -0.0428
  781POPS   C4B12210   4.191   8.431   6.895  0.2065  0.0596  0.1527
  782POPS   CNO12211   1.971   3.660   5.009 -0.1579 -0.1037  0.2305
  782POPS   PO412212   2.112   3.966   5.265  0.0244 -0.1803 -0.0323
  782POPS   GL112213   1.980   3.920   5.609  0.1859 -0.0180 -0.0844
  782POPS   GL212214   1.647   4.094   5.809  0.2104  0.1175 -0.2678
  782POPS   C1A12215   2.136   3.918   6.069 -0.0568 -0.1624 -0.3445
  782POPS   D2A12216   2.152   3.922   6.521  0.4785  0.1699  0.1835
  782POPS   C3A12217   2.197   3.496   6.735  0.2763  0.0527  0.2567
  782POPS   C4A12218   1.864   3.224   6.739 -0.2687 -0.1258 -0.0429
  782POPS   C1B12219   1.702   3.762   6.319 -0.0616 -0.2009  0.2563
  782POPS   C2B12220   1.694   3.701   6.765 -0.0832 -0.0529  0.0251
  782POPS   C3B12221   1.793   3.705   7.080  0.1188  0.0375 -0.0170
  782POPS   C4B12222   2.006   3.394   7.221 -0.0844 -0.1515  0.2636
  783POPS   CNO12223   8.534   2.835   5.457 -0.0061 -0.5845  0.0602
  783POPS   PO412224   9.011   2.860   5.516 -0.3309  0.2814  0.1907
  783POPS   GL112225   8.890   2.843   5.950  0.0719  0.0555  0.0515
  783POPS   GL212226   9.093   3.020   6.216  0.0027 -0.2800 -0.2092
  783POPS   C1A12227   8.926   2.576   6.307  0.2147 -0.1551 -0.0414
  783POPS   D2A12228   9.195   2.274   6.567 -0.0266  0.0807  0.0828
  783POPS   C3A12229   9.253   2.365   6.938 -0.3179  0.1957  0.1863
  783POPS   C4A12230   9.257   2.115   7.415 -0.2084  0.0406 -0.1895
  783POPS   C1B12231   8.977   2.883   6.681 -0.0432 -0.1947  0.2871
  783POPS   C2B12232   8.768   2.484   6.841  0.3946  0.0759  0.1943
  783POPS   C3B12233   8.727   2.168   7.245 -0.1901 -0.0147 -0.1325
  783POPS   C4B12234   8.761   1.950   7.690  0.3718  0.0458 -0.0695
  784POPS   CNO12235  11.935   6.020   6.006 -0.0028 -0.0434 -0.0531
  784POPS   PO412236  12.188   6.233   5.647 -0.0464  0.1030 -0.2871
  784POPS   GL112237  12.424   6.274   6.016  0.0584 -0.1206 -0.0584
  784POPS   GL212238  12.436   6.002   6.219 -0.0219 -0.0499 -0.2030
  784POPS   C1A12239  12.725   6.447   6.283 -0.2739 -0.3421 -0.1469
  784POPS   D2A12240  12.961   6.686   6.505 -0.1060 -0.0556  0.0376
  784POPS   C3A12241  13.332   6.920   6.546 -0.1567 -0.1657 -0.1699
  784POPS   C4A12242  13.546   7.238   6.259 -0.0303 -0.2601 -0.0584
  784POPS   C1B12243  12.633   6.073   6.607  0.2461 -0.4488 -0.0746
  784POPS   C2B12244  12.476   6.062   7.013  0.1266  0.2337  0.0347
  784POPS   C3B12245  12.418   6.038   7.440 -0.1667  0.1206  0.0077
  784POPS   C4B12246  12.491   6.156   7.777  0.0028  0.2339 -0.4205
  785POPS   CNO12247  17.757  12.231   5.496  0.0024 -0.0268  0.0764
  785POPS   PO412248  18.001  12.435   5.649 -0.1721  0.1873 -0.2917
  785POPS   GL112249  18.162  12.646   5.895 -0.1828  0.0464  0.1922
  785POPS   GL212250  18.284  12.420   6.073 -0.1438 -0.0994 -0.1079
  785POPS   C1A12251  18.163  12.892   6.247 -0.1046 -0.0092  0.2239
  785POPS   D2A12252  17.911  12.905   6.639 -0.2606 -0.3305  0.1540
  785POPS   C3A12253  18.058  12.689   6.924 -0.1444  0.0938 -0.1259
  785POPS   C4A12254  17.913  12.336   7.058  0.2089  0.3551  0.1762
  785POPS   C1B12255  17.915  12.466   6.398 -0.0229  0.0738  0.0838
  785POPS   C2B12256  17.625  12.220   6.629 -0.0475 -0.0054  0.2848
  785POPS   C3B12257  17.609  11.855   6.979  0.0044  0.0543 -0.0664
  785POPS   C4B12258  17.652  11.754   7.465 -0.2932 -0.2013  0.0557
  786POPS   CNO12259   1.750   0.227   5.473  0.0274 -0.0658 -0.2015
  786POPS   PO412260   1.364   0.069   5.574  0.1597 -0.1408 -0.1617
  786POPS   GL112261   1.350   0.209   5.975  0.1555 -0.3236 -0.1669
  786POPS   GL212262   1.215   0.535   6.015 -0.1147  0.0178 -0.1752
  786POPS   C1A12263   1.444   0.260   6.438 -0.0353 -0.0304 -0.0014
  786POPS   D2A12264   1.242   0.391   6.823 -0.0218  0.0589 -0.1188
  786POPS   C3A12265   0.959   0.225   6.936 -0.0370 -0.0268 -0.0825
  786POPS   C4A12266   0.796   0.036   7.302 -0.3047  0.0797 -0.0641
  786POPS   C1B12267   0.961   0.364   6.377 -0.0270  0.1453 -0.2335
  786POPS   C2B12268   0.593   0.265   6.573  0.0486  0.1073  0.1824
  786POPS   C3B12269   0.373   0.002   6.844 -0.1176  0.0090  0.2331
  786POPS   C4B12270   0.310  -0.063   7.255 -0.3412 -0.1666 -0.0603
  787POPS   CNO12271  18.681   6.080   5.380 -0.1723 -0.0199  0.1221
  787POPS   PO412272  19.124   6.006   5.394 -0.0604  0.0312  0.1723
  787POPS   GL112273  19.110   6.149   5.841  0.1938 -0.0370 -0.3384
  787POPS   GL212274  18.803   6.099   6.004  0.2067 -0.1427  0.1393
  787POPS   C1A12275  19.196   6.359   6.269  0.3732 -0.1459 -0.0677
  787POPS   D2A12276  19.253   6.444   6.705  0.2659 -0.1684 -0.2218
  787POPS   C3A12277  19.292   6.176   7.055 -0.4025 -0.0566 -0.1618
  787POPS   C4A12278  19.161   6.309   7.489 -0.0241  0.0633  0.2129
  787POPS   C1B12279  18.706   6.442   6.139  0.0542 -0.2529 -0.2253
  787POPS   C2B12280  18.843   6.659   6.497 -0.3330  0.0191 -0.0991
  787POPS   C3B12281  18.558   6.847   6.911 -0.0852 -0.1271 -0.0295
  787POPS   C4B12282  18.265   6.775   7.321 -0.0130 -0.0917  0.1328
  788POPS   CNO12283  17.007   4.629   5.334 -0.2804  0.2407  0.2997
  788POPS   PO412284  16.684   4.492   5.577  0.0883 -0.0878 -0.0417
  788POPS   GL112285  16.560   4.406   6.015  0.0946  0.1442  0.1058
  788POPS   GL212286  16.806   4.300   6.299  0.1703 -0.0544  0.0918
  788POPS   C1A12287  16.351   4.377   6.373  0.2321  0.1037  0.2004
  788POPS   D2A12288  16.380   4.005   6.583 -0.0918 -0.0867  0.0773
  788POPS   C3A12289  16.306   3.862   6.963 -0.0935  0.1915 -0.2285
  788POPS   C4A12290  16.556   3.732   7.394  0.2013 -0.0396  0.3760
  788POPS   C1B12291  17.045   4.502   6.623  0.2315 -0.3807  0.0646
  788POPS   C2B12292  16.999   4.665   7.030 -0.3587  0.0180  0.0244
  788POPS   C3B12293  16.637   4.736   7.310  0.1053 -0.2223  0.1202
  788POPS   C4B12294  16.149   4.869   7.178 -0.2848 -0.0197 -0.0779
  789POPS   CNO12295  13.899   2.806   5.167  0.3490 -0.0453  0.0142
  789POPS   PO412296  13.914   2.443   5.556  0.0329 -0.1439 -0.1326
  789POPS   GL112297  13.968   2.497   6.003 -0.1333 -0.1588  0.1534
  789POPS   GL212298  13.756   2.391   6.269  0.1310  0.0403  0.3936
  789POPS   C1A12299  14.301   2.225   6.191 -0.1659  0.0945  0.0022
  789POPS   D2A12300  14.627   2.051   6.325 -0.4081  0.2233 -0.1005
  789POPS   C3A12301  14.867   2.305   6.597 -0.1196  0.1386  0.1219
  789POPS   C4A12302  15.156   2.216   6.874 -0.0491  0.2993 -0.1631
  789POPS   C1B12303  14.088   2.304   6.645  0.0920  0.0742 -0.1725
  789POPS   C2B12304  14.458   2.041   6.785  0.1887 -0.0627 -0.1929
  789POPS   C3B12305  14.455   1.537   6.867  0.1414  0.0468  0.1001
  789POPS   C4B12306  14.490   1.286   7.234 -0.1562 -0.4732 -0.2206
  790POPS   CNO12307   3.311   2.060   5.085  0.1779  0.0763  0.0010
  790POPS   PO412308   3.682   2.127   5.352  0.2011  0.0755  0.1495
  790POPS   GL112309   3.351   2.221   5.565  0.0616  0.0149 -0.2732
  790POPS   GL212310   2.975   2.252   5.587  0.1357 -0.1913  0.2147
  790POPS   C1A12311   3.272   2.222   5.974 -0.0328  0.2632 -0.0876
  790POPS   D2A12312   3.028   2.221   6.316 -0.0934 -0.1157 -0.1680
  790POPS   C3A12313   3.114   2.360   6.724 -0.0362  0.0011 -0.1258
  790POPS   C4A12314   3.117   2.494   7.101 -0.2996  0.0558  0.1356
  790POPS   C1B12315   2.896   2.626   5.802 -0.0007  0.1483  0.0800
  790POPS   C2B12316   2.901   2.676   6.208  0.1009 -0.1683  0.1406
  790POPS   C3B12317   2.836   2.739   6.558  0.0741 -0.1406  0.0321
  790POPS   C4B12318   2.961   2.967   6.946  0.0730 -0.4741  0.1036
  791POPS   CNO12319  18.577   3.876   5.386 -0.0175 -0.0666  0.1357
  791POPS   PO412320  18.638   3.832   5.717  0.2353 -0.0058  0.2538
  791POPS   GL112321  18.714   3.609   6.097 -0.2671 -0.2241  0.1108
  791POPS   GL212322  18.805   3.318   6.089  0.0330 -0.1148  0.1188
  791POPS   C1A12323  18.850   3.717   6.450 -0.0662 -0.1664 -0.1552
  791POPS   D2A12324  18.915   3.525   6.818 -0.1309 -0.0300 -0.0651
  791POPS   C3A12325  18.998   3.648   7.209  0.1253  0.1777  0.0665
  791POPS   C4A12326  18.731   4.047   7.384  0.1176  0.0869  0.0637
  791POPS   C1B12327  18.803   3.137   6.495 -0.1089 -0.0883 -0.0767
  791POPS   C2B12328  19.104   2.896   6.634 -0.2538  0.0538 -0.3032
  791POPS   C3B12329  19.265   2.738   7.015 -0.1304 -0.0776  0.2538
  791POPS   C4B12330  19.631   2.524   7.324  0.0797  0.1052  0.1690
  792POPS   CNO12331  11.854   1.808   5.643  0.0957  0.0405  0.0494
  792POPS   PO412332  11.422   1.778   5.824  0.0157 -0.3879  0.1278
  792POPS   GL112333  11.218   1.557   6.174  0.3953  0.1858 -0.0783
  792POPS   GL212334  11.209   1.289   6.086 -0.0938 -0.3055  0.1035
  792POPS   C1A12335  10.908   1.277   6.458 -0.0573  0.2046  0.1050
  792POPS   D2A12336  10.960   1.183   6.776  0.0281 -0.1756 -0.0485
  792POPS   C3A12337  11.187   0.837   7.035 -0.0782  0.1711  0.0641
  792POPS   C4A12338  10.901   0.510   7.243 -0.2805 -0.2555  0.0510
  792POPS   C1B12339  11.400   1.115   6.390  0.0950  0.0068  0.0437
  792POPS   C2B12340  11.559   1.012   6.711 -0.0191  0.0904 -0.3044
  792POPS   C3B12341  11.998   1.018   6.988 -0.1105 -0.0748  0.0263
  792POPS   C4B12342  12.200   0.770   7.272 -0.1611 -0.1788  0.0820
  793POPS   CNO12343   0.558   7.795   5.623  0.0941  0.2499 -0.1865
  793POPS   PO412344   0.309   7.392   5.469 -0.2386 -0.1875 -0.2172
  793POPS   GL112345   0.301   7.220   5.812 -0.0996  0.1446  0.1421
  793POPS   GL212346  -0.004   6.969   5.941  0.0255  0.0926 -0.1581
  793POPS   C1A12347   0.345   6.920   6.249 -0.0857 -0.1843  0.0542
  793POPS   D2A12348   0.429   6.932   6.717 -0.1117  0.1304  0.0022
  793POPS   C3A12349   0.235   6.771   7.022 -0.0600 -0.1351  0.1137
  793POPS   C4A12350  -0.089   6.702   7.303 -0.1879  0.1907 -0.3157
  793POPS   C1B12351  -0.109   7.237   6.060  0.3666  0.3563  0.1706
  793POPS   C2B12352  -0.031   7.599   6.307  0.1584  0.4653 -0.1206
  793POPS   C3B12353  -0.068   7.775   6.806  0.0393 -0.0504  0.0039
  793POPS   C4B12354   0.232   7.641   7.136 -0.1651  0.1805 -0.1298
  794POPS   CNO12355   5.182  12.555   5.195  0.1280  0.1088 -0.0813
  794POPS   PO412356   5.479  12.824   5.302  0.0890  0.3903  0.0959
  794POPS   GL112357   5.444  12.691   5.662  0.0597  0.1753  0.0026
  794POPS   GL212358   5.213  12.739   5.914 -0.4843 -0.1108  0.3547
  794POPS   C1A12359   5.691  12.688   6.090  0.1687 -0.2059 -0.1029
  794POPS   D2A12360   5.823  12.883   6.378 -0.0247 -0.2220  0.1865
  794POPS   C3A12361   6.101  12.709   6.678  0.0896 -0.2098 -0.0120
  794POPS   C4A12362   6.272  12.702   7.045  0.4735  0.1249 -0.0977
  794POPS   C1B12363   5.237  12.786   6.280  0.2370 -0.1806  0.0613
  794POPS   C2B12364   5.166  12.787   6.761 -0.2450  0.3286 -0.2166
  794POPS   C3B12365   5.152  12.614   7.178  0.1774 -0.0914 -0.1786
  794POPS   C4B12366   5.296  12.677   7.520 -0.1734  0.3498  0.1397
  795POPS   CNO12367   5.975  11.773   5.238  0.3231  0.1612  0.2606
  795POPS   PO412368   5.471  11.791   5.465 -0.0756  0.3501 -0.1501
  795POPS   GL112369   5.464  11.929   5.972  0.0337  0.2575 -0.2925
  795POPS   GL212370   5.399  12.287   6.026 -0.2774 -0.0886  0.0101
  795POPS   C1A12371   5.687  11.781   6.344 -0.0252 -0.1105 -0.1674
  795POPS   D2A12372   5.915  11.583   6.588 -0.0256 -0.1148 -0.0286
  795POPS   C3A12373   6.005  11.654   6.920  0.1376  0.0963  0.0883
  795POPS   C4A12374   6.240  11.767   7.357  0.0850 -0.1343 -0.3911
  795POPS   C1B12375   5.481  12.273   6.390  0.0696  0.0168 -0.1724
  795POPS   C2B12376   5.625  12.528   6.689 -0.0839  0.1341 -0.0266
  795POPS   C3B12377   5.660  12.674   7.128 -0.1649 -0.1525  0.2716
  795POPS   C4B12378   5.895  12.759   7.429 -0.1354  0.2207 -0.3821
  796POPS   CNO12379   9.541   3.359   5.845 -0.1628  0.2443  0.2265
  796POPS   PO412380  10.034   3.357   5.962  0.0331 -0.0631 -0.0414
  796POPS   GL112381   9.879   3.378   6.379  0.0887  0.0300  0.0445
  796POPS   GL212382   9.603   3.219   6.319 -0.1170  0.0537 -0.1018
  796POPS   C1A12383   9.883   3.397   6.793 -0.3161 -0.3557  0.0534
  796POPS   D2A12384   9.622   3.329   7.099 -0.1651  0.1226  0.1309
  796POPS   C3A12385   9.634   3.032   7.405 -0.1096 -0.0666 -0.0437
  796POPS   C4A12386   9.408   2.987   7.804  0.1365 -0.0801  0.1940
  796POPS   C1B12387   9.309   3.331   6.648  0.1067 -0.0912 -0.0293
  796POPS   C2B12388   9.203   3.633   7.007 -0.1013  0.1169  0.1972
  796POPS   C3B12389   9.303   4.008   7.318 -0.2735 -0.3959  0.1830
  796POPS   C4B12390   9.389   4.315   7.626  0.2794 -0.2248  0.2202
  797POPS   CNO12391  13.024  18.057   5.588 -0.0156  0.0528  0.0382
  797POPS   PO412392  13.293  18.421   5.718  0.3137  0.0766 -0.1022
  797POPS   GL112393  13.561  18.487   6.036  0.0474  0.1840  0.2265
  797POPS   GL212394  13.612  18.774   6.220 -0.1436  0.3432 -0.0808
  797POPS   C1A12395  13.972  18.417   6.280 -0.0894  0.2299 -0.2220
  797POPS   D2A12396  14.415  18.489   6.398 -0.0628  0.1439  0.0532
  797POPS   C3A12397  14.603  18.632   6.774 -0.0364  0.0884  0.2377
  797POPS   C4A12398  14.830  18.487   7.098  0.2386  0.1140 -0.2327
  797POPS   C1B12399  13.634  18.607   6.707  0.0828 -0.1339 -0.1186
  797POPS   C2B12400  13.766  18.455   7.019  0.2167  0.1450 -0.2705
  797POPS   C3B12401  13.945  18.236   7.307 -0.1422 -0.0386 -0.1394
  797POPS   C4B12402  14.178  18.123   7.688  0.0902  0.2070  0.0387
  798POPS   CNO12403  10.121  13.783   5.417  0.2734  0.0742 -0.1341
  798POPS   PO412404  10.367  14.001   5.507  0.0153  0.1962  0.1371
  798POPS   GL112405  10.600  13.996   6.021 -0.0433  0.1671 -0.1535
  798POPS   GL212406  10.596  13.646   6.150  0.1074  0.0092 -0.0178
  798POPS   C1A12407  10.462  14.302   6.325  0.3191 -0.2224  0.0625
  798POPS   D2A12408  10.117  14.417   6.615 -0.2649  0.2685 -0.2873
  798POPS   C3A12409   9.931  14.191   6.818  0.0712  0.1697  0.0517
  798POPS   C4A12410   9.572  14.086   6.904 -0.0267 -0.1274 -0.1342
  798POPS   C1B12411  10.711  13.595   6.636 -0.1105 -0.2156  0.0656
  798POPS   C2B12412  10.891  13.773   6.860 -0.0787  0.1485  0.0033
  798POPS   C3B12413  11.028  13.543   7.142 -0.1119 -0.0759  0.1718
  798POPS   C4B12414  11.212  13.178   7.142  0.2250  0.2360  0.1008
  799POPS   CNO12415   4.164  14.854   4.937 -0.0658  0.1011 -0.0048
  799POPS   PO412416   3.801  14.825   5.142 -0.0063 -0.0053  0.2235
  799POPS   GL112417   3.689  14.993   5.608  0.1664  0.0517 -0.1330
  799POPS   GL212418   3.979  15.140   5.766  0.0139 -0.2486  0.2749
  799POPS   C1A12419   3.514  15.015   5.990  0.2490  0.1015  0.2731
  799POPS   D2A12420   3.218  14.929   6.316  0.1406 -0.0452  0.0582
  799POPS   C3A12421   3.264  14.847   6.682 -0.5340  0.3460  0.1714
  799POPS   C4A12422   3.120  14.635   6.992 -0.2537 -0.0684 -0.0450
  799POPS   C1B12423   3.986  15.175   6.196  0.3125 -0.0860 -0.0791
  799POPS   C2B12424   3.633  15.224   6.469 -0.1461 -0.1444 -0.2268
  799POPS   C3B12425   3.582  15.492   6.825  0.2369 -0.1920 -0.0881
  799POPS   C4B12426   3.738  15.716   7.133 -0.1359 -0.2824 -0.1375
  800POPS   CNO12427  18.071  18.413   5.258 -0.2553 -0.1402  0.0134
  800POPS   PO412428  17.690  18.568   5.377 -0.3053 -0.2167  0.2602
  800POPS   GL112429  17.781  18.418   5.841 -0.2020  0.1108 -0.0550
  800POPS   GL212430  17.592  18.263   6.072  0.0096  0.0879 -0.0305
  800POPS   C1A12431  18.072  18.263   6.275  0.0730 -0.2420  0.3461
  800POPS   D2A12432  18.019  18.311   6.704  0.0307  0.0875 -0.1310
  800POPS   C3A12433  18.455  18.276   6.941  0.2359  0.2588 -0.1607
  800POPS   C4A12434  18.803  18.117   7.150  0.0114 -0.1019  0.0430
  800POPS   C1B12435  17.443  18.210   6.483 -0.0424 -0.1367 -0.1077
  800POPS   C2B12436  17.578  18.287   6.881  0.1456 -0.0080  0.0390
  800POPS   C3B12437  17.806  18.369   7.201 -0.4196 -0.2358  0.1219
  800POPS   C4B12438  17.787  18.403   7.621 -0.0667  0.1627 -0.1804
  801POPS   CNO12439   3.427  13.398   5.430  0.4992  0.0041 -0.0315
  801POPS   PO412440   3.786  13.252   5.754 -0.1398  0.0856 -0.2040
  801POPS   GL112441   3.731  13.497   6.118 -0.1685 -0.1075  0.1836
  801POPS   GL212442   3.510  13.816   6.010 -0.0077  0.1190  0.0743
  801POPS   C1A12443   3.767  13.510   6.490  0.1982 -0.0528 -0.3258
  801POPS   D2A12444   3.843  13.465   6.936  0.2699  0.2180 -0.0063
  801POPS   C3A12445   3.819  13.783   7.265 -0.2205  0.0101  0.6376
  801POPS   C4A12446   3.898  13.844   7.725 -0.1382  0.4608 -0.1911
  801POPS   C1B12447   3.337  13.821   6.380 -0.0328  0.1570 -0.0768
  801POPS   C2B12448   3.299  13.767   6.834 -0.1243 -0.2147  0.0730
  801POPS   C3B12449   3.312  13.444   7.221  0.1512 -0.0976 -0.2682
  801POPS   C4B12450   3.094  13.081   7.320  0.0896 -0.1485  0.1498
  802POPS   CNO12451   0.116  12.320   5.105 -0.3510  0.1008  0.2002
  802POPS   PO412452   0.127  12.402   5.499  0.2186 -0.4552  0.0965
  802POPS   GL112453   0.061  12.739   5.730  0.2813 -0.3378 -0.5928
  802POPS   GL212454  -0.232  12.784   5.739 -0.0476  0.1859 -0.2762
  802POPS   C1A12455   0.158  13.114   6.024  0.0479  0.2086 -0.2165
  802POPS   D2A12456   0.382  13.500   5.889 -0.1227 -0.2240 -0.0864
  802POPS   C3A12457   0.360  14.008   6.037 -0.2261  0.0051 -0.1183
  802POPS   C4A12458   0.506  14.321   6.273  0.0876  0.3765 -0.2844
  802POPS   C1B12459  -0.324  13.064   6.006 -0.3200 -0.0734 -0.0880
  802POPS   C2B12460  -0.324  13.338   6.333 -0.0901  0.2894 -0.2252
  802POPS   C3B12461  -0.310  13.699   6.568  0.3662  0.1297 -0.3260
  802POPS   C4B12462  -0.352  14.015   6.901 -0.1663  0.1862 -0.0068
  803POPS   CNO12463   0.404  17.399   5.334 -0.0017  0.1359  0.4172
  803POPS   PO412464   0.019  17.074   5.383  0.4139  0.0045 -0.0182
  803POPS   GL112465   0.252  17.124   5.794  0.1927 -0.1906  0.2491
  803POPS   GL212466   0.382  17.493   5.857 -0.2431  0.0019  0.0392
  803POPS   C1A12467   0.208  16.947   6.260 -0.0105 -0.1737 -0.1232
  803POPS   D2A12468   0.293  16.849   6.675  0.1848  0.0226  0.0341
  803POPS   C3A12469   0.065  16.924   7.002  0.1521 -0.0382  0.0193
  803POPS   C4A12470  -0.044  16.834   7.398 -0.3090  0.0866 -0.1326
  803POPS   C1B12471   0.603  17.647   6.327 -0.0312  0.1306  0.2433
  803POPS   C2B12472   0.486  17.862   6.634 -0.2369 -0.1106 -0.1849
  803POPS   C3B12473   0.465  17.992   7.012 -0.0117  0.3489 -0.2536
  803POPS   C4B12474   0.493  18.281   7.326 -0.2826 -0.0618  0.1762
  804POPS   CNO12475  14.868   5.167   5.915 -0.0433 -0.1428  0.1769
  804POPS   PO412476  14.566   4.814   5.619  0.0571 -0.4449 -0.2005
  804POPS   GL112477  14.493   4.674   6.026 -0.1331 -0.1830 -0.1571
  804POPS   GL212478  14.683   4.910   6.285  0.1318 -0.3599  0.0195
  804POPS   C1A12479  14.399   4.615   6.529  0.0336 -0.4333  0.1106
  804POPS   D2A12480  14.394   4.631   6.956 -0.3382  0.1370  0.1309
  804POPS   C3A12481  14.776   4.520   7.149  0.0273 -0.0668  0.2190
  804POPS   C4A12482  15.163   4.319   7.143  0.3640  0.0527  0.1548
  804POPS   C1B12483  14.792   4.817   6.743 -0.0674 -0.3045  0.0377
  804POPS   C2B12484  14.658   4.993   7.181  0.1844  0.0457 -0.0714
  804POPS   C3B12485  14.566   4.813   7.590 -0.1395 -0.0573  0.0147
  804POPS   C4B12486  14.476   4.773   7.939  0.3291 -0.0184  0.0869
  805POPS   CNO12487   3.769  12.601   5.299  0.0588 -0.1659  0.1710
  805POPS   PO412488   3.938  12.726   5.689  0.0411 -0.1188  0.0125
  805POPS   GL112489   3.851  12.779   6.181  0.0107  0.0970 -0.0983
  805POPS   GL212490   3.586  12.979   6.161  0.0052  0.1928 -0.5381
  805POPS   C1A12491   3.928  12.840   6.621  0.2903 -0.2035  0.2125
  805POPS   D2A12492   3.873  12.653   7.039 -0.1967  0.0938 -0.0809
  805POPS   C3A12493   3.699  12.318   6.952  0.0344 -0.0111  0.4475
  805POPS   C4A12494   3.569  12.054   6.645  0.0315  0.1268 -0.2649
  805POPS   C1B12495   3.395  13.166   6.479  0.2809 -0.0096 -0.2165
  805POPS   C2B12496   3.459  13.116   6.934 -0.2876  0.0771  0.0414
  805POPS   C3B12497   3.644  13.065   7.249  0.0612 -0.2250  0.1282
  805POPS   C4B12498   3.811  13.362   7.520  0.2533 -0.0927 -0.1216
  806POPS   CNO12499   7.502  12.057   5.381 -0.1793  0.1964 -0.0008
  806POPS   PO412500   7.823  12.361   5.509 -0.0547 -0.1136  0.3329
  806POPS   GL112501   7.657  12.272   5.874  0.0038 -0.0612 -0.0176
  806POPS   GL212502   7.944  12.091   5.935  0.3863  0.0132 -0.0223
  806POPS   C1A12503   7.593  12.044   6.281 -0.0124 -0.0494  0.0944
  806POPS   D2A12504   7.481  12.141   6.719 -0.0823 -0.0290  0.0785
  806POPS   C3A12505   7.498  11.847   7.048  0.0580 -0.1509 -0.0046
  806POPS   C4A12506   7.323  11.630   7.455 -0.2992  0.2305  0.0137
  806POPS   C1B12507   7.818  11.764   5.917  0.0393  0.2300  0.1463
  806POPS   C2B12508   7.771  11.478   6.247 -0.1890  0.2405 -0.0319
  806POPS   C3B12509   7.669  11.553   6.677  0.0025 -0.0252 -0.0046
  806POPS   C4B12510   7.591  11.315   7.042 -0.0676 -0.0433  0.1293
  807POPS   CNO12511  11.684  17.760   5.319  0.0355 -0.2880 -0.0883
  807POPS   PO412512  11.771  17.605   5.695  0.0406  0.1695  0.1047
  807POPS   GL112513  11.727  17.354   5.988 -0.1863 -0.1021 -0.1826
  807POPS   GL212514  11.585  17.116   5.896  0.4365  0.1039 -0.3421
  807POPS   C1A12515  11.921  17.203   6.365  0.0046  0.0999  0.0745
  807POPS   D2A12516  11.998  17.216   6.826  0.1308  0.0807 -0.0531
  807POPS   C3A12517  11.811  16.935   7.090  0.0051  0.3395 -0.1795
  807POPS   C4A12518  11.692  16.562   7.040 -0.1653  0.1851  0.1194
  807POPS   C1B12519  11.492  16.816   6.118  0.3099  0.0202  0.0826
  807POPS   C2B12520  11.362  16.413   5.937 -0.1076  0.1855 -0.1295
  807POPS   C3B12521  11.198  16.123   6.207 -0.0932 -0.1236 -0.0009
  807POPS   C4B12522  11.086  15.902   6.580 -0.0533 -0.0480 -0.1411
  808POPS   CNO12523   1.165  10.947   5.239 -0.0172  0.3362  0.0099
  808POPS   PO412524   1.133  11.033   5.699  0.1953  0.2689  0.2717
  808POPS   GL112525   1.391  10.948   6.012  0.2318 -0.0736  0.0161
  808POPS   GL212526   1.684  11.107   5.990  0.2038 -0.2526  0.0004
  808POPS   C1A12527   1.531  10.671   6.265  0.0454 -0.0465  0.3175
  808POPS   D2A12528   1.730  10.717   6.727  0.0105  0.0513  0.0388
  808POPS   C3A12529   1.645  10.672   7.109  0.0557 -0.0135 -0.0618
  808POPS   C4A12530   1.770  10.795   7.534  0.1253 -0.2938  0.1186
  808POPS   C1B12531   1.975  11.370   6.309  0.0296 -0.0784  0.1917
  808POPS   C2B12532   2.115  11.460   6.708 -0.0475 -0.1371  0.1229
  808POPS   C3B12533   2.239  11.681   7.045 -0.2106  0.3327 -0.3425
  808POPS   C4B12534   2.235  11.768   7.545  0.0442  0.0274  0.0083
  809POPS   CNO12535   4.475   0.303   5.051 -0.0997 -0.0742 -0.0022
  809POPS   PO412536   4.777   0.082   5.017  0.1133  0.1447  0.2767
  809POPS   GL112537   4.864   0.104   5.437 -0.1864 -0.2269 -0.0147
  809POPS   GL212538   4.797  -0.277   5.627  0.1046 -0.2806  0.2017
  809POPS   C1A12539   4.886   0.388   5.765  0.1288  0.0945 -0.1193
  809POPS   D2A12540   4.637   0.496   6.100  0.1536  0.0760 -0.2541
  809POPS   C3A12541   4.178   0.193   6.120 -0.0777  0.1770  0.0854
  809POPS   C4A12542   4.036  -0.254   5.876  0.5150 -0.3150 -0.0400
  809POPS   C1B12543   4.653   0.002   6.017 -0.2101 -0.0843  0.3678
  809POPS   C2B12544   4.578   0.167   6.494 -0.6180 -0.3276 -0.1095
  809POPS   C3B12545   4.333  -0.076   6.841 -0.4915 -0.0075  0.2587
  809POPS   C4B12546   4.316  -0.170   7.245  0.1233 -0.3710 -0.0501
  810POPS   CNO12547   4.544  15.940   5.322 -0.0798 -0.4396 -0.2264
  810POPS   PO412548   4.693  15.560   5.270 -0.0854  0.2953  0.1193
  810POPS   GL112549   4.623  15.432   5.656  0.1599 -0.1068  0.2290
  810POPS   GL212550   4.829  15.256   5.728  0.0021  0.0131  0.1679
  810POPS   C1A12551   4.346  15.498   5.986 -0.4525 -0.1941 -0.0052
  810POPS   D2A12552   4.352  15.488   6.435  0.1567 -0.0121 -0.1484
  810POPS   C3A12553   4.105  15.329   6.686  0.2200  0.0638 -0.0018
  810POPS   C4A12554   3.866  15.147   7.045 -0.0020  0.0958 -0.2154
  810POPS   C1B12555   4.910  15.503   6.095  0.1676 -0.1454  0.3030
  810POPS   C2B12556   4.802  15.553   6.478 -0.4187  0.0020 -0.0391
  810POPS   C3B12557   4.645  15.614   6.958  0.0594 -0.1357  0.1357
  810POPS   C4B12558   4.696  15.804   7.389 -0.0220  0.1986  0.2977
  811POPS   CNO12559   8.068   9.984   5.320  0.0167 -0.0158 -0.0462
  811POPS   PO412560   8.430  10.233   5.531 -0.3026 -0.1693  0.0755
  811POPS   GL112561   8.503  10.077   5.887 -0.0176 -0.0364 -0.0838
  811POPS   GL212562   8.531  10.326   6.049  0.0101 -0.1279  0.0160
  811POPS   C1A12563   8.707   9.902   6.328 -0.0901 -0.0317  0.1485
  811POPS   D2A12564   8.820   9.594   6.622  0.0898 -0.1690  0.1694
  811POPS   C3A12565   8.718   9.639   6.991 -0.1172 -0.0831 -0.0804
  811POPS   C4A12566   8.525   9.571   7.455  0.2403  0.1815 -0.0247
  811POPS   C1B12567   8.622  10.364   6.536 -0.0219 -0.0113 -0.0494
  811POPS   C2B12568   8.558  10.651   6.828  0.1301  0.1460 -0.1845
  811POPS   C3B12569   8.387  10.651   7.240  0.0280 -0.0395  0.1541
  811POPS   C4B12570   8.128  10.753   7.398  0.2692 -0.1772  0.3294
  812POPS   CNO12571   8.401  13.285   5.853 -0.0173  0.0680  0.1151
  812POPS   PO412572   8.595  13.633   5.826  0.0749 -0.0843 -0.2005
  812POPS   GL112573   8.746  13.698   6.327  0.2388 -0.1755 -0.0761
  812POPS   GL212574   8.496  14.057   6.300 -0.1468  0.1727 -0.2539
  812POPS   C1A12575   8.752  13.638   6.809 -0.0872 -0.0810 -0.5339
  812POPS   D2A12576   8.743  13.828   7.259  0.0895 -0.1859  0.0814
  812POPS   C3A12577   8.780  14.037   7.638  0.1111 -0.1575 -0.0042
  812POPS   C4A12578   8.627  13.811   8.063  0.2079 -0.2384  0.0686
  812POPS   C1B12579   8.141  13.905   6.610  0.2107  0.2851  0.0737
  812POPS   C2B12580   8.212  13.637   6.834  0.0288 -0.1226  0.1219
  812POPS   C3B12581   8.418  13.374   7.151 -0.1550 -0.0436 -0.2060
  812POPS   C4B12582   8.260  13.073   7.458  0.0193  0.2142 -0.2404
  813POPS   CNO12583   1.385   8.094   5.429  0.0884  0.1801 -0.0929
  813POPS   PO412584   1.135   8.043   5.781  0.0798  0.0898  0.2202
  813POPS   GL112585   1.345   8.262   6.071 -0.2020  0.1692 -0.1561
  813POPS   GL212586   1.691   8.465   6.052  0.0456 -0.1097  0.1907
  813POPS   C1A12587   1.305   8.518   6.449 -0.2261  0.1730 -0.1695
  813POPS   D2A12588   1.349   8.692   6.879  0.0622  0.0421  0.0101
  813POPS   C3A12589   1.362   8.461   7.299  0.1033 -0.0842 -0.1314
  813POPS   C4A12590   1.638   8.538   7.557  0.0974  0.2092 -0.0474
  813POPS   C1B12591   1.758   8.298   6.413 -0.1317 -0.1832  0.2573
  813POPS   C2B12592   1.715   8.285   6.848  0.0990 -0.1851 -0.0448
  813POPS   C3B12593   1.883   8.292   7.236 -0.0245  0.0664  0.2131
  813POPS   C4B12594   1.989   8.034   7.576 -0.2254 -0.0554  0.0599
  814YOPS   CNO12595   5.600  13.405   4.820  0.0058  0.0024 -0.0188
  814YOPS   PO412596   5.767  13.568   5.197  0.2777  0.0387 -0.1640
  814YOPS   GL112597   5.601  13.216   5.579 -0.0224 -0.0490  0.0536
  814YOPS   GL212598   5.369  13.161   5.711  0.4092  0.0484 -0.1856
  814YOPS   C1A12599   5.978  13.087   5.917  0.0253 -0.1183  0.1063
  814YOPS   D2A12600   6.220  12.817   6.123 -0.1260  0.2190  0.0390
  814YOPS   C3A12601   6.619  12.686   6.261 -0.0690  0.0262 -0.3526
  814YOPS   C4A12602   6.660  12.967   6.647  0.0688  0.1156  0.1037
  814YOPS   C1B12603   5.547  13.185   6.112 -0.2734 -0.2946 -0.0220
  814YOPS   C2B12604   5.579  13.299   6.528 -0.2886 -0.3179  0.0858
  814YOPS   D3B12605   5.563  13.055   6.846 -0.2348  0.0405  0.1872
  814YOPS   C4B12606   5.754  13.302   7.112  0.5738  0.3318  0.0431
  815YOPS   CNO12607  13.667  18.801   5.645  0.4741  0.0378 -0.1264
  815YOPS   PO412608  14.091  19.098   5.619 -0.0466  0.0652  0.0074
  815YOPS   GL112609  13.875  19.237   5.941 -0.1117  0.4028  0.3498
  815YOPS   GL212610  13.811  19.618   5.848  0.1033 -0.0782 -0.1805
  815YOPS   C1A12611  13.587  19.253   6.207 -0.0266  0.0737  0.0789
  815YOPS   D2A12612  13.557  19.124   6.653 -0.1101  0.0733  0.3857
  815YOPS   C3A12613  13.548  18.938   7.112 -0.2155 -0.0923  0.0712
  815YOPS   C4A12614  13.804  18.811   7.543  0.0952  0.1009 -0.2973
  815YOPS   C1B12615  13.918  19.665   6.240  0.0288  0.2350 -0.0182
  815YOPS   C2B12616  13.910  19.476   6.599  0.0378 -0.0287 -0.0585
  815YOPS   D3B12617  14.045  19.431   7.031 -0.1906  0.3648  0.0206
  815YOPS   C4B12618  13.953  19.695   7.287  0.2170  0.0380  0.0616
  816YOPS   CNO12619   4.957  11.594   5.603 -0.3454  0.0097  0.1755
  816YOPS   PO412620   4.665  11.359   5.738 -0.0892 -0.3783  0.1320
  816YOPS   GL112621   4.727  11.466   6.114 -0.2135 -0.1247  0.0548
  816YOPS   GL212622   5.140  11.440   6.112  0.4047  0.2337 -0.2571
  816YOPS   C1A12623   4.738  11.702   6.421  0.5535 -0.2027 -0.1193
  816YOPS   D2A12624   4.798  11.746   6.906  0.2527  0.3350 -0.0393
  816YOPS   C3A12625   4.587  12.060   7.214 -0.5896  0.0318 -0.4522
  816YOPS   C4A12626   4.852  12.331   7.421 -0.2792 -0.2664 -0.0246
  816YOPS   C1B12627   5.163  11.179   6.456  0.2353 -0.0368 -0.0854
  816YOPS   C2B12628   5.082  10.894   6.786  0.0686 -0.3046 -0.2496
  816YOPS   D3B12629   5.102  10.565   7.107 -0.0853  0.0305 -0.0437
  816YOPS   C4B12630   5.051  10.286   7.457  0.0768  0.0546 -0.1601
  817YOPS   CNO12631   2.631   6.734   5.476  0.0351  0.0229 -0.3183
  817YOPS   PO412632   2.775   6.343   5.825 -0.0508  0.2707 -0.1031
  817YOPS   GL112633   2.741   6.151   6.257 -0.3396 -0.0968  0.0276
  817YOPS   GL212634   2.600   5.884   6.310 -0.1667  0.2893  0.0969
  817YOPS   C1A12635   2.867   6.331   6.618 -0.3119  0.0464  0.1440
  817YOPS   D2A12636   2.882   6.548   6.975  0.5212 -0.1518 -0.0469
  817YOPS   C3A12637   2.995   6.481   7.450 -0.2643  0.1244  0.0371
  817YOPS   C4A12638   2.776   6.820   7.540  0.4247  0.0362 -0.2110
  817YOPS   C1B12639   2.552   5.865   6.771  0.0572 -0.2514  0.4412
  817YOPS   C2B12640   2.164   5.964   6.917 -0.3342 -0.0390  0.0394
  817YOPS   D3B12641   1.777   6.151   6.818  0.0925  0.4188 -0.0680
  817YOPS   C4B12642   1.700   6.421   6.449  0.0096 -0.4039  0.2290
  818YOPS   CNO12643  12.153  10.942   5.857 -0.3093  0.0011  0.1161
  818YOPS   PO412644  11.890  11.036   5.412  0.0653  0.1256  0.3365
  818YOPS   GL112645  11.683  10.639   5.683 -0.0773 -0.0291  0.2173
  818YOPS   GL212646  11.568  10.546   5.756 -0.0828 -0.0700  0.4288
  818YOPS   C1A12647  11.253  10.773   5.985  0.1412  0.0202 -0.1368
  818YOPS   D2A12648  11.284  11.072   6.388 -0.2618  0.4569 -0.0332
  818YOPS   C3A12649  11.086  11.414   6.474  0.3112 -0.0970 -0.1009
  818YOPS   C4A12650  10.740  11.418   6.825 -0.0247 -0.2017  0.1148
  818YOPS   C1B12651  11.583  10.572   6.295  0.4179  0.1669 -0.0098
  818YOPS   C2B12652  11.610  10.711   6.631  0.0290 -0.1209 -0.0867
  818YOPS   D3B12653  11.712  11.041   6.719 -0.1086  0.1835  0.0728
  818YOPS   C4B12654  11.627  11.205   7.106  0.1439 -0.1097  0.3544
  819YOPS   CNO12655   8.598  17.588   5.109 -0.0753 -0.1144  0.1587
  819YOPS   PO412656   8.891  17.525   5.419 -0.2129  0.2433  0.0781
  819YOPS   GL112657   8.940  17.473   5.830  0.2977  0.1689 -0.0198
  819YOPS   GL212658   8.778  17.247   6.019  0.1165 -0.1370 -0.1292
  819YOPS   C1A12659   9.192  17.185   6.162 -0.0475 -0.1907 -0.0191
  819YOPS   D2A12660   9.165  17.199   6.626  0.3893 -0.3074  0.0773
  819YOPS   C3A12661   9.260  17.189   7.009 -0.1615 -0.0654 -0.1313
  819YOPS   C4A12662   9.067  16.874   7.213  0.0008 -0.2155  0.2017
  819YOPS   C1B12663   8.710  17.418   6.448 -0.1008  0.0734 -0.2487
  819YOPS   C2B12664   8.658  17.349   6.828  0.0171  0.2383 -0.0966
  819YOPS   D3B12665   8.792  17.281   7.250 -0.0973  0.3099 -0.1130
  819YOPS   C4B12666   8.661  17.034   7.631  0.3498 -0.3216  0.0934
  820YOPS   CNO12667   1.312   3.683   4.813 -0.0655 -0.2421 -0.0966
  820YOPS   PO412668   1.491   3.578   5.116 -0.3406 -0.0286 -0.2872
  820YOPS   GL112669   1.387   3.612   5.507  0.0976  0.3227  0.1529
  820YOPS   GL212670   1.092   3.743   5.697 -0.1013 -0.0647 -0.0542
  820YOPS   C1A12671   1.660   3.548   5.874  0.1866 -0.0785  0.0832
  820YOPS   D2A12672   2.105   3.458   5.925  0.0365 -0.1669  0.2880
  820YOPS   C3A12673   2.492   3.735   5.814 -0.0819 -0.1631  0.0384
  820YOPS   C4A12674   2.856   3.597   5.994  0.1956  0.1851 -0.1425
  820YOPS   C1B12675   1.232   3.596   6.092 -0.1244  0.1067 -0.2260
  820YOPS   C2B12676   1.461   3.354   6.454 -0.1219 -0.1228  0.2461
  820YOPS   D3B12677   1.291   3.064   6.687  0.3011 -0.2282 -0.2235
  820YOPS   C4B12678   1.585   2.758   6.691 -0.1043  0.0245 -0.1750
  821YOPS   CNO12679   9.757  17.082   5.305  0.1857  0.1567 -0.2130
  821YOPS   PO412680  10.114  16.780   5.315  0.1299  0.0443 -0.2969
  821YOPS   GL112681  10.164  17.136   5.591 -0.0426 -0.1950 -0.4064
  821YOPS   GL212682   9.934  17.338   5.673  0.0852  0.0127  0.0043
  821YOPS   C1A12683  10.327  17.287   5.984  0.1710 -0.1194  0.0298
  821YOPS   D2A12684  10.463  17.212   6.484  0.0831 -0.0016 -0.3208
  821YOPS   C3A12685  10.496  17.213   6.941 -0.1156 -0.0598 -0.0418
  821YOPS   C4A12686  10.841  17.058   7.185 -0.0901 -0.1624  0.1396
  821YOPS   C1B12687   9.778  17.620   6.013 -0.0939  0.2394  0.1560
  821YOPS   C2B12688   9.739  17.603   6.363  0.1474 -0.0599 -0.1594
  821YOPS   D3B12689   9.715  17.366   6.827 -0.2429  0.1419  0.0477
  821YOPS   C4B12690   9.570  17.553   7.210 -0.1922  0.1630 -0.0151
  822YOPS   CNO12691  16.997   5.129   5.383  0.2459 -0.4019  0.0207
  822YOPS   PO412692  16.949   5.599   5.652 -0.1334 -0.0821  0.1289
  822YOPS   GL112693  17.105   5.509   6.030  0.3097 -0.2767  0.2869
  822YOPS   GL212694  17.238   5.171   6.024  0.0352 -0.2524  0.1738
  822YOPS   C1A12695  17.269   5.525   6.463  0.2411 -0.1197 -0.1217
  822YOPS   D2A12696  17.151   5.625   6.870 -0.0776 -0.2300  0.0206
  822YOPS   C3A12697  17.054   5.653   7.330  0.2731 -0.2135 -0.0775
  822YOPS   C4A12698  17.483   5.517   7.386 -0.0646  0.1990  0.1912
  822YOPS   C1B12699  17.118   4.951   6.466  0.0725 -0.1560 -0.1389
  822YOPS   C2B12700  16.781   5.026   6.800 -0.2308 -0.1994 -0.1416
  822YOPS   D3B12701  16.344   4.995   6.787 -0.1036  0.3014 -0.0148
  822YOPS   C4B12702  15.996   4.809   6.626  0.1879 -0.0492  0.0635
  823YOPS   CNO12703  14.180  14.922   5.530  0.2441  0.0943 -0.0671
  823YOPS   PO412704  14.685  14.822   5.483 -0.0272  0.0495 -0.1165
  823YOPS   GL112705  14.566  14.810   5.906  0.1331 -0.1108  0.1833
  823YOPS   GL212706  14.441  15.099   6.028 -0.1135 -0.1160  0.1285
  823YOPS   C1A12707  14.522  14.646   6.233  0.1032 -0.0399  0.0793
  823YOPS   D2A12708  14.517  14.541   6.718 -0.0885  0.0798 -0.0295
  823YOPS   C3A12709  14.678  14.770   7.110  0.1124  0.0204 -0.0476
  823YOPS   C4A12710  14.459  15.104   7.318  0.0269  0.1191  0.4248
  823YOPS   C1B12711  14.718  15.102   6.335 -0.1651 -0.0692 -0.1178
  823YOPS   C2B12712  14.951  14.875   6.701 -0.1329  0.0820 -0.1708
  823YOPS   D3B12713  15.205  14.796   7.122  0.0113 -0.0404  0.0035
  823YOPS   C4B12714  15.596  14.814   7.005  0.0063  0.2969  0.2379
  824YOPS   CNO12715   9.972   9.920   5.699  0.0404 -0.0643 -0.0056
  824YOPS   PO412716  10.258  10.116   5.455  0.1539  0.2352 -0.1218
  824YOPS   GL112717  10.320  10.259   5.913 -0.0638 -0.1257  0.1205
  824YOPS   GL212718  10.491  10.095   6.057 -0.1447 -0.1542  0.1061
  824YOPS   C1A12719  10.420  10.474   6.346 -0.3185 -0.3187 -0.2483
  824YOPS   D2A12720  10.667  10.365   6.694 -0.0351  0.0738  0.0717
  824YOPS   C3A12721  10.628  10.341   7.133  0.1090 -0.1343  0.0043
  824YOPS   C4A12722  10.964  10.306   7.409 -0.2295 -0.0393 -0.0413
  824YOPS   C1B12723  10.342  10.037   6.555 -0.2382  0.2595  0.0372
  824YOPS   C2B12724  10.327   9.919   7.037 -0.2186  0.0267 -0.0334
  824YOPS   D3B12725  10.310   9.951   7.434  0.1802 -0.0062 -0.1405
  824YOPS   C4B12726   9.927  10.177   7.561 -0.0438 -0.1766 -0.2031
  825YOPS   CNO12727  12.058   9.002   5.399 -0.0639 -0.1407  0.0776
  825YOPS   PO412728  11.799   9.300   5.655  0.1973 -0.2100 -0.1012
  825YOPS   GL112729  11.836   9.404   6.082  0.3583 -0.0677  0.0042
  825YOPS   GL212730  11.735   9.795   6.143  0.0499  0.0317 -0.3289
  825YOPS   C1A12731  11.673   9.160   6.461  0.0037  0.0635  0.2350
  825YOPS   D2A12732  11.691   9.025   6.885 -0.2497  0.0648  0.4377
  825YOPS   C3A12733  11.724   9.036   7.197 -0.0997  0.2232 -0.1085
  825YOPS   C4A12734  11.605   8.985   7.655  0.0525  0.1279  0.1400
  825YOPS   C1B12735  11.455   9.585   6.383  0.1418 -0.4290  0.2024
  825YOPS   C2B12736  11.300   9.397   6.728  0.0660  0.1255  0.1690
  825YOPS   D3B12737  11.311   9.375   7.081 -0.1825  0.0624  0.2947
  825YOPS   C4B12738  11.228   9.350   7.486 -0.0079 -0.1272  0.0658
  826YOPS   CNO12739  14.386  17.917   4.827  0.2772 -0.0328  0.3734
  826YOPS   PO412740  14.406  18.082   5.233 -0.0346  0.0082 -0.0130
  826YOPS   GL112741  14.341  18.215   5.566 -0.0806  0.2946  0.0576
  826YOPS   GL212742  14.406  18.464   5.669  0.2337  0.1504 -0.0648
  826YOPS   C1A12743  14.297  17.977   5.896 -0.2349  0.0353  0.3009
  826YOPS   D2A12744  14.315  18.011   6.310 -0.2726  0.3556  0.1027
  826YOPS   C3A12745  14.040  17.822   6.658 -0.3207  0.1075 -0.2243
  826YOPS   C4A12746  14.189  17.864   7.096  0.0610  0.2021  0.2005
  826YOPS   C1B12747  14.621  18.717   6.005  0.1942  0.0801 -0.3114
  826YOPS   C2B12748  14.678  18.984   6.426 -0.0092 -0.1235 -0.2312
  826YOPS   D3B12749  14.845  19.332   6.433 -0.0346 -0.2533 -0.0074
  826YOPS   C4B12750  14.984  19.556   6.608  0.1833  0.5476  0.0233
  827YOPS   CNO12751   9.228   1.748   5.334 -0.0464  0.0105  0.1958
  827YOPS   PO412752   9.103   1.840   5.780 -0.1095  0.1567  0.4538
  827YOPS   GL112753   9.516   1.652   5.956 -0.1354  0.0110 -0.0508
  827YOPS   GL212754   9.419   1.886   6.203  0.0665  0.2673  0.3242
  827YOPS   C1A12755   9.575   1.458   6.410 -0.2748 -0.0160 -0.1639
  827YOPS   D2A12756   9.664   1.430   6.843 -0.0944 -0.4246 -0.1972
  827YOPS   C3A12757   9.658   1.298   7.167  0.1608 -0.3121 -0.1408
  827YOPS   C4A12758   9.632   1.589   7.473  0.2090 -0.3756 -0.1296
  827YOPS   C1B12759   9.754   1.921   6.519 -0.1075  0.1292  0.1091
  827YOPS   C2B12760   9.741   2.021   6.983  0.2326  0.1282 -0.0697
  827YOPS   D3B12761  10.009   1.937   7.331 -0.0942 -0.1424 -0.1344
  827YOPS   C4B12762  10.146   2.090   7.742 -0.0361  0.1097  0.1104
  828YOPS   CNO12763  18.072   1.739   5.620  0.1365  0.0654 -0.1964
  828YOPS   PO412764  18.382   2.023   5.316  0.0585  0.0141  0.0884
  828YOPS   GL112765  18.548   1.908   5.677 -0.1131 -0.0647 -0.0604
  828YOPS   GL212766  18.424   2.103   5.889 -0.0884  0.2907  0.0337
  828YOPS   C1A12767  18.690   1.485   6.009 -0.0967 -0.2045  0.0788
  828YOPS   D2A12768  18.829   1.553   6.324  0.1855 -0.1154 -0.2793
  828YOPS   C3A12769  18.925   1.773   6.668  0.0603  0.0412 -0.1381
  828YOPS   C4A12770  19.249   1.970   6.656  0.2066 -0.0214  0.3417
  828YOPS   C1B12771  18.871   2.022   6.156 -0.3049 -0.1751  0.1609
  828YOPS   C2B12772  19.278   1.748   6.175 -0.2454  0.4554 -0.3521
  828YOPS   D3B12773  19.693   1.783   6.319 -0.2696  0.3629 -0.0122
  828YOPS   C4B12774  19.854   1.360   6.407  0.0315 -0.0980 -0.0984
  829YOPS   CNO12775  14.063   6.059   5.082  0.0938 -0.1238 -0.1173
  829YOPS   PO412776  13.854   6.022   5.477  0.0547  0.0577 -0.2007
  829YOPS   GL112777  13.912   6.007   5.996 -0.0199  0.1428 -0.1246
  829YOPS   GL212778  14.300   6.042   5.965 -0.2472  0.0926  0.0498
  829YOPS   C1A12779  13.763   6.082   6.392  0.0807  0.1504 -0.1530
  829YOPS   D2A12780  13.591   6.112   6.798  0.0454 -0.0650 -0.1340
  829YOPS   C3A12781  13.415   6.046   7.227  0.1733 -0.1437 -0.1220
  829YOPS   C4A12782  13.263   5.586   7.391 -0.2037  0.0267  0.1095
  829YOPS   C1B12783  14.230   6.287   6.337  0.2977 -0.0105 -0.1447
  829YOPS   C2B12784  14.072   6.218   6.752  0.1409 -0.3258 -0.0947
  829YOPS   D3B12785  13.996   6.025   7.134  0.0307  0.0599  0.1187
  829YOPS   C4B12786  14.253   5.766   7.197 -0.0717 -0.1855 -0.2206
  830YOPS   CNO12787  10.331   0.733   5.240  0.3629 -0.0771  0.0746
  830YOPS   PO412788  10.467   0.682   5.692  0.0719  0.0709 -0.3821
  830YOPS   GL112789  10.746   0.477   6.035  0.0846  0.3367  0.0893
  830YOPS   GL212790  10.947   0.749   6.125 -0.0804 -0.2021 -0.1184
  830YOPS   C1A12791  10.547   0.413   6.411 -0.0074  0.1786 -0.5289
  830YOPS   D2A12792  10.304   0.138   6.636  0.1282 -0.0968  0.0103
  830YOPS   C3A12793  10.265  -0.279   6.724 -0.1739  0.0916  0.3348
  830YOPS   C4A12794   9.905  -0.557   6.630 -0.1072  0.2453 -0.0953
  830YOPS   C1B12795  10.909   0.675   6.572 -0.0315 -0.2344  0.3676
  830YOPS   C2B12796  10.726   0.683   6.848 -0.3080 -0.2181  0.1563
  830YOPS   D3B12797  10.456   0.425   7.075 -0.2484  0.0084 -0.0883
  830YOPS   C4B12798  10.582   0.108   7.194  0.1813 -0.0392  0.0982
  831YOPS   CNO12799   1.292  12.125   4.687 -0.1632  0.0668  0.1261
  831YOPS   PO412800   1.475  12.149   5.097 -0.3024 -0.0206  0.2643
  831YOPS   GL112801   1.437  12.216   5.531  0.0421 -0.0503 -0.0625
  831YOPS   GL212802   1.322  12.522   5.752 -0.1642 -0.1352  0.5059
  831YOPS   C1A12803   1.653  12.369   6.106  0.0447  0.0381 -0.0038
  831YOPS   D2A12804   1.588  12.601   6.523  0.1372  0.3456  0.0628
  831YOPS   C3A12805   1.505  12.554   6.998  0.0507 -0.4325  0.0903
  831YOPS   C4A12806   1.098  12.793   6.984 -0.2530  0.0816 -0.0761
  831YOPS   C1B12807   1.367  12.759   6.094  0.0203 -0.1314  0.1836
  831YOPS   C2B12808   1.111  12.869   6.470  0.0072  0.2373 -0.0535
  831YOPS   D3B12809   0.822  12.844   6.525 -0.1129  0.2753  0.0703
  831YOPS   C4B12810   0.623  12.550   6.779 -0.1736 -0.0155  0.2051
  832YOPS   CNO12811   7.334  17.778   5.642 -0.0262 -0.1110 -0.2045
  832YOPS   PO412812   6.945  17.418   5.605  0.3096  0.1757 -0.2117
  832YOPS   GL112813   6.976  17.673   6.056  0.3484  0.0171 -0.1055
  832YOPS   GL212814   7.318  17.655   6.165 -0.2040 -0.1011  0.1362
  832YOPS   C1A12815   6.965  17.737   6.499  0.0654 -0.1477 -0.0263
  832YOPS   D2A12816   6.913  17.785   6.923 -0.1547 -0.1050  0.0010
  832YOPS   C3A12817   6.889  17.965   7.404 -0.1276  0.1724  0.1117
  832YOPS   C4A12818   7.141  18.305   7.534 -0.0871  0.2695  0.0502
  832YOPS   C1B12819   7.655  17.584   6.504 -0.1300 -0.1644  0.2204
  832YOPS   C2B12820   7.910  17.802   6.893 -0.0658 -0.2146 -0.2604
  832YOPS   D3B12821   8.128  17.960   7.312 -0.0739  0.1561 -0.1026
  832YOPS   C4B12822   8.130  18.429   7.381 -0.1228  0.2544 -0.2478
  833YOPS   CNO12823  11.175   0.428   5.757  0.0540  0.1374  0.1817
  833YOPS   PO412824  11.579   0.423   5.675  0.0064  0.2163 -0.0510
  833YOPS   GL112825  11.586   0.309   6.073  0.1725  0.2434  0.0357
  833YOPS   GL212826  11.376   0.507   6.297 -0.1144  0.1279  0.1719
  833YOPS   C1A12827  11.739   0.223   6.444  0.1939  0.1353  0.0735
  833YOPS   D2A12828  11.755   0.053   6.992 -0.2087 -0.0783 -0.0315
  833YOPS   C3A12829  11.791  -0.352   7.110  0.0423 -0.1381 -0.0262
  833YOPS   C4A12830  12.208  -0.485   7.498 -0.0476  0.0557 -0.4524
  833YOPS   C1B12831  11.473   0.511   6.747  0.0329  0.0472  0.0960
  833YOPS   C2B12832  11.746   0.620   7.121  0.1238 -0.0017 -0.0719
  833YOPS   D3B12833  12.060   0.330   7.367  0.0105  0.2559  0.1394
  833YOPS   C4B12834  11.874   0.017   7.552  0.0696  0.0637  0.1204
  834YOPS   CNO12835   9.269   9.259   5.503  0.0537  0.0466  0.1377
  834YOPS   PO412836   9.050   8.920   5.540  0.1904  0.2443 -0.0342
  834YOPS   GL112837   8.969   9.072   5.923  0.1475 -0.0401  0.0848
  834YOPS   GL212838   9.303   9.059   6.055 -0.0023  0.1136  0.1378
  834YOPS   C1A12839   8.778   9.172   6.234 -0.1589  0.2015  0.1664
  834YOPS   D2A12840   8.551   9.017   6.673 -0.0324 -0.2323  0.2726
  834YOPS   C3A12841   8.137   8.822   6.860 -0.1007  0.1129 -0.0240
  834YOPS   C4A12842   7.872   8.616   6.586  0.0682  0.0336 -0.1698
  834YOPS   C1B12843   9.158   9.136   6.521 -0.0182 -0.0017  0.2168
  834YOPS   C2B12844   9.015   9.268   6.929  0.1556  0.2501  0.1785
  834YOPS   D3B12845   8.997   9.399   7.297  0.0215  0.0992 -0.0012
  834YOPS   C4B12846   8.840   9.185   7.659 -0.0443 -0.0888 -0.2388
  835YOPS   CNO12847  11.825  12.973   5.262 -0.0131  0.1305 -0.0920
  835YOPS   PO412848  11.776  13.356   5.652  0.0501  0.1269  0.1124
  835YOPS   GL112849  11.821  13.384   6.055 -0.1219 -0.0253  0.3673
  835YOPS   GL212850  11.995  13.105   6.254 -0.2316  0.0568 -0.1927
  835YOPS   C1A12851  11.920  13.510   6.504  0.0706  0.0489  0.1294
  835YOPS   D2A12852  12.024  13.635   6.861 -0.1142 -0.1561  0.1961
  835YOPS   C3A12853  11.998  13.561   7.347  0.0518  0.0892  0.0411
  835YOPS   C4A12854  12.247  13.274   7.550  0.1460  0.2484 -0.4110
  835YOPS   C1B12855  12.174  13.112   6.668  0.1898  0.1606  0.3654
  835YOPS   C2B12856  12.063  13.173   7.053 -0.4012 -0.1329 -0.0775
  835YOPS   D3B12857  11.819  13.033   7.478 -0.1199 -0.1056  0.4128
  835YOPS   C4B12858  11.553  13.342   7.718 -0.2579  0.0851  0.1277
  836YOPS   CNO12859  11.745  18.268   5.340 -0.0111  0.1555  0.1202
  836YOPS   PO412860  11.311  18.266   5.451 -0.0836  0.1519  0.1881
  836YOPS   GL112861  11.534  18.036   5.709  0.0898  0.1937 -0.0993
  836YOPS   GL212862  11.285  17.900   5.980 -0.0767 -0.1404 -0.1496
  836YOPS   C1A12863  11.628  18.215   6.193  0.6187 -0.0763  0.3189
  836YOPS   D2A12864  11.656  18.253   6.709  0.0493  0.0867  0.0207
  836YOPS   C3A12865  11.507  18.012   7.026  0.0979  0.0818  0.1174
  836YOPS   C4A12866  11.265  17.697   6.864 -0.0768 -0.1470  0.2450
  836YOPS   C1B12867  11.244  17.941   6.355  0.1752  0.0203 -0.2310
  836YOPS   C2B12868  11.052  18.149   6.704 -0.3274 -0.0636 -0.3219
  836YOPS   D3B12869  10.929  18.079   7.121 -0.2077 -0.3547  0.3099
  836YOPS   C4B12870  11.177  17.922   7.366 -0.2291 -0.1678 -0.0123
  837YOPS   CNO12871  16.610   6.437   5.894  0.0827  0.3127 -0.1101
  837YOPS   PO412872  16.943   6.640   5.776  0.1276 -0.1261 -0.1090
  837YOPS   GL112873  17.076   6.776   6.227 -0.1257 -0.1804 -0.0387
  837YOPS   GL212874  16.793   6.490   6.399 -0.2947  0.0612 -0.0699
  837YOPS   C1A12875  17.368   6.629   6.583 -0.1463 -0.2478  0.0599
  837YOPS   D2A12876  17.658   6.417   6.689  0.0201 -0.1943  0.1634
  837YOPS   C3A12877  17.721   6.152   7.080  0.0401  0.2205 -0.5173
  837YOPS   C4A12878  17.595   5.741   6.956  0.1647  0.1394 -0.0069
  837YOPS   C1B12879  16.846   6.501   6.839  0.1274  0.0766 -0.1546
  837YOPS   C2B12880  17.177   6.626   7.056  0.0588 -0.0677  0.1155
  837YOPS   D3B12881  17.601   6.780   7.091  0.1647 -0.0883 -0.0089
  837YOPS   C4B12882  17.801   6.564   7.338 -0.0885  0.1190 -0.1191
  838YOPS   CNO12883   7.179   6.389   5.356 -0.0108  0.2375  0.0054
  838YOPS   PO412884   7.538   6.245   5.660  0.1435 -0.1593 -0.0928
  838YOPS   GL112885   7.527   6.242   6.093 -0.0727  0.1703 -0.0884
  838YOPS   GL212886   7.806   6.376   6.093  0.5726 -0.0648  0.0017
  838YOPS   C1A12887   7.511   6.205   6.579 -0.0683  0.1601  0.1783
  838YOPS   D2A12888   7.620   6.172   7.012 -0.0698 -0.2361 -0.1557
  838YOPS   C3A12889   7.590   6.011   7.420  0.0561  0.3155  0.0840
  838YOPS   C4A12890   7.915   5.731   7.385  0.2731  0.1154  0.2719
  838YOPS   C1B12891   8.011   6.296   6.526 -0.1288 -0.1912 -0.1351
  838YOPS   C2B12892   7.977   6.552   6.861  0.0845 -0.1134  0.0514
  838YOPS   D3B12893   8.247   6.737   7.136 -0.0947  0.1086  0.1648
  838YOPS   C4B12894   8.252   7.087   7.446 -0.0975  0.2124  0.0165
  839YOPS   CNO12895   7.795   7.008   5.063 -0.0503 -0.0400 -0.0614
  839YOPS   PO412896   8.025   7.294   5.390 -0.0349 -0.0784  0.0817
  839YOPS   GL112897   8.215   7.094   5.772 -0.0578  0.1799  0.0314
  839YOPS   GL212898   8.275   6.744   5.807 -0.2628 -0.0166 -0.0396
  839YOPS   C1A12899   8.458   7.098   6.166 -0.1900  0.0558 -0.0406
  839YOPS   D2A12900   8.688   7.228   6.347  0.1360 -0.1349 -0.4439
  839YOPS   C3A12901   8.694   7.683   6.581 -0.0954  0.0619 -0.0221
  839YOPS   C4A12902   9.122   7.842   6.810 -0.1711  0.2613 -0.0004
  839YOPS   C1B12903   7.955   6.793   6.111  0.0168 -0.1858  0.0132
  839YOPS   C2B12904   7.935   7.136   6.398 -0.2220  0.0348  0.1263
  839YOPS   D3B12905   7.885   7.174   6.696  0.0533  0.1708 -0.0296
  839YOPS   C4B12906   7.568   7.157   6.817 -0.1486  0.0246 -0.2732
  840YOPS   CNO12907   1.589  13.973   5.129 -0.0119 -0.0373 -0.2079
  840YOPS   PO412908   1.489  13.446   5.273 -0.1023 -0.0242 -0.0268
  840YOPS   GL112909   1.267  13.593   5.617 -0.0830  0.3078  0.3112
  840YOPS   GL212910   0.870  13.473   5.677 -0.0000 -0.0067  0.0045
  840YOPS   C1A12911   1.429  13.762   5.965 -0.0458 -0.2341 -0.1116
  840YOPS   D2A12912   1.202  13.937   6.352  0.0471 -0.0670  0.1155
  840YOPS   C3A12913   1.129  14.028   6.745  0.2273  0.2100 -0.3046
  840YOPS   C4A12914   0.981  13.910   7.019  0.0969  0.2078 -0.0828
  840YOPS   C1B12915   0.869  13.612   5.965  0.0707  0.2456 -0.0717
  840YOPS   C2B12916   0.684  13.838   6.332 -0.0668  0.1389  0.1869
  840YOPS   D3B12917   0.597  14.031   6.638  0.2679  0.2094 -0.0972
  840YOPS   C4B12918   0.847  14.440   6.628 -0.3290 -0.0138 -0.1704
  841YOPS   CNO12919  15.625  10.489   5.929 -0.0850 -0.2318 -0.0102
  841YOPS   PO412920  15.651  10.729   5.610  0.0004 -0.4711  0.2546
  841YOPS   GL112921  15.820  10.998   5.889 -0.1100 -0.0900 -0.0295
  841YOPS   GL212922  15.656  11.207   5.935  0.0290  0.0012  0.0455
  841YOPS   C1A12923  16.183  11.140   5.948 -0.0761  0.0161 -0.0090
  841YOPS   D2A12924  16.424  11.535   6.177  0.0785 -0.2349 -0.1685
  841YOPS   C3A12925  16.375  11.950   6.449  0.0369 -0.2079  0.2918
  841YOPS   C4A12926  16.407  12.013   6.870 -0.0923 -0.2776 -0.0095
  841YOPS   C1B12927  15.749  11.261   6.303 -0.0799  0.2215  0.1356
  841YOPS   C2B12928  15.921  11.085   6.528 -0.2398  0.5562 -0.0529
  841YOPS   D3B12929  16.125  11.195   6.907  0.2603 -0.1347 -0.1576
  841YOPS   C4B12930  16.199  11.646   7.087 -0.0381  0.3326  0.0417
  842YOPS   CNO12931   2.851   3.190   4.820 -0.1610  0.0169 -0.1901
  842YOPS   PO412932   2.875   3.541   5.168  0.2113 -0.0408 -0.3287
  842YOPS   GL112933   3.085   3.360   5.522 -0.1832  0.0636 -0.3137
  842YOPS   GL212934   3.151   3.062   5.595 -0.0309  0.0276 -0.2610
  842YOPS   C1A12935   3.353   3.393   5.950  0.0377  0.0011 -0.1797
  842YOPS   D2A12936   3.480   3.319   6.316 -0.4135 -0.0418 -0.0883
  842YOPS   C3A12937   3.871   3.354   6.528 -0.0946 -0.1378  0.0354
  842YOPS   C4A12938   3.730   3.563   6.852 -0.1145 -0.1787  0.2611
  842YOPS   C1B12939   2.945   3.122   5.973  0.2398  0.1563 -0.2702
  842YOPS   C2B12940   2.950   3.249   6.364 -0.1823  0.1651 -0.0578
  842YOPS   D3B12941   3.177   3.401   6.719 -0.0910 -0.1782  0.1047
  842YOPS   C4B12942   3.133   3.739   7.007 -0.1634 -0.0457 -0.1087
  843YOPS   CNO12943   6.450   3.569   5.258 -0.2426  0.1459 -0.0305
  843YOPS   PO412944   6.045   3.686   5.456 -0.1578  0.0413  0.1753
  843YOPS   GL112945   5.818   3.736   5.690 -0.0772  0.1909 -0.2469
  843YOPS   GL212946   5.658   3.980   5.834  0.1060  0.2150 -0.0473
  843YOPS   C1A12947   5.777   3.594   6.178 -0.0852 -0.1222 -0.3933
  843YOPS   D2A12948   6.012   3.546   6.523 -0.0176  0.2141  0.0541
  843YOPS   C3A12949   6.433   3.526   6.580 -0.2055  0.0422 -0.0733
  843YOPS   C4A12950   6.548   3.290   6.979  0.1330  0.0966  0.0126
  843YOPS   C1B12951   5.570   4.001   6.158 -0.1632  0.2407 -0.4507
  843YOPS   C2B12952   5.645   3.902   6.552  0.0141 -0.0103 -0.0881
  843YOPS   D3B12953   5.824   3.822   6.985  0.1076  0.0502 -0.0478
  843YOPS   C4B12954   6.175   3.591   7.000 -0.0172 -0.0286 -0.0958
  844POPE   NH312955  13.185  17.279   5.170  0.2167 -0.4414  0.0871
  844POPE   PO412956  13.103  17.673   5.254  0.0658 -0.1037  0.1968
  844POPE   GL112957  13.255  17.487   5.621 -0.1395  0.1356 -0.0121
  844POPE   GL212958  12.954  17.435   5.756  0.2378  0.2986  0.0149
  844POPE   C1A12959  13.692  17.395   5.798  0.2373 -0.1050  0.2398
  844POPE   D2A12960  14.007  17.595   5.974  0.1178 -0.3376  0.1175
  844POPE   C3A12961  13.827  17.949   6.182 -0.2010  0.0102 -0.2352
  844POPE   C4A12962  13.639  18.103   6.568 -0.0899  0.0889 -0.1898
  844POPE   C1B12963  12.888  17.553   6.098 -0.1921 -0.0790 -0.0002
  844POPE   C2B12964  12.876  17.372   6.444  0.0411 -0.0792 -0.3643
  844POPE   C3B12965  12.894  17.271   6.829  0.1340  0.0055 -0.0869
  844POPE   C4B12966  12.832  17.062   7.118  0.0578  0.1525 -0.1874
  845POPE   NH312967  10.834  14.200   5.639  0.1129 -0.2164 -0.1109
  845POPE   PO412968  10.575  14.521   5.656 -0.1605 -0.1013 -0.0816
  845POPE   GL112969  10.814  14.512   6.040 -0.0465 -0.2554  0.2889
  845POPE   GL212970  11.128  14.252   6.005  0.0587  0.0956 -0.1300
  845POPE   C1A12971  11.016  14.550   6.467 -0.2516 -0.3760 -0.0214
  845POPE   D2A12972  10.857  14.465   6.850  0.1306  0.1669  0.0747
  845POPE   C3A12973  10.940  14.791   7.142  0.0390 -0.0445 -0.0107
  845POPE   C4A12974  10.656  15.098   7.066  0.0080 -0.1125 -0.2485
  845POPE   C1B12975  11.321  14.552   6.014 -0.1234  0.1485  0.0753
  845POPE   C2B12976  11.595  14.822   5.870 -0.0250  0.0416 -0.1858
  845POPE   C3B12977  11.905  15.119   5.751 -0.0703  0.0760 -0.1735
  845POPE   C4B12978  12.366  15.290   5.821 -0.0535  0.4397  0.0158
  846POPE   NH312979   5.003  15.109   5.224 -0.1840 -0.0535  0.0164
  846POPE   PO412980   5.455  15.120   5.019  0.1019 -0.1989 -0.2095
  846POPE   GL112981   5.468  15.121   5.425 -0.0228 -0.3983  0.1398
  846POPE   GL212982   5.309  15.390   5.537 -0.0329 -0.0875  0.1249
  846POPE   C1A12983   5.596  15.122   5.804 -0.0837 -0.0707  0.0384
  846POPE   D2A12984   5.620  15.263   6.230 -0.2424  0.0504  0.0397
  846POPE   C3A12985   5.620  15.252   6.647 -0.0220  0.1453  0.0441
  846POPE   C4A12986   5.584  15.201   7.128  0.3615  0.2186 -0.0928
  846POPE   C1B12987   5.449  15.639   5.934 -0.0918  0.0227 -0.0239
  846POPE   C2B12988   5.314  15.653   6.307 -0.1796  0.2506  0.1714
  846POPE   C3B12989   5.274  15.619   6.699  0.0324  0.0011 -0.1476
  846POPE   C4B12990   5.116  15.798   7.119  0.0134  0.3401 -0.0377
  847POPE   NH312991   1.033  17.872   5.191 -0.1355 -0.0431 -0.1886
  847POPE   PO412992   1.506  17.926   5.141  0.1137 -0.1931  0.1333
  847POPE   GL112993   1.534  18.079   5.508  0.0723 -0.0202 -0.0945
  847POPE   GL212994   1.360  18.362   5.528  0.0459 -0.2006 -0.1312
  847POPE   C1A12995   1.441  18.104   5.925  0.0414  0.0929  0.1400
  847POPE   D2A12996   1.435  18.129   6.423  0.0016 -0.5872 -0.1949
  847POPE   C3A12997   1.299  18.357   6.851 -0.1848 -0.2197 -0.0527
  847POPE   C4A12998   1.096  18.428   7.180 -0.2828  0.0687 -0.3940
  847POPE   C1B12999   1.202  18.501   6.062 -0.1059  0.1054 -0.0692
  847POPE   C2B13000   1.168  18.697   6.453 -0.0223  0.1125  0.3329
  847POPE   C3B13001   0.896  18.698   6.652  0.2505  0.5689  0.3885
  847POPE   C4B13002   0.636  18.449   6.891 -0.1133  0.1202 -0.1048
  848POPE   NH313003  11.987   8.181   5.893 -0.1334 -0.2353 -0.0938
  848POPE   PO413004  12.057   8.459   6.186  0.0715 -0.1611 -0.0783
  848POPE   GL113005  11.759   8.585   6.497 -0.2953  0.0213 -0.0418
  848POPE   GL213006  11.491   8.733   6.266 -0.0456  0.2299  0.0475
  848POPE   C1A13007  11.595   8.506   6.840 -0.2743 -0.1162 -0.2219
  848POPE   D2A13008  11.519   8.538   7.262 -0.1819 -0.0351  0.0100
  848POPE   C3A13009  11.554   8.338   7.591  0.1036  0.1578  0.2708
  848POPE   C4A13010  11.658   8.414   7.933  0.1506  0.1953 -0.1630
  848POPE   C1B13011  11.298   8.845   6.633  0.3298  0.1873  0.1031
  848POPE   C2B13012  11.233   8.840   6.998 -0.1088 -0.1191 -0.2786
  848POPE   C3B13013  11.143   8.884   7.418  0.0485 -0.2041 -0.1687
  848POPE   C4B13014  10.986   9.075   7.874  0.2721 -0.1920  0.1351
  849POPE   NH313015  14.844  16.678   5.314  0.1315  0.2760  0.0376
  849POPE   PO413016  15.204  17.016   5.230 -0.3738 -0.1327  0.5851
  849POPE   GL113017  15.120  16.907   5.692 -0.2182 -0.1354 -0.2297
  849POPE   GL213018  14.864  16.652   5.806  0.2172  0.2306  0.0597
  849POPE   C1A13019  15.363  16.805   5.969 -0.1112  0.2474 -0.3905
  849POPE   D2A13020  15.683  16.735   6.254  0.0222  0.0889  0.2082
  849POPE   C3A13021  15.720  16.393   6.354 -0.3480 -0.1783  0.2315
  849POPE   C4A13022  15.787  16.296   6.695  0.2079  0.0836 -0.1490
  849POPE   C1B13023  14.694  16.357   6.184 -0.1017 -0.2956 -0.1380
  849POPE   C2B13024  14.700  16.057   6.515  0.1498 -0.0531  0.0647
  849POPE   C3B13025  14.475  16.023   6.959  0.2114 -0.0023  0.2417
  849POPE   C4B13026  14.215  16.067   7.338  0.1590 -0.3582  0.0507
  850POPE   NH313027  12.422  16.130   5.096 -0.0760  0.0760  0.0193
  850POPE   PO413028  12.756  15.917   5.106  0.3704 -0.3892 -0.1483
  850POPE   GL113029  12.868  15.972   5.576  0.0032  0.0356  0.0990
  850POPE   GL213030  12.915  15.599   5.738  0.1928 -0.1547 -0.0411
  850POPE   C1A13031  12.907  16.252   5.868  0.0734  0.2130 -0.1117
  850POPE   D2A13032  12.990  16.657   5.885  0.1797 -0.0741  0.0122
  850POPE   C3A13033  13.011  16.841   6.224 -0.2200  0.0444  0.0532
  850POPE   C4A13034  12.944  16.790   6.666  0.4174 -0.0141  0.1592
  850POPE   C1B13035  13.065  15.885   6.137 -0.2331  0.0987 -0.2673
  850POPE   C2B13036  12.890  15.989   6.455  0.1573 -0.0491  0.2187
  850POPE   C3B13037  12.845  16.154   6.856  0.0681  0.3043 -0.1667
  850POPE   C4B13038  13.026  16.125   7.223 -0.0214  0.2788  0.0879
  851POPE   NH313039   6.683   7.519   5.296  0.2565  0.1974 -0.1776
  851POPE   PO413040   6.240   7.638   5.580  0.2783  0.0647  0.0497
  851POPE   GL113041   6.233   7.846   5.875  0.0388 -0.0098  0.0962
  851POPE   GL213042   5.967   7.964   5.961 -0.1148 -0.1124 -0.1541
  851POPE   C1A13043   6.412   7.975   6.345 -0.0113  0.1279  0.2994
  851POPE   D2A13044   6.592   7.893   6.674 -0.3770 -0.0940  0.1392
  851POPE   C3A13045   6.547   8.072   7.047  0.3011 -0.2140 -0.1038
  851POPE   C4A13046   6.866   8.322   7.287  0.1875 -0.0151  0.2556
  851POPE   C1B13047   5.788   8.110   6.319  0.0014  0.1828  0.0295
  851POPE   C2B13048   5.699   8.106   6.688  0.2513 -0.3202 -0.1299
  851POPE   C3B13049   5.636   8.062   7.083 -0.2357  0.1684 -0.2405
  851POPE   C4B13050   5.811   8.044   7.473 -0.1362 -0.2734 -0.3494
  852POPE   NH313051  17.306   1.863   5.542  0.0224 -0.0520  0.1268
  852POPE   PO413052  17.663   2.125   5.657  0.0283  0.0743 -0.0212
  852POPE   GL113053  17.936   1.986   5.997  0.2002  0.0081 -0.0738
  852POPE   GL213054  17.945   2.205   6.309 -0.1967 -0.2304 -0.2694
  852POPE   C1A13055  17.837   1.706   6.399  0.0337  0.1128  0.1123
  852POPE   D2A13056  17.935   1.286   6.571  0.1214  0.0721 -0.0114
  852POPE   C3A13057  17.893   1.089   7.002 -0.1468  0.2953  0.0745
  852POPE   C4A13058  18.043   0.733   7.333 -0.1542  0.0255 -0.1579
  852POPE   C1B13059  17.939   2.500   6.561  0.1876  0.1569  0.0018
  852POPE   C2B13060  18.057   2.565   7.015 -0.1536  0.2469 -0.0505
  852POPE   C3B13061  18.354   2.343   7.223  0.0162  0.2570  0.0102
  852POPE   C4B13062  18.685   2.179   7.427  0.1126 -0.0574 -0.5282
  853POPE   NH313063   7.486  10.291   5.371 -0.0908  0.0479 -0.1493
  853POPE   PO413064   7.563   9.964   5.218 -0.0397  0.0952  0.2120
  853POPE   GL113065   7.573   9.931   5.688 -0.0380 -0.0223 -0.1767
  853POPE   GL213066   7.306   9.820   5.687  0.2347 -0.3042  0.0216
  853POPE   C1A13067   7.656  10.158   6.047  0.2372 -0.0799 -0.0460
  853POPE   D2A13068   7.534  10.192   6.414  0.0669  0.0554 -0.2025
  853POPE   C3A13069   7.178  10.079   6.467  0.0985  0.0985 -0.2403
  853POPE   C4A13070   7.181   9.869   6.927 -0.0795 -0.0349  0.0435
  853POPE   C1B13071   7.279   9.811   6.086 -0.0009 -0.0818 -0.1866
  853POPE   C2B13072   7.443   9.685   6.539 -0.0977  0.0998  0.0576
  853POPE   C3B13073   7.625   9.609   6.949  0.0329 -0.1246  0.1417
  853POPE   C4B13074   7.972   9.519   7.190  0.1268 -0.2938  0.1025
  854POPE   NH313075   1.801  17.456   5.172  0.0626 -0.1992 -0.0882
  854POPE   PO413076   1.728  17.014   5.292  0.0497 -0.2948 -0.2594
  854POPE   GL113077   1.763  17.212   5.682 -0.0511  0.2800  0.1651
  854POPE   GL213078   1.731  16.896   5.891  0.0998  0.0220 -0.0308
  854POPE   C1A13079   1.555  17.528   5.940  0.1595  0.4736 -0.1002
  854POPE   D2A13080   1.628  17.672   6.353  0.3286  0.0066  0.3318
  854POPE   C3A13081   1.843  17.337   6.498  0.4385  0.3107 -0.0656
  854POPE   C4A13082   2.253  17.213   6.448  0.2855 -0.1188 -0.0247
  854POPE   C1B13083   1.734  16.833   6.383  0.1193 -0.0865 -0.1297
  854POPE   C2B13084   1.513  16.805   6.731 -0.1669  0.4047 -0.0761
  854POPE   C3B13085   1.339  16.540   7.135  0.1258 -0.3656  0.1206
  854POPE   C4B13086   1.025  16.391   7.462  0.0338  0.1233 -0.1520
  855POPE   NH313087  15.931  10.300   5.585  0.3829 -0.1773  0.0399
  855POPE   PO413088  16.107   9.883   5.472  0.1378  0.1297 -0.0542
  855POPE   GL113089  16.153   9.600   5.730  0.0384  0.0106 -0.0174
  855POPE   GL213090  16.413   9.714   5.950  0.0373 -0.0246  0.2478
  855POPE   C1A13091  16.101   9.390   6.115  0.1861 -0.1264 -0.1517
  855POPE   D2A13092  15.966   9.414   6.535  0.0040  0.0734 -0.1233
  855POPE   C3A13093  15.793   9.754   6.762  0.4242  0.1088 -0.2275
  855POPE   C4A13094  15.630   9.732   7.161 -0.1081 -0.0517 -0.2706
  855POPE   C1B13095  16.537   9.503   6.260  0.1492  0.2670  0.0068
  855POPE   C2B13096  16.426   9.182   6.554 -0.0599  0.4504 -0.2162
  855POPE   C3B13097  16.370   9.027   7.063 -0.1845  0.1820 -0.1156
  855POPE   C4B13098  16.479   8.900   7.503  0.2151 -0.0413 -0.1681
  856POPE   NH313099  12.038  12.915   5.770 -0.0096  0.1379  0.0183
  856POPE   PO413100  12.347  12.678   5.583 -0.4217  0.2108  0.0152
  856POPE   GL113101  12.465  12.855   6.068  0.2092  0.2082  0.4093
  856POPE   GL213102  12.743  12.985   6.018  0.0403  0.1720  0.1131
  856POPE   C1A13103  12.649  12.984   6.528 -0.3024 -0.1493  0.1127
  856POPE   D2A13104  12.580  13.081   6.927 -0.1960 -0.1324 -0.2789
  856POPE   C3A13105  12.480  13.505   7.123 -0.2360  0.3299 -0.0957
  856POPE   C4A13106  12.489  13.715   7.450 -0.0267 -0.2943 -0.0475
  856POPE   C1B13107  12.919  13.279   6.237  0.3603  0.0571 -0.5149
  856POPE   C2B13108  12.940  13.517   6.763  0.0778 -0.1290  0.1635
  856POPE   C3B13109  13.054  13.634   7.179  0.2097  0.0146  0.3237
  856POPE   C4B13110  12.991  13.787   7.637 -0.1344 -0.0386  0.2886
  857POPE   NH313111   5.961   6.495   5.661 -0.2846  0.4402 -0.2877
  857POPE   PO413112   5.836   6.858   5.741  0.0775 -0.4545  0.0602
  857POPE   GL113113   5.686   6.941   6.233  0.0011  0.1671 -0.2122
  857POPE   GL213114   5.697   7.236   6.279 -0.1918  0.0670 -0.2429
  857POPE   C1A13115   5.524   6.791   6.684  0.3490  0.1849 -0.1833
  857POPE   D2A13116   5.381   6.714   7.096 -0.1130  0.0170 -0.0485
  857POPE   C3A13117   5.511   6.456   7.361 -0.1702 -0.1538  0.1974
  857POPE   C4A13118   5.374   6.417   7.660  0.1172 -0.0735  0.0529
  857POPE   C1B13119   5.691   7.208   6.732  0.0503  0.3477  0.1400
  857POPE   C2B13120   5.679   7.115   7.107 -0.0292  0.0551 -0.1588
  857POPE   C3B13121   5.595   7.023   7.491  0.2215  0.0674 -0.0585
  857POPE   C4B13122   5.686   6.802   7.878  0.0483 -0.2031 -0.0410
  858POPE   NH313123   5.640  13.945   4.861 -0.1896 -0.2236 -0.1478
  858POPE   PO413124   5.714  14.231   5.276  0.0129 -0.0139  0.0763
  858POPE   GL113125   5.881  13.963   5.600  0.2062  0.0369  0.0475
  858POPE   GL213126   5.753  13.685   5.697  0.4447  0.1485  0.0368
  858POPE   C1A13127   6.151  14.013   6.024  0.0007  0.2397  0.0029
  858POPE   D2A13128   6.241  13.999   6.529 -0.1268 -0.0321 -0.0796
  858POPE   C3A13129   6.461  13.849   6.928 -0.0750 -0.0450 -0.0832
  858POPE   C4A13130   6.655  13.891   7.314  0.1184  0.0224 -0.0699
  858POPE   C1B13131   5.674  13.676   6.081  0.0333 -0.1410  0.1206
  858POPE   C2B13132   5.820  13.765   6.454 -0.1586  0.1831 -0.1512
  858POPE   C3B13133   5.847  13.747   6.907  0.0412 -0.1169  0.1813
  858POPE   C4B13134   6.130  13.681   7.225 -0.1277 -0.1162 -0.0555
  859POPE   NH313135   6.294   7.144   5.552 -0.0715  0.2541 -0.1380
  859POPE   PO413136   6.319   6.740   5.793 -0.2092 -0.0474 -0.3346
  859POPE   GL113137   6.652   6.884   6.022 -0.1042  0.1863 -0.2546
  859POPE   GL213138   6.640   6.732   6.217 -0.3312  0.0626 -0.1311
  859POPE   C1A13139   6.787   7.177   6.231  0.1719 -0.1587 -0.1165
  859POPE   D2A13140   6.542   7.427   6.440 -0.0539  0.0311 -0.1216
  859POPE   C3A13141   6.573   7.281   6.860  0.2832 -0.3246  0.1389
  859POPE   C4A13142   6.449   7.443   7.105 -0.1632 -0.0574 -0.0022
  859POPE   C1B13143   6.576   6.812   6.604 -0.1867 -0.0557  0.0492
  859POPE   C2B13144   6.592   6.749   7.015  0.1808 -0.1030  0.1466
  859POPE   C3B13145   6.460   6.738   7.343  0.0872  0.0775  0.0899
  859POPE   C4B13146   6.476   6.789   7.781  0.0093  0.0222  0.1565
  860POPE   NH313147   5.249  17.077   5.304  0.1588  0.1813  0.0528
  860POPE   PO413148   5.158  17.533   5.254  0.2365 -0.0078 -0.0993
  860POPE   GL113149   5.421  17.757   5.470 -0.1889  0.2573  0.3971
  860POPE   GL213150   5.795  17.870   5.521 -0.0153  0.1160 -0.1131
  860POPE   C1A13151   5.200  18.089   5.783  0.0870  0.0463  0.1142
  860POPE   D2A13152   4.974  18.292   6.069 -0.1223 -0.4849 -0.1197
  860POPE   C3A13153   4.746  17.985   6.236 -0.2996 -0.0593  0.4219
  860POPE   C4A13154   4.685  17.565   6.124 -0.0136  0.0751  0.1231
  860POPE   C1B13155   5.643  17.804   5.951 -0.3586  0.0309  0.3863
  860POPE   C2B13156   5.739  17.381   6.186 -0.3536 -0.0383 -0.1352
  860POPE   C3B13157   6.107  17.027   6.045  0.1963  0.1107  0.1246
  860POPE   C4B13158   6.189  16.594   6.102 -0.2346 -0.0948  0.1767
  861POPE   NH313159  18.075   2.379   5.584  0.3012  0.2134  0.0487
  861POPE   PO413160  18.225   2.762   5.587 -0.2677  0.1089 -0.2694
  861POPE   GL113161  18.415   2.614   5.945 -0.0023 -0.3188 -0.0850
  861POPE   GL213162  18.141   2.628   6.083  0.2405 -0.0945  0.0055
  861POPE   C1A13163  18.436   2.324   6.326 -0.0150  0.3890  0.0562
  861POPE   D2A13164  18.413   2.335   6.733 -0.1624  0.1685 -0.2826
  861POPE   C3A13165  18.091   2.098   6.838 -0.1057  0.2134  0.1112
  861POPE   C4A13166  17.905   1.690   6.924  0.1273 -0.1520  0.1314
  861POPE   C1B13167  18.304   2.822   6.443 -0.2603 -0.2401  0.2137
  861POPE   C2B13168  18.673   2.793   6.871 -0.0387 -0.0888  0.1117
  861POPE   C3B13169  18.712   2.709   7.171 -0.0640 -0.2640 -0.2659
  861POPE   C4B13170  18.803   2.629   7.580  0.0805  0.0265 -0.0028
  862POPE   NH313171   8.490   9.714   5.433 -0.1268  0.0193 -0.3558
  862POPE   PO413172   8.894   9.956   5.477 -0.3205 -0.0601 -0.1028
  862POPE   GL113173   8.947   9.576   5.753 -0.4513 -0.0529 -0.0525
  862POPE   GL213174   8.686   9.574   5.893  0.0590 -0.0755 -0.1194
  862POPE   C1A13175   9.137   9.548   6.194 -0.0102 -0.0596 -0.0784
  862POPE   D2A13176   9.445   9.543   6.513  0.2429 -0.1893 -0.2220
  862POPE   C3A13177   9.359   9.625   7.013  0.1993  0.1120  0.0719
  862POPE   C4A13178   9.459   9.623   7.371 -0.3599 -0.0402 -0.0236
  862POPE   C1B13179   8.400   9.519   6.344 -0.5332 -0.4126  0.1464
  862POPE   C2B13180   8.313   9.450   6.809 -0.0069 -0.0689  0.4224
  862POPE   C3B13181   8.465   9.133   7.146  0.3428 -0.1105 -0.0134
  862POPE   C4B13182   8.564   8.812   7.468  0.0781 -0.0644  0.0594
  863POPE   NH313183  15.403   3.869   5.702 -0.0015  0.1717  0.0135
  863POPE   PO413184  15.800   4.161   5.773 -0.0928 -0.0993 -0.0883
  863POPE   GL113185  15.660   4.022   6.138  0.2459  0.0549 -0.0857
  863POPE   GL213186  15.597   3.742   6.123  0.1582  0.1848 -0.2407
  863POPE   C1A13187  15.876   4.127   6.546 -0.1625  0.0953 -0.2889
  863POPE   D2A13188  16.105   4.339   6.826  0.1243 -0.2780  0.0352
  863POPE   C3A13189  16.074   4.372   7.173  0.0192  0.0795 -0.2031
  863POPE   C4A13190  16.195   4.561   7.615 -0.1291  0.2754  0.2499
  863POPE   C1B13191  15.561   3.753   6.633  0.1464 -0.0766 -0.0057
  863POPE   C2B13192  15.741   3.949   7.068 -0.1842 -0.1382  0.0061
  863POPE   C3B13193  15.671   4.140   7.376 -0.2925 -0.2375  0.1558
  863POPE   C4B13194  15.709   4.404   7.772  0.4604 -0.0719 -0.0270
  864POPE   NH313195  18.647  10.043   6.125 -0.1417 -0.1127  0.0058
  864POPE   PO413196  18.973   9.777   6.219  0.1979 -0.0434 -0.1627
  864POPE   GL113197  18.851   9.656   6.567 -0.0750  0.2009  0.2065
  864POPE   GL213198  18.555   9.694   6.497 -0.0244 -0.0341  0.0365
  864POPE   C1A13199  18.855   9.664   7.005  0.0061  0.1425 -0.0893
  864POPE   D2A13200  18.741   9.350   7.373  0.1552  0.0765  0.0439
  864POPE   C3A13201  18.725   9.004   7.049  0.3097  0.0260  0.3958
  864POPE   C4A13202  18.726   9.182   6.622 -0.0816 -0.1631 -0.0722
  864POPE   C1B13203  18.403   9.977   6.818  0.0457  0.1652  0.0600
  864POPE   C2B13204  18.268  10.474   7.100  0.1297 -0.2242  0.0820
  864POPE   C3B13205  18.161  10.611   7.496 -0.3769  0.0574 -0.1110
  864POPE   C4B13206  18.004  10.951   7.874 -0.0012 -0.0434 -0.1225
  865POPE   NH313207  11.454   9.001   5.799 -0.0843  0.2197  0.0843
  865POPE   PO413208  10.981   8.849   5.952  0.0413  0.0696  0.2369
  865POPE   GL113209  10.917   8.678   6.308  0.0226  0.1240 -0.2222
  865POPE   GL213210  10.611   8.481   6.410  0.0713 -0.0050 -0.1336
  865POPE   C1A13211  10.928   8.614   6.727  0.3998 -0.2786 -0.0590
  865POPE   D2A13212  10.700   8.431   7.051 -0.1542 -0.1043 -0.0422
  865POPE   C3A13213  10.316   8.781   7.190 -0.2195 -0.0479  0.0439
  865POPE   C4A13214   9.819   8.949   7.332  0.0480 -0.1840 -0.1684
  865POPE   C1B13215  10.315   8.626   6.669 -0.2078  0.0677 -0.2185
  865POPE   C2B13216   9.872   8.648   6.805  0.0235  0.0493  0.3061
  865POPE   C3B13217   9.473   8.694   6.882  0.2878 -0.3283 -0.0741
  865POPE   C4B13218   9.100   8.433   7.083 -0.2377  0.2651  0.2640
  866POPE   NH313219   3.042  10.206   5.789  0.0083  0.0450 -0.3190
  866POPE   PO413220   3.527  10.115   5.800 -0.0330 -0.1254 -0.1977
  866POPE   GL113221   3.469   9.913   6.134 -0.0425  0.3016 -0.0648
  866POPE   GL213222   3.128   9.859   6.190  0.1764 -0.0235 -0.1888
  866POPE   C1A13223   3.518  10.027   6.586  0.2971 -0.1795 -0.1959
  866POPE   D2A13224   3.359  10.290   6.947 -0.3211  0.0628 -0.0269
  866POPE   C3A13225   3.039  10.354   7.200  0.1392 -0.0715 -0.1410
  866POPE   C4A13226   2.634  10.206   7.271 -0.0644  0.1792 -0.3454
  866POPE   C1B13227   3.114   9.706   6.601  0.1887  0.3312 -0.0041
  866POPE   C2B13228   3.066   9.743   7.019  0.0662  0.0670  0.4347
  866POPE   C3B13229   3.345   9.869   7.238 -0.0268 -0.2370 -0.0471
  866POPE   C4B13230   3.618   9.973   7.517 -0.1739 -0.0177  0.2131
  867POPE   NH313231  15.823  11.237   5.444  0.3557  0.0613  0.0731
  867POPE   PO413232  15.615  11.607   5.374 -0.1017 -0.1271 -0.2288
  867POPE   GL113233  15.693  11.674   5.742 -0.2670  0.2552 -0.1402
  867POPE   GL213234  16.057  11.658   5.848  0.2606 -0.1577  0.2356
  867POPE   C1A13235  15.691  11.833   6.186  0.0252  0.0508  0.2195
  867POPE   D2A13236  15.718  11.851   6.572  0.0661  0.0668  0.2468
  867POPE   C3A13237  16.077  11.568   6.600  0.1759  0.2888 -0.0391
  867POPE   C4A13238  16.495  11.467   6.678  0.0854 -0.4163  0.0089
  867POPE   C1B13239  16.166  12.050   5.992  0.1609  0.4782 -0.1154
  867POPE   C2B13240  16.003  12.314   6.256 -0.1119 -0.0500 -0.0859
  867POPE   C3B13241  16.111  12.395   6.701  0.2067  0.0942  0.1385
  867POPE   C4B13242  16.040  12.277   7.169  0.1472 -0.2224  0.0875
  868POPE   NH313243  13.853  16.749   5.464  0.0279 -0.0802 -0.0750
  868POPE   PO413244  13.496  16.921   5.240 -0.0712  0.0445  0.1312
  868POPE   GL113245  13.357  17.033   5.648  0.1052 -0.0379 -0.0130
  868POPE   GL213246  13.555  16.865   5.878 -0.1584  0.1065  0.0711
  868POPE   C1A13247  13.335  17.225   6.098  0.1678  0.1361  0.3854
  868POPE   D2A13248  13.307  17.124   6.492 -0.2162  0.0125  0.1552
  868POPE   C3A13249  13.391  16.705   6.587 -0.1743 -0.2254  0.2824
  868POPE   C4A13250  13.315  16.512   7.014  0.2126  0.0407  0.3490
  868POPE   C1B13251  13.748  16.783   6.318  0.0758  0.0460 -0.0341
  868POPE   C2B13252  13.753  16.983   6.789 -0.2350 -0.1088 -0.0205
  868POPE   C3B13253  13.419  17.096   7.088  0.0451 -0.0029  0.2609
  868POPE   C4B13254  13.211  16.834   7.367  0.0720  0.0551  0.0787
  869POPE   NH313255   6.716  17.858   5.605 -0.1064 -0.2238  0.1418
  869POPE   PO413256   6.304  17.714   5.629 -0.0244  0.0427 -0.0091
  869POPE   GL113257   6.161  17.549   5.985 -0.0451  0.3086 -0.0759
  869POPE   GL213258   6.488  17.464   6.056  0.0496 -0.0907 -0.0954
  869POPE   C1A13259   5.979  17.763   6.406  0.1505 -0.2604 -0.1105
  869POPE   D2A13260   5.859  17.607   6.751 -0.4565  0.2347  0.1973
  869POPE   C3A13261   5.913  17.825   7.079  0.0976  0.1211 -0.1264
  869POPE   C4A13262   5.831  17.799   7.439  0.2277 -0.2445  0.2723
  869POPE   C1B13263   6.249  17.336   6.390  0.0969 -0.0166 -0.0024
  869POPE   C2B13264   5.883  17.044   6.532  0.2651 -0.0726  0.1810
  869POPE   C3B13265   5.737  16.663   6.333  0.1220  0.0974  0.0423
  869POPE   C4B13266   5.785  16.546   5.866 -0.3028  0.0274 -0.0085
  870POPE   NH313267   6.570   7.991   5.476 -0.0690  0.0325 -0.1563
  870POPE   PO413268   6.947   7.924   5.669 -0.3586 -0.3118  0.1258
  870POPE   GL113269   6.925   7.803   6.066  0.0502 -0.2828 -0.0987
  870POPE   GL213270   6.910   8.128   6.250 -0.1062  0.0377  0.2728
  870POPE   C1A13271   7.151   7.777   6.479  0.0886 -0.3050  0.1404
  870POPE   D2A13272   7.139   7.475   6.824  0.1952  0.3579  0.4877
  870POPE   C3A13273   7.322   7.575   7.185 -0.1916 -0.2238 -0.0818
  870POPE   C4A13274   7.412   7.457   7.706  0.0354 -0.0575  0.1032
  870POPE   C1B13275   6.952   8.256   6.632 -0.2620 -0.0813  0.0373
  870POPE   C2B13276   7.209   8.067   6.997  0.0500 -0.3178  0.2113
  870POPE   C3B13277   7.386   8.281   7.343  0.0230  0.1022 -0.2573
  870POPE   C4B13278   7.248   8.557   7.612  0.1449  0.0352 -0.1451
  871POPE   NH313279  16.681   2.486   5.817 -0.1536  0.2389 -0.1514
  871POPE   PO413280  16.927   2.075   5.831  0.0065 -0.0145 -0.0841
  871POPE   GL113281  16.999   1.858   6.156 -0.2167  0.1475 -0.2010
  871POPE   GL213282  16.664   1.595   6.288 -0.0099  0.2123 -0.1287
  871POPE   C1A13283  17.219   1.579   6.294 -0.2622 -0.2806 -0.0673
  871POPE   D2A13284  17.472   1.348   6.594 -0.1586  0.0672  0.3918
  871POPE   C3A13285  17.407   1.513   6.897  0.2117  0.0886 -0.2021
  871POPE   C4A13286  17.336   1.663   7.331  0.1887  0.0472 -0.1301
  871POPE   C1B13287  16.428   1.315   6.559 -0.1609  0.2605  0.0052
  871POPE   C2B13288  16.538   1.119   6.900 -0.1286  0.2385 -0.2846
  871POPE   C3B13289  16.557   1.213   7.354 -0.1218  0.3894  0.0869
  871POPE   C4B13290  16.399   1.370   7.797  0.4274  0.0429 -0.0349
  872POPE   NH313291  18.100  17.649   5.232  0.0603 -0.0275  0.0392
  872POPE   PO413292  18.067  17.247   5.324  0.3089 -0.2246  0.2926
  872POPE   GL113293  18.163  17.012   5.760  0.0741 -0.0134 -0.2248
  872POPE   GL213294  18.432  17.160   5.785  0.2540  0.2858  0.0459
  872POPE   C1A13295  18.247  16.770   6.127  0.1181  0.0004  0.1029
  872POPE   D2A13296  18.444  16.643   6.599 -0.2199 -0.3321  0.1358
  872POPE   C3A13297  18.419  16.897   7.024  0.1594 -0.1400 -0.0034
  872POPE   C4A13298  18.554  17.318   7.294 -0.2594  0.0841  0.0539
  872POPE   C1B13299  18.610  17.107   6.152  0.0036  0.0236  0.3050
  872POPE   C2B13300  18.674  17.088   6.581 -0.3159  0.1721  0.0231
  872POPE   C3B13301  18.581  17.319   6.832 -0.2032 -0.2371 -0.2268
  872POPE   C4B13302  18.444  17.759   7.033  0.0799 -0.0347  0.0683
  873POPE   NH313303  16.725  14.093   5.526 -0.1112 -0.1293  0.1381
  873POPE   PO413304  17.108  13.887   5.615 -0.0828  0.1657  0.1940
  873POPE   GL113305  16.886  13.760   5.905  0.1966  0.2953  0.3314
  873POPE   GL213306  16.635  13.816   5.993 -0.0393 -0.0521 -0.0410
  873POPE   C1A13307  16.945  13.664   6.363  0.3838 -0.1150  0.1204
  873POPE   D2A13308  17.053  13.590   6.638  0.0649 -0.1883  0.0698
  873POPE   C3A13309  16.973  13.576   7.079  0.0323 -0.1019 -0.1890
  873POPE   C4A13310  16.948  13.240   7.375  0.1441  0.0801 -0.0916
  873POPE   C1B13311  16.414  13.680   6.389  0.0333 -0.0001  0.0945
  873POPE   C2B13312  16.586  13.831   6.798  0.3263  0.0857  0.1708
  873POPE   C3B13313  16.675  14.050   7.114  0.0862  0.0909 -0.2275
  873POPE   C4B13314  16.620  14.173   7.504 -0.0509  0.0991 -0.2583
  874YOPE   NH313315   6.408  15.294   5.529  0.1517  0.0274  0.1074
  874YOPE   PO413316   6.236  15.587   5.240  0.3705 -0.2180  0.0732
  874YOPE   GL113317   6.276  15.816   5.631  0.0312  0.1352  0.3980
  874YOPE   GL213318   6.490  15.722   5.825 -0.0085 -0.0489  0.1490
  874YOPE   C1A13319   6.063  16.125   6.038  0.2689 -0.3577 -0.0898
  874YOPE   D2A13320   5.978  16.214   6.423  0.0649 -0.0338 -0.0965
  874YOPE   C3A13321   5.920  16.198   6.880  0.0795 -0.0405  0.2387
  874YOPE   C4A13322   6.242  16.317   7.217 -0.0512  0.1705  0.0561
  874YOPE   C1B13323   6.410  15.876   6.277  0.3087  0.1736 -0.2234
  874YOPE   C2B13324   6.509  15.856   6.693  0.2363 -0.0070  0.0997
  874YOPE   D3B13325   6.642  16.019   7.118 -0.0322  0.0629 -0.0656
  874YOPE   C4B13326   6.524  16.043   7.562  0.1135  0.1454  0.2299
  875YOPE   NH313327   8.222   3.762   5.241  0.0627 -0.3357  0.1306
  875YOPE   PO413328   7.844   4.031   5.323 -0.0704  0.0014 -0.0030
  875YOPE   GL113329   7.894   3.931   5.710  0.0187  0.1889  0.0192
  875YOPE   GL213330   7.604   3.827   5.920 -0.0500  0.0884 -0.1599
  875YOPE   C1A13331   8.025   3.810   6.118 -0.2865 -0.4348  0.1168
  875YOPE   D2A13332   8.212   3.629   6.579  0.2727  0.0612 -0.1148
  875YOPE   C3A13333   8.043   3.243   6.662  0.0429 -0.0377 -0.0387
  875YOPE   C4A13334   7.808   2.862   6.726  0.4288 -0.0920  0.0707
  875YOPE   C1B13335   7.610   3.976   6.314 -0.3938 -0.0521 -0.1118
  875YOPE   C2B13336   7.866   3.945   6.666  0.0266 -0.0301  0.2281
  875YOPE   D3B13337   7.864   3.607   6.970 -0.0399 -0.4287  0.3312
  875YOPE   C4B13338   8.171   3.475   7.212  0.4313 -0.0216 -0.2307
  876YOPE   NH313339   0.849  12.599   5.496 -0.2573  0.1116  0.1825
  876YOPE   PO413340   0.969  12.234   5.595 -0.1140 -0.5083  0.2107
  876YOPE   GL113341   0.719  12.132   5.931 -0.3989 -0.2328 -0.0307
  876YOPE   GL213342   0.517  12.323   5.844 -0.2736 -0.6027  0.2261
  876YOPE   C1A13343   0.798  11.765   6.278  0.4342  0.0472  0.0330
  876YOPE   D2A13344   0.883  11.593   6.652 -0.0205  0.1175  0.0866
  876YOPE   C3A13345   1.014  11.840   6.994 -0.0328  0.2264 -0.2941
  876YOPE   C4A13346   1.381  12.088   7.156  0.0958  0.1262  0.2034
  876YOPE   C1B13347   0.453  12.652   6.179  0.0578 -0.0116  0.1462
  876YOPE   C2B13348   0.321  12.892   6.483  0.0711  0.0679 -0.0446
  876YOPE   D3B13349   0.115  13.268   6.644  0.0210  0.1945  0.3197
  876YOPE   C4B13350  -0.091  13.424   6.916 -0.0364 -0.1911 -0.1547
  877YOPE   NH313351  16.421  18.713   5.587 -0.1546 -0.0660  0.1075
  877YOPE   PO413352  16.786  18.500   5.399  0.0254  0.0079 -0.1252
  877YOPE   GL113353  16.680  18.360   5.746  0.2753  0.0742 -0.0678
  877YOPE   GL213354  16.447  18.265   5.847  0.0444 -0.0828 -0.2808
  877YOPE   C1A13355  16.616  18.586   6.219  0.2742  0.1201  0.0285
  877YOPE   D2A13356  16.676  18.579   6.587 -0.1646 -0.1536  0.0425
  877YOPE   C3A13357  16.673  18.580   7.050  0.0912 -0.0906 -0.0557
  877YOPE   C4A13358  16.877  18.310   7.314 -0.4475 -0.2022  0.3331
  877YOPE   C1B13359  16.236  18.257   6.231 -0.1630 -0.4275  0.0522
  877YOPE   C2B13360  16.358  18.212   6.631  0.1798 -0.1685  0.2678
  877YOPE   D3B13361  16.353  18.118   7.020 -0.1296  0.0327 -0.1577
  877YOPE   C4B13362  16.467  17.927   7.470 -0.2004  0.2508 -0.2991
  878YOPE   NH313363   4.012  13.672   5.757  0.1659 -0.0256 -0.0938
  878YOPE   PO413364   3.677  13.879   5.487 -0.0685 -0.2208 -0.0540
  878YOPE   GL113365   3.929  14.121   5.920  0.3522  0.1838 -0.0511
  878YOPE   GL213366   4.152  14.283   5.982 -0.2501  0.0638  0.3458
  878YOPE   C1A13367   3.782  14.063   6.389  0.0724 -0.0811 -0.1899
  878YOPE   D2A13368   3.764  13.960   6.761  0.0870  0.0393 -0.0822
  878YOPE   C3A13369   3.913  14.250   7.036  0.1876 -0.1708  0.0482
  878YOPE   C4A13370   4.095  14.204   7.407  0.0237 -0.0642 -0.2617
  878YOPE   C1B13371   4.195  14.420   6.385 -0.0531 -0.1959 -0.0035
  878YOPE   C2B13372   4.362  14.390   6.777 -0.1717  0.2451 -0.0278
  878YOPE   D3B13373   4.536  14.322   7.166  0.1518 -0.3006 -0.0907
  878YOPE   C4B13374   4.736  14.330   7.494  0.0389  0.0609 -0.0703
  879YOPE   NH313375  12.779  18.555   5.699 -0.0164  0.1194 -0.0825
  879YOPE   PO413376  12.661  19.005   5.713 -0.1476  0.0226  0.1804
  879YOPE   GL113377  12.608  19.027   6.140  0.3843 -0.1129  0.0948
  879YOPE   GL213378  12.494  19.450   6.130 -0.0376 -0.0744 -0.0527
  879YOPE   C1A13379  12.482  19.007   6.533 -0.2811 -0.0732 -0.0001
  879YOPE   D2A13380  12.158  19.160   6.838  0.1591  0.0791  0.0588
  879YOPE   C3A13381  11.947  19.518   6.621 -0.0707  0.2409  0.1201
  879YOPE   C4A13382  11.989  19.601   6.247 -0.1524  0.1869  0.2624
  879YOPE   C1B13383  12.436  19.470   6.570  0.1304 -0.0824  0.0664
  879YOPE   C2B13384  12.578  19.467   6.911 -0.1203  0.0408 -0.1323
  879YOPE   D3B13385  12.885  19.683   7.154  0.1227 -0.1459  0.0223
  879YOPE   C4B13386  13.156  19.664   7.529 -0.1187  0.1783 -0.2591
  880YOPE   NH313387  14.055   7.492   5.365 -0.1505  0.0844 -0.2108
  880YOPE   PO413388  14.081   7.947   5.564 -0.0536 -0.3463  0.0032
  880YOPE   GL113389  14.157   7.953   6.038 -0.0496  0.2362 -0.0591
  880YOPE   GL213390  14.029   8.282   6.155 -0.0593 -0.1693  0.1721
  880YOPE   C1A13391  14.088   7.884   6.499 -0.3575 -0.0934  0.1042
  880YOPE   D2A13392  14.083   7.837   6.904 -0.0716  0.0338  0.0147
  880YOPE   C3A13393  14.330   7.775   7.200 -0.2873 -0.0490  0.2632
  880YOPE   C4A13394  14.350   7.424   7.581  0.0432  0.0787 -0.3550
  880YOPE   C1B13395  14.020   8.431   6.584 -0.1271  0.1366 -0.3298
  880YOPE   C2B13396  14.275   8.627   6.795 -0.0767 -0.0528  0.0328
  880YOPE   D3B13397  14.554   8.606   7.061  0.0215 -0.0082 -0.0823
  880YOPE   C4B13398  14.848   8.574   7.294  0.1701  0.1646  0.1949
  881YOPE   NH313399   0.312  10.147   5.965 -0.0809  0.0320 -0.0193
  881YOPE   PO413400   0.783  10.226   5.847 -0.1075  0.2761 -0.2343
  881YOPE   GL113401   0.747  10.077   6.222 -0.1202  0.3398 -0.1264
  881YOPE   GL213402   0.554   9.942   6.328 -0.2036 -0.0259  0.1410
  881YOPE   C1A13403   1.044  10.051   6.611  0.1205 -0.5052 -0.2639
  881YOPE   D2A13404   0.940  10.048   6.989  0.1372 -0.1431  0.2784
  881YOPE   C3A13405   0.602  10.277   7.304 -0.0067  0.2575 -0.0206
  881YOPE   C4A13406   0.310  10.650   7.431 -0.1511  0.0457 -0.0901
  881YOPE   C1B13407   0.510   9.932   6.726 -0.3875 -0.2471  0.2334
  881YOPE   C2B13408   0.525   9.816   7.172 -0.1405  0.0625 -0.2234
  881YOPE   D3B13409   0.361   9.710   7.440 -0.2180  0.1066 -0.0286
  881YOPE   C4B13410   0.231   9.605   7.815  0.1509 -0.1209  0.3475
  882YOPE   NH313411  12.099   4.695   5.724  0.2467 -0.1164 -0.1773
  882YOPE   PO413412  12.183   5.100   5.571  0.0572  0.2584  0.0865
  882YOPE   GL113413  12.411   5.103   5.997  0.1442 -0.0491 -0.0296
  882YOPE   GL213414  12.214   4.950   6.171  0.0204  0.1445  0.1436
  882YOPE   C1A13415  12.813   4.968   6.208 -0.1575 -0.0989 -0.1467
  882YOPE   D2A13416  13.043   4.801   6.405  0.2820  0.0048  0.0256
  882YOPE   C3A13417  12.982   4.558   6.761  0.1366 -0.0893  0.0416
  882YOPE   C4A13418  13.167   4.135   7.007 -0.1822  0.1098  0.0436
  882YOPE   C1B13419  12.226   5.187   6.594 -0.1393 -0.1225  0.1063
  882YOPE   C2B13420  11.933   5.336   6.837 -0.0065  0.2760  0.1485
  882YOPE   D3B13421  11.678   5.152   6.951 -0.2890 -0.1506  0.1655
  882YOPE   C4B13422  11.288   5.251   7.203 -0.0809 -0.2107  0.2738
  883YOPE   NH313423   6.152   0.238   5.493 -0.0181 -0.2724 -0.2043
  883YOPE   PO413424   5.963   0.571   5.560  0.0713 -0.1199 -0.0093
  883YOPE   GL113425   5.616   0.589   5.876 -0.1034  0.0698  0.3316
  883YOPE   GL213426   5.555   0.249   5.850  0.0257  0.1923 -0.3385
  883YOPE   C1A13427   5.565   0.849   6.142 -0.0757  0.2112  0.3177
  883YOPE   D2A13428   5.409   0.786   6.618 -0.1349  0.2192  0.0838
  883YOPE   C3A13429   5.384   1.089   6.947  0.0923  0.0747  0.0489
  883YOPE   C4A13430   5.051   1.411   7.160 -0.0582  0.1735 -0.0239
  883YOPE   C1B13431   5.556   0.405   6.318  0.1840 -0.3632 -0.0558
  883YOPE   C2B13432   5.505   0.303   6.679 -0.0779  0.1018 -0.3171
  883YOPE   D3B13433   5.701   0.487   7.029 -0.0439  0.1707  0.0679
  883YOPE   C4B13434   5.790   0.468   7.458  0.0329  0.4755 -0.1283
  884YOPE   NH313435  14.321   9.718   5.549  0.1254 -0.0425 -0.1258
  884YOPE   PO413436  14.039  10.088   5.413 -0.4588 -0.0175  0.1385
  884YOPE   GL113437  14.008  10.197   5.902 -0.0608 -0.1169  0.2086
  884YOPE   GL213438  13.839   9.778   5.844  0.2534 -0.1816 -0.0030
  884YOPE   C1A13439  14.318  10.260   6.231 -0.0399 -0.1161  0.2658
  884YOPE   D2A13440  14.561  10.309   6.571 -0.1297  0.1586  0.0353
  884YOPE   C3A13441  14.700  10.179   6.976  0.1433  0.1510  0.1895
  884YOPE   C4A13442  15.060  10.099   7.259  0.1082 -0.4041 -0.2050
  884YOPE   C1B13443  13.868   9.880   6.267 -0.0187 -0.2535  0.2467
  884YOPE   C2B13444  13.831   9.815   6.631 -0.0259 -0.2070  0.1562
  884YOPE   D3B13445  13.972   9.869   6.984  0.2748 -0.0730 -0.1172
  884YOPE   C4B13446  14.254  10.022   7.372  0.1273  0.1127  0.0762
  885YOPE   NH313447   7.319   0.383   5.574 -0.0256 -0.1014  0.0471
  885YOPE   PO413448   6.869   0.320   5.583  0.2837  0.1222 -0.4154
  885YOPE   GL113449   6.992   0.470   5.973  0.0527  0.0575  0.2709
  885YOPE   GL213450   7.208   0.725   5.932  0.1827 -0.0241 -0.0406
  885YOPE   C1A13451   7.014   0.700   6.414 -0.0291  0.3408  0.0241
  885YOPE   D2A13452   7.017   0.907   6.751  0.1641 -0.0192 -0.2225
  885YOPE   C3A13453   6.989   1.236   7.103  0.1803 -0.2120  0.0907
  885YOPE   C4A13454   7.134   1.504   7.382  0.1596 -0.2426 -0.0857
  885YOPE   C1B13455   7.305   1.099   6.129  0.0905  0.3159 -0.3273
  885YOPE   C2B13456   7.271   1.272   6.536 -0.2152  0.0872  0.0509
  885YOPE   D3B13457   7.624   1.348   6.822  0.0679  0.1076  0.0899
  885YOPE   C4B13458   7.649   1.585   7.162  0.0896 -0.0740 -0.2743
  886YOPE   NH313459  14.488  13.503   5.675  0.2993  0.0991 -0.0060
  886YOPE   PO413460  14.860  13.256   5.548  0.0944 -0.1758 -0.2147
  886YOPE   GL113461  14.621  13.140   6.005 -0.0340 -0.1093 -0.1698
  886YOPE   GL213462  14.594  12.779   6.124  0.3796  0.2497  0.0448
  886YOPE   C1A13463  14.171  13.145   6.170 -0.1018  0.1509  0.0154
  886YOPE   D2A13464  13.970  13.268   6.417 -0.2739  0.2046  0.0346
  886YOPE   C3A13465  14.113  13.397   6.880 -0.1138 -0.0766  0.0610
  886YOPE   C4A13466  13.961  13.301   7.299  0.1639  0.2400 -0.0171
  886YOPE   C1B13467  14.686  12.706   6.558 -0.1164 -0.1620  0.2813
  886YOPE   C2B13468  14.648  12.614   6.911 -0.4663 -0.2106  0.2610
  886YOPE   D3B13469  14.677  12.944   7.304  0.0406  0.2591  0.5643
  886YOPE   C4B13470  14.611  12.812   7.726 -0.0044  0.0697 -0.0678
  887YOPE   NH313471   4.338  11.721   5.591  0.0683 -0.0742  0.0202
  887YOPE   PO413472   4.666  11.986   5.537  0.3017 -0.0749  0.3610
  887YOPE   GL113473   4.696  11.932   5.909  0.1807 -0.1666 -0.3407
  887YOPE   GL213474   4.923  11.958   6.020 -0.1305  0.2089  0.0016
  887YOPE   C1A13475   4.489  12.144   6.358 -0.3364  0.2415 -0.3808
  887YOPE   D2A13476   4.524  12.069   6.722 -0.1377  0.0791  0.0204
  887YOPE   C3A13477   4.164  12.065   6.948  0.2338 -0.0794 -0.1981
  887YOPE   C4A13478   3.750  11.825   7.100  0.0085 -0.0106  0.1336
  887YOPE   C1B13479   5.198  11.871   6.360  0.1698  0.1625 -0.3498
  887YOPE   C2B13480   5.349  11.668   6.759 -0.1169 -0.1306  0.3336
  887YOPE   D3B13481   5.549  11.417   7.065  0.2255  0.0578  0.1379
  887YOPE   C4B13482   5.463  10.991   7.109  0.1021 -0.1175  0.2258
  888YOPE   NH313483   0.229   3.674   5.532 -0.1850  0.3919  0.1194
  888YOPE   PO413484   0.607   3.999   5.533 -0.0162  0.0620 -0.2074
  888YOPE   GL113485   0.561   3.828   5.896  0.0332 -0.1824  0.1458
  888YOPE   GL213486   0.332   3.784   6.033 -0.0222 -0.3381 -0.1737
  888YOPE   C1A13487   0.723   3.503   6.126  0.3941  0.1310  0.2600
  888YOPE   D2A13488   0.974   3.273   6.344 -0.2958  0.0168  0.0914
  888YOPE   C3A13489   1.110   2.891   6.166 -0.0692  0.2277 -0.1732
  888YOPE   C4A13490   1.552   2.872   6.078  0.0539 -0.0325  0.3360
  888YOPE   C1B13491   0.459   3.852   6.422  0.1835  0.0208 -0.0805
  888YOPE   C2B13492   0.501   3.763   6.884 -0.0815  0.0250 -0.0261
  888YOPE   D3B13493   0.684   3.656   7.230  0.0317 -0.0404  0.0629
  888YOPE   C4B13494   0.509   3.405   7.536 -0.2264  0.1991 -0.0028
  889YOPE   NH313495  16.186   4.596   5.672  0.0633 -0.1441 -0.1895
  889YOPE   PO413496  16.037   4.924   5.933  0.1230  0.0066 -0.0231
  889YOPE   GL113497  15.806   5.270   6.320 -0.1281  0.1397 -0.2290
  889YOPE   GL213498  15.738   5.594   6.329 -0.2718 -0.0259 -0.0301
  889YOPE   C1A13499  15.955   5.345   6.772 -0.0517  0.0895  0.1163
  889YOPE   D2A13500  16.081   5.366   7.194 -0.2161  0.0195  0.0853
  889YOPE   C3A13501  16.031   5.164   7.627 -0.0485 -0.3023  0.1064
  889YOPE   C4A13502  15.909   4.838   7.866 -0.2366  0.0029 -0.1361
  889YOPE   C1B13503  15.830   5.950   6.559 -0.0876  0.0371  0.5506
  889YOPE   C2B13504  15.820   6.242   6.968  0.0158  0.0802  0.0279
  889YOPE   D3B13505  15.612   6.208   7.244 -0.1000 -0.2123  0.2444
  889YOPE   C4B13506  15.457   6.410   7.583 -0.2857 -0.1344  0.0938
  890YOPE   NH313507   2.237  17.015   5.414 -0.0537  0.0341 -0.0096
  890YOPE   PO413508   2.561  16.702   5.386  0.0142 -0.0506 -0.1084
  890YOPE   GL113509   2.599  16.399   5.727  0.1563 -0.1102 -0.0701
  890YOPE   GL213510   2.911  16.542   5.747  0.0244  0.1097 -0.2480
  890YOPE   C1A13511   2.564  16.395   6.150 -0.0164  0.1284 -0.1169
  890YOPE   D2A13512   2.554  16.396   6.620  0.1330  0.3359 -0.1621
  890YOPE   C3A13513   2.464  15.964   6.951  0.0065 -0.2434  0.3707
  890YOPE   C4A13514   2.727  15.599   7.275 -0.1627 -0.1488  0.1791
  890YOPE   C1B13515   3.061  16.476   6.164 -0.2502 -0.0260  0.1992
  890YOPE   C2B13516   3.062  16.384   6.557 -0.1178 -0.1384 -0.0722
  890YOPE   D3B13517   3.176  16.329   6.900 -0.1676 -0.3316  0.2207
  890YOPE   C4B13518   3.453  16.198   7.296 -0.1590 -0.0779  0.0713
  891YOPE   NH313519  15.628   6.528   5.978  0.3334 -0.1723 -0.5293
  891YOPE   PO413520  16.100   6.421   5.737 -0.1700  0.0243  0.0190
  891YOPE   GL113521  16.127   6.552   6.144 -0.0632 -0.0355  0.3265
  891YOPE   GL213522  15.872   6.936   6.260 -0.1721  0.2791 -0.1334
  891YOPE   C1A13523  15.943   6.527   6.557  0.0380 -0.2226 -0.1390
  891YOPE   D2A13524  15.977   6.768   6.832 -0.1114  0.1187 -0.1313
  891YOPE   C3A13525  15.841   6.626   7.256  0.0604 -0.1938 -0.1197
  891YOPE   C4A13526  15.936   6.592   7.686 -0.0171  0.0504  0.2930
  891YOPE   C1B13527  16.240   6.895   6.436 -0.0092  0.0317 -0.2054
  891YOPE   C2B13528  16.445   6.820   6.719  0.0668  0.1140  0.2026
  891YOPE   D3B13529  16.722   6.921   7.072 -0.2726  0.0434 -0.3174
  891YOPE   C4B13530  16.884   7.326   7.315 -0.0127 -0.0602 -0.0495
  892YOPE   NH313531  17.455  10.045   5.458 -0.0111 -0.0208 -0.1515
  892YOPE   PO413532  17.493   9.588   5.438  0.2409 -0.0535 -0.1109
  892YOPE   GL113533  17.521   9.351   5.842 -0.2258 -0.1675 -0.1441
  892YOPE   GL213534  17.292   9.168   6.089 -0.2716 -0.1726 -0.1517
  892YOPE   C1A13535  17.520   9.659   6.213 -0.1119  0.0213 -0.3002
  892YOPE   D2A13536  17.533  10.055   6.436 -0.2035 -0.2864  0.0975
  892YOPE   C3A13537  17.521  10.063   6.894  0.1157 -0.0646  0.1387
  892YOPE   C4A13538  17.751  10.432   7.160 -0.1047 -0.2176 -0.1947
  892YOPE   C1B13539  17.348   9.206   6.641 -0.4341 -0.0463 -0.0650
  892YOPE   C2B13540  17.269   9.183   7.042  0.1600 -0.0377 -0.0157
  892YOPE   D3B13541  17.520   9.005   7.365  0.0524 -0.1326 -0.1507
  892YOPE   C4B13542  17.533   8.769   7.806 -0.0775 -0.1176  0.1413
  893YOPE   NH313543  11.449  15.897   5.065 -0.0604  0.2271 -0.1649
  893YOPE   PO413544  11.793  16.059   4.851  0.1934  0.1478 -0.0907
  893YOPE   GL113545  11.851  16.121   5.294  0.2819  0.1020  0.2443
  893YOPE   GL213546  12.048  15.985   5.437 -0.0399  0.0300 -0.0267
  893YOPE   C1A13547  11.616  16.038   5.659 -0.0335 -0.0442  0.0859
  893YOPE   D2A13548  11.597  15.786   6.003  0.2181 -0.1893 -0.1370
  893YOPE   C3A13549  11.630  15.922   6.375  0.3085 -0.0187  0.0457
  893YOPE   C4A13550  11.843  15.943   6.786  0.2596 -0.1595  0.0444
  893YOPE   C1B13551  12.003  15.686   5.706 -0.1550  0.0620 -0.0207
  893YOPE   C2B13552  11.978  15.469   6.159 -0.1485 -0.1047 -0.2574
  893YOPE   D3B13553  12.064  15.542   6.596 -0.0721 -0.0851  0.0360
  893YOPE   C4B13554  12.225  15.410   6.940  0.1455  0.1435 -0.0562
  894YOPE   NH313555   6.772  18.699   5.469 -0.2814  0.1043 -0.0943
  894YOPE   PO413556   6.888  18.216   5.338 -0.1373 -0.4585  0.1314
  894YOPE   GL113557   7.064  18.140   5.829 -0.2402  0.0323 -0.0928
  894YOPE   GL213558   6.896  18.372   5.880  0.1347 -0.2996  0.2222
  894YOPE   C1A13559   7.070  18.138   6.240  0.1168  0.0900 -0.1092
  894YOPE   D2A13560   7.120  18.170   6.634 -0.0056 -0.2434 -0.3339
  894YOPE   C3A13561   7.367  17.852   6.932  0.0179  0.0207 -0.1605
  894YOPE   C4A13562   7.588  17.444   7.110  0.0847  0.0215 -0.0364
  894YOPE   C1B13563   6.622  18.456   6.219 -0.0206  0.0981 -0.0314
  894YOPE   C2B13564   6.674  18.385   6.564  0.1008 -0.0727 -0.1597
  894YOPE   D3B13565   6.743  18.245   6.985 -0.2089  0.2380  0.1764
  894YOPE   C4B13566   7.218  18.289   7.088 -0.0241 -0.1368 -0.3202
  895YOPE   NH313567   5.382  10.491   4.872 -0.1025  0.4391  0.1552
  895YOPE   PO413568   5.445  10.148   5.177  0.2783 -0.0691 -0.0240
  895YOPE   GL113569   5.274  10.160   5.618 -0.0575  0.0640  0.4181
  895YOPE   GL213570   4.958  10.325   5.759  0.0045 -0.2627  0.0432
  895YOPE   C1A13571   5.295  10.252   6.127 -0.0011  0.1643  0.3276
  895YOPE   D2A13572   5.226  10.196   6.543 -0.0583  0.0250 -0.1665
  895YOPE   C3A13573   5.109   9.978   6.953 -0.0235 -0.1561  0.1352
  895YOPE   C4A13574   5.408   9.937   7.256 -0.0146 -0.4508  0.2569
  895YOPE   C1B13575   4.860   9.974   6.089 -0.0192 -0.1912 -0.1178
  895YOPE   C2B13576   4.773   9.825   6.536 -0.0324  0.0012 -0.0350
  895YOPE   D3B13577   4.994   9.542   6.822 -0.1177 -0.2258  0.2003
  895YOPE   C4B13578   5.320   9.402   7.100 -0.0777  0.0198  0.0160
  896YOPE   NH313579  14.815   2.120   5.866 -0.0615 -0.2502 -0.2214
  896YOPE   PO413580  14.711   2.571   5.635 -0.0138 -0.1592 -0.2439
  896YOPE   GL113581  14.772   2.804   5.901  0.0781  0.3437 -0.3584
  896YOPE   GL213582  14.651   2.595   6.162  0.3290 -0.0261  0.3915
  896YOPE   C1A13583  14.770   3.049   6.379  0.2795  0.1084  0.2084
  896YOPE   D2A13584  14.517   3.095   6.702  0.0140 -0.1371 -0.1958
  896YOPE   C3A13585  14.614   2.972   7.160  0.0447  0.1708 -0.4207
  896YOPE   C4A13586  14.411   2.744   7.457  0.0667  0.1354  0.1311
  896YOPE   C1B13587  14.477   2.625   6.536 -0.3759  0.2190  0.0592
  896YOPE   C2B13588  14.475   2.633   6.891 -0.1652  0.1126 -0.2236
  896YOPE   D3B13589  14.271   2.313   7.163  0.2353 -0.0721  0.1729
  896YOPE   C4B13590  14.132   2.083   7.564 -0.0317 -0.0587  0.4494
  897YOPE   NH313591   4.975   6.201   5.719  0.1505  0.0126  0.2077
  897YOPE   PO413592   5.192   5.873   5.463 -0.1946  0.2399 -0.0263
  897YOPE   GL113593   5.120   5.725   5.874  0.2362 -0.1164 -0.0219
  897YOPE   GL213594   5.316   5.855   6.033 -0.2866  0.0179  0.1088
  897YOPE   C1A13595   4.916   5.543   6.248  0.2580  0.1944 -0.1008
  897YOPE   D2A13596   5.118   5.378   6.595  0.2701 -0.0016  0.0523
  897YOPE   C3A13597   5.063   5.216   6.868  0.1183 -0.2291  0.0391
  897YOPE   C4A13598   4.768   4.938   7.069  0.0109  0.1459 -0.3950
  897YOPE   C1B13599   5.180   5.887   6.395  0.2386 -0.2646 -0.0288
  897YOPE   C2B13600   5.270   5.743   6.828 -0.0500  0.0961 -0.1875
  897YOPE   D3B13601   5.412   5.539   7.161 -0.0310 -0.0851  0.1863
  897YOPE   C4B13602   5.244   5.315   7.505  0.1462 -0.0910  0.1103
  898YOPE   NH313603  14.142  15.858   5.418  0.0413  0.0156 -0.0740
  898YOPE   PO413604  14.059  15.547   5.712 -0.3867  0.0784 -0.0971
  898YOPE   GL113605  13.804  15.184   5.811  0.1345  0.0550  0.0580
  898YOPE   GL213606  13.937  15.002   6.103 -0.3677  0.0433 -0.0271
  898YOPE   C1A13607  13.460  15.084   6.147  0.1176  0.2265  0.0352
  898YOPE   D2A13608  13.149  14.862   6.339  0.0178 -0.2242 -0.1015
  898YOPE   C3A13609  13.178  15.071   6.707  0.0387  0.0661 -0.0940
  898YOPE   C4A13610  13.125  15.231   7.165  0.1990  0.2464  0.2052
  898YOPE   C1B13611  14.133  14.970   6.409  0.1118  0.0648 -0.0024
  898YOPE   C2B13612  14.396  14.991   6.803 -0.0259  0.0144 -0.0735
  898YOPE   D3B13613  14.727  15.262   6.914  0.0001  0.1004  0.0524
  898YOPE   C4B13614  14.928  15.183   7.272  0.0065  0.0419  0.0698
  899YOPE   NH313615   4.992  13.015   5.412  0.0126  0.0532 -0.1827
  899YOPE   PO413616   4.896  12.657   5.597  0.0561 -0.0592  0.0789
  899YOPE   GL113617   4.813  12.986   5.964 -0.0183 -0.3747 -0.3509
  899YOPE   GL213618   5.021  13.188   6.033 -0.2001  0.0782 -0.0456
  899YOPE   C1A13619   4.697  13.015   6.407  0.0479  0.3658  0.2730
  899YOPE   D2A13620   4.590  12.938   6.753  0.2366 -0.1562 -0.0396
  899YOPE   C3A13621   4.826  13.009   7.073  0.1454 -0.2470  0.2306
  899YOPE   C4A13622   5.050  13.092   7.339  0.1962 -0.2533 -0.2079
  899YOPE   C1B13623   5.114  13.228   6.438  0.0686  0.4105  0.0283
  899YOPE   C2B13624   5.178  13.276   6.905  0.1811 -0.1943 -0.0629
  899YOPE   D3B13625   5.324  13.560   7.132  0.1344  0.4260  0.0301
  899YOPE   C4B13626   5.280  13.595   7.550 -0.0622 -0.2231 -0.4167
  900YOPE   NH313627  12.705   7.142   5.605 -0.1152  0.2741 -0.1635
  900YOPE   PO413628  12.960   6.719   5.591 -0.1087 -0.2899 -0.1434
  900YOPE   GL113629  12.823   6.855   6.027 -0.2044  0.0768 -0.0317
  900YOPE   GL213630  12.523   6.978   6.061 -0.1666  0.3709 -0.0775
  900YOPE   C1A13631  12.951   7.167   6.316  0.0929  0.1045  0.2052
  900YOPE   D2A13632  13.158   7.396   6.576 -0.1851  0.0343 -0.0402
  900YOPE   C3A13633  13.056   7.375   6.999 -0.0577  0.2417  0.1594
  900YOPE   C4A13634  12.921   7.305   7.373  0.0788 -0.3729  0.2217
  900YOPE   C1B13635  12.497   7.015   6.428 -0.2145  0.4506  0.1212
  900YOPE   C2B13636  12.669   7.050   6.738  0.1891  0.1016 -0.1246
  900YOPE   D3B13637  12.911   6.897   7.076  0.2702  0.2201 -0.2177
  900YOPE   C4B13638  13.144   6.724   7.437  0.2642  0.1311  0.1132
  901YOPE   NH313639  15.275  13.706   5.523  0.3617  0.0619 -0.2097
  901YOPE   PO413640  15.223  14.093   5.509 -0.0877  0.1932  0.2251
  901YOPE   GL113641  15.099  14.035   5.879  0.0907  0.0676 -0.1130
  901YOPE   GL213642  15.284  13.713   6.029  0.0638  0.0157  0.0330
  901YOPE   C1A13643  14.705  14.031   6.047  0.0007  0.1168 -0.1671
  901YOPE   D2A13644  14.390  13.621   6.160  0.1079  0.1435  0.2523
  901YOPE   C3A13645  14.449  13.385   6.496 -0.2339  0.1098 -0.1101
  901YOPE   C4A13646  14.465  13.063   6.809 -0.0558 -0.1064  0.1149
  901YOPE   C1B13647  14.947  13.645   6.240  0.0045  0.0572 -0.2002
  901YOPE   C2B13648  14.706  13.836   6.549  0.1467  0.1059 -0.0368
  901YOPE   D3B13649  14.539  13.635   6.974 -0.0126 -0.0938 -0.3821
  901YOPE   C4B13650  14.426  13.381   7.293 -0.0506 -0.1381 -0.2609
  902YOPE   NH313651   7.946  16.894   5.561 -0.0138  0.0393  0.2169
  902YOPE   PO413652   7.531  16.749   5.392 -0.0869 -0.0510  0.0004
  902YOPE   GL113653   7.473  16.861   5.812 -0.0455 -0.2408  0.0875
  902YOPE   GL213654   7.273  17.225   5.919 -0.0535  0.1921  0.2507
  902YOPE   C1A13655   7.583  16.561   6.130  0.0382  0.1823  0.0540
  902YOPE   D2A13656   7.606  16.354   6.453  0.0514  0.3808 -0.2346
  902YOPE   C3A13657   7.735  16.422   6.896  0.3130  0.1834 -0.2107
  902YOPE   C4A13658   7.644  16.531   7.304  0.3052  0.2314 -0.0208
  902YOPE   C1B13659   7.340  17.194   6.304  0.0445  0.1752 -0.0157
  902YOPE   C2B13660   7.280  17.349   6.644 -0.0398 -0.2170 -0.4098
  902YOPE   D3B13661   7.095  17.318   6.945  0.1823  0.1366  0.0265
  902YOPE   C4B13662   6.703  17.494   7.202  0.0114  0.1959 -0.0491
  903YOPE   NH313663   2.331  14.523   5.521  0.0137  0.1706 -0.1561
  903YOPE   PO413664   2.812  14.430   5.636  0.1065 -0.0342 -0.1234
  903YOPE   GL113665   3.075  14.494   6.000 -0.1039 -0.1685  0.0738
  903YOPE   GL213666   3.343  14.300   6.209  0.0860  0.2698  0.0414
  903YOPE   C1A13667   2.817  14.560   6.459 -0.3831 -0.3497 -0.0894
  903YOPE   D2A13668   2.496  14.466   6.763 -0.1761 -0.0102  0.2562
  903YOPE   C3A13669   2.236  14.674   7.061  0.3447 -0.2159  0.1347
  903YOPE   C4A13670   2.068  14.472   7.310  0.1404  0.3248  0.4111
  903YOPE   C1B13671   3.332  14.284   6.691 -0.1447  0.1237  0.0095
  903YOPE   C2B13672   3.438  14.217   7.183 -0.1120 -0.2183  0.1918
  903YOPE   D3B13673   3.545  14.194   7.613  0.0908  0.0047  0.0635
  903YOPE   C4B13674   3.777  14.292   8.000 -0.1459  0.6196  0.0770
  904YOPE   NH313675   0.797  15.813   5.085 -0.0697  0.3790 -0.0920
  904YOPE   PO413676   1.203  15.430   5.128  0.2445  0.1527  0.0567
  904YOPE   GL113677   1.113  15.410   5.518  0.0839 -0.0463  0.2337
  904YOPE   GL213678   0.802  15.485   5.496 -0.1768  0.0103  0.0249
  904YOPE   C1A13679   1.175  15.761   5.739  0.0400  0.1142 -0.1649
  904YOPE   D2A13680   0.937  16.129   5.956  0.1899  0.0882  0.2702
  904YOPE   C3A13681   1.099  16.504   5.804  0.1465  0.0884  0.1808
  904YOPE   C4A13682   1.522  16.516   6.017  0.2340  0.0541 -0.1124
  904YOPE   C1B13683   0.694  15.724   5.835 -0.1864 -0.2877 -0.0671
  904YOPE   C2B13684   0.819  15.669   6.270  0.0569 -0.0636 -0.1436
  904YOPE   D3B13685   0.698  15.534   6.596  0.0703  0.3361 -0.2311
  904YOPE   C4B13686   0.902  15.347   6.897  0.2831  0.0312 -0.1360
  905YOPE   NH313687   1.438  14.846   5.239 -0.1219  0.2099  0.0295
  905YOPE   PO413688   1.890  14.980   5.358 -0.2498 -0.0449  0.1987
  905YOPE   GL113689   1.855  14.917   5.867  0.2785 -0.2201 -0.0981
  905YOPE   GL213690   2.033  14.648   5.978  0.2055 -0.4289  0.1696
  905YOPE   C1A13691   1.612  15.005   6.305 -0.1524 -0.1401  0.1588
  905YOPE   D2A13692   1.614  15.315   6.614  0.2060  0.4037 -0.0290
  905YOPE   C3A13693   1.413  15.288   6.967 -0.1688 -0.1423 -0.1898
  905YOPE   C4A13694   1.293  15.609   7.171 -0.3290  0.1493  0.2349
  905YOPE   C1B13695   1.694  14.556   6.294 -0.1487  0.2063 -0.1919
  905YOPE   C2B13696   1.431  14.380   6.540 -0.0208 -0.0531  0.0731
  905YOPE   D3B13697   1.205  14.418   6.999  0.0575  0.1814 -0.5153
  905YOPE   C4B13698   1.041  14.297   7.371  0.2407  0.0000  0.1553
  906YOPE   NH313699   8.916  10.450   5.664  0.0909 -0.0182 -0.0487
  906YOPE   PO413700   9.364  10.495   5.799 -0.0255  0.2368  0.1419
  906YOPE   GL113701   9.337  10.503   6.178 -0.0952  0.4022  0.1640
  906YOPE   GL213702   9.006  10.463   6.227  0.3548  0.1303  0.0788
  906YOPE   C1A13703   9.558  10.557   6.561  0.2759  0.0169  0.2064
  906YOPE   D2A13704   9.604  10.437   6.997 -0.0879  0.3165  0.0674
  906YOPE   C3A13705   9.335  10.104   7.204 -0.3351  0.0251  0.0426
  906YOPE   C4A13706   8.949   9.861   7.393 -0.2537  0.0693  0.2535
  906YOPE   C1B13707   9.066  10.632   6.618 -0.0044 -0.1587  0.0858
  906YOPE   C2B13708   9.000  10.675   7.028 -0.1753 -0.1663 -0.4147
  906YOPE   D3B13709   8.968  10.538   7.360 -0.1040  0.1101 -0.2000
  906YOPE   C4B13710   8.956  10.249   7.628 -0.1425  0.1229 -0.3465
  907YOPE   NH313711  15.122   5.016   5.525  0.0023 -0.0505 -0.1403
  907YOPE   PO413712  15.008   4.695   5.747 -0.1000 -0.0317 -0.1303
  907YOPE   GL113713  15.192   4.863   6.174 -0.1039 -0.0391  0.3013
  907YOPE   GL213714  15.485   4.917   6.201  0.2189 -0.0471 -0.3166
  907YOPE   C1A13715  15.067   5.166   6.499  0.0791 -0.1243 -0.1462
  907YOPE   D2A13716  15.077   5.251   6.922 -0.2236 -0.0069  0.0378
  907YOPE   C3A13717  15.194   4.898   7.136  0.0488  0.4474 -0.1530
  907YOPE   C4A13718  15.042   4.783   7.565  0.4268 -0.1459  0.3264
  907YOPE   C1B13719  15.589   4.542   6.412 -0.2023 -0.4287 -0.0237
  907YOPE   C2B13720  15.662   4.526   6.925  0.0544  0.2915 -0.0331
  907YOPE   D3B13721  15.690   4.964   7.115  0.3027 -0.0953  0.2551
  907YOPE   C4B13722  15.558   5.298   7.102 -0.1017 -0.0107 -0.0284
  908YOPE   NH313723   0.070  10.476   5.547  0.0938  0.2902 -0.1345
  908YOPE   PO413724   0.373  10.567   5.696 -0.1880 -0.1896 -0.0227
  908YOPE   GL113725   0.402  10.745   6.075  0.2183  0.1376  0.2242
  908YOPE   GL213726   0.542  10.529   6.266 -0.2817 -0.0274 -0.2563
  908YOPE   C1A13727   0.224  10.807   6.569 -0.1402  0.2870  0.0852
  908YOPE   D2A13728   0.239  10.623   6.935 -0.0233  0.0105  0.0423
  908YOPE   C3A13729   0.395  11.023   7.136 -0.0865  0.1541  0.0075
  908YOPE   C4A13730   0.507  11.254   7.475  0.2484  0.0950 -0.1326
  908YOPE   C1B13731   0.542  10.407   6.660 -0.2341  0.2270  0.0184
  908YOPE   C2B13732   0.782  10.670   7.036  0.1325  0.0655  0.0163
  908YOPE   D3B13733   0.776  10.827   7.454  0.4880 -0.1690  0.0220
  908YOPE   C4B13734   0.607  10.912   7.876  0.1188 -0.1622  0.1183
  909YOPE   NH313735  11.125  14.760   4.840 -0.1411  0.1351 -0.2149
  909YOPE   PO413736  11.490  14.509   5.014 -0.0830  0.2717  0.1213
  909YOPE   GL113737  11.329  14.877   5.312 -0.5346  0.0730  0.0601
  909YOPE   GL213738  11.478  15.074   5.481  0.1487  0.3672 -0.0178
  909YOPE   C1A13739  11.073  14.959   5.719 -0.0065  0.5096 -0.0139
  909YOPE   D2A13740  11.129  14.980   6.148 -0.0210 -0.0221 -0.1723
  909YOPE   C3A13741  11.414  14.924   6.325  0.0799 -0.0547  0.0375
  909YOPE   C4A13742  11.500  14.695   6.522  0.0853  0.2492 -0.0450
  909YOPE   C1B13743  11.311  15.364   5.701  0.0152 -0.1772 -0.1576
  909YOPE   C2B13744  11.459  15.344   5.983  0.1291 -0.2608  0.0799
  909YOPE   D3B13745  11.527  15.448   6.365  0.2641  0.0023 -0.0489
  909YOPE   C4B13746  11.488  15.600   6.685  0.3142  0.0568 -0.0111
  910YOPE   NH313747   0.160   4.669   5.414  0.1831  0.3445  0.2881
  910YOPE   PO413748   0.412   4.982   5.634  0.2182 -0.2682  0.1581
  910YOPE   GL113749   0.621   4.858   6.029  0.3203  0.0591 -0.1045
  910YOPE   GL213750   0.910   4.626   5.912 -0.0125  0.0704  0.2041
  910YOPE   C1A13751   0.790   4.854   6.387  0.1926  0.1756  0.0599
  910YOPE   D2A13752   0.993   4.657   6.751 -0.1755 -0.0961  0.0034
  910YOPE   C3A13753   0.664   4.603   7.097 -0.8343 -0.2374 -0.1794
  910YOPE   C4A13754   0.635   4.474   7.537  0.1972 -0.0236 -0.0080
  910YOPE   C1B13755   1.127   4.505   6.300  0.0438  0.0744  0.1772
  910YOPE   C2B13756   1.290   4.259   6.636  0.0580  0.1346 -0.2286
  910YOPE   D3B13757   1.347   4.142   7.021  0.3357 -0.1158  0.0599
  910YOPE   C4B13758   1.629   4.140   7.244 -0.0125  0.3072  0.2353
  911YOPE   NH313759   5.116   3.965   5.662 -0.1401  0.0772 -0.0174
  911YOPE   PO413760   4.688   3.919   5.819 -0.2362  0.1620  0.0544
  911YOPE   GL113761   4.613   4.020   6.175 -0.1908 -0.0878 -0.0145
  911YOPE   GL213762   4.320   3.733   6.189 -0.2186  0.2388  0.0242
  911YOPE   C1A13763   4.707   4.032   6.564  0.2482  0.1520 -0.3799
  911YOPE   D2A13764   4.490   3.974   7.019  0.3652  0.4501  0.1570
  911YOPE   C3A13765   4.077   4.023   7.061  0.3892 -0.3580 -0.1211
  911YOPE   C4A13766   3.853   4.312   7.415 -0.1979 -0.0532  0.1586
  911YOPE   C1B13767   4.266   3.299   6.251  0.0040  0.0778  0.0438
  911YOPE   C2B13768   4.343   3.094   6.615 -0.0071  0.1758  0.1002
  911YOPE   D3B13769   4.516   3.053   7.083  0.0498 -0.1820  0.2155
  911YOPE   C4B13770   4.339   2.946   7.435  0.2929  0.1802  0.0291
  912YOPE   NH313771   7.070   1.989   5.704  0.1231 -0.2423 -0.2617
  912YOPE   PO413772   7.245   2.311   5.431  0.1208 -0.2049  0.4452
  912YOPE   GL113773   7.053   2.513   5.861 -0.0038  0.2605  0.0589
  912YOPE   GL213774   6.762   2.323   6.003 -0.2539  0.1821  0.0564
  912YOPE   C1A13775   6.940   2.787   6.175 -0.1672 -0.2758  0.0018
  912YOPE   D2A13776   7.187   3.107   6.516  0.0979 -0.2909  0.1959
  912YOPE   C3A13777   7.032   3.150   6.912 -0.0263  0.0736 -0.1154
  912YOPE   C4A13778   6.803   2.941   7.235  0.1603 -0.1311 -0.1925
  912YOPE   C1B13779   7.193   2.314   6.266  0.1228  0.1075  0.0006
  912YOPE   C2B13780   7.437   2.233   6.503 -0.0180  0.1016  0.2595
  912YOPE   D3B13781   7.731   2.321   6.868 -0.2485  0.0087 -0.1626
  912YOPE   C4B13782   7.948   1.997   7.201  0.1128 -0.1090 -0.1228
  913YOPE   NH313783  13.858  11.780   5.879  0.1443 -0.1226  0.1093
  913YOPE   PO413784  13.746  12.242   5.966 -0.0382 -0.0756  0.1251
  913YOPE   GL113785  14.067  12.260   6.282  0.0382  0.0348 -0.1735
  913YOPE   GL213786  14.405  12.316   6.215 -0.0494 -0.0025  0.1162
  913YOPE   C1A13787  14.362  12.216   6.718  0.1328 -0.1995  0.1571
  913YOPE   D2A13788  14.409  12.194   7.087 -0.0032 -0.0696 -0.0648
  913YOPE   C3A13789  14.587  11.939   7.256  0.3220  0.1902  0.1959
  913YOPE   C4A13790  14.762  11.789   7.636  0.1226  0.0710  0.0298
  913YOPE   C1B13791  14.781  12.205   6.427 -0.0872 -0.2648  0.1973
  913YOPE   C2B13792  14.879  12.168   6.842 -0.1273 -0.0598  0.2611
  913YOPE   D3B13793  14.902  12.253   7.310  0.1489 -0.0330  0.0079
  913YOPE   C4B13794  14.814  12.266   7.760  0.1692  0.1734  0.0020
  914YOPE   NH313795  15.182  10.667   5.523  0.0045 -0.2581 -0.0465
  914YOPE   PO413796  15.382  10.238   5.479 -0.0318  0.0752 -0.3193
  914YOPE   GL113797  15.422   9.973   5.850  0.1587  0.0876  0.0935
  914YOPE   GL213798  15.789   9.949   5.848 -0.0635 -0.4041 -0.1464
  914YOPE   C1A13799  15.227   9.589   5.983  0.0884 -0.0550  0.1059
  914YOPE   D2A13800  15.007   9.229   5.980  0.4014  0.0860  0.0017
  914YOPE   C3A13801  14.891   8.985   6.388 -0.0595  0.0222 -0.1813
  914YOPE   C4A13802  14.935   8.880   6.925 -0.0038 -0.1528  0.0141
  914YOPE   C1B13803  15.664   9.707   6.214  0.1147  0.0375 -0.0601
  914YOPE   C2B13804  15.372   9.685   6.554 -0.0818  0.0883 -0.0947
  914YOPE   D3B13805  14.946   9.527   6.441 -0.0896  0.0416  0.0171
  914YOPE   C4B13806  14.851   9.324   6.776 -0.1175  0.1612 -0.0029
  915YOPE   NH313807  12.069   0.139   5.682 -0.0920  0.2652 -0.2415
  915YOPE   PO413808  12.214  -0.285   5.664  0.0228  0.2900 -0.0471
  915YOPE   GL113809  12.078  -0.487   5.994  0.3641  0.0392  0.3827
  915YOPE   GL213810  12.316  -0.759   6.156  0.0211 -0.2638 -0.0065
  915YOPE   C1A13811  11.981  -0.388   6.401  0.1373  0.3051 -0.4315
  915YOPE   D2A13812  11.977  -0.187   6.674 -0.1629  0.0743  0.1392
  915YOPE   C3A13813  12.244  -0.201   7.098  0.0768  0.0077  0.2826
  915YOPE   C4A13814  12.639   0.037   7.013 -0.1035 -0.0806 -0.0760
  915YOPE   C1B13815  12.341  -0.857   6.560  0.1474  0.0288  0.2553
  915YOPE   C2B13816  12.124  -0.601   6.853 -0.1737  0.0533  0.0892
  915YOPE   D3B13817  11.896  -0.794   7.312  0.0135 -0.2334 -0.1175
  915YOPE   C4B13818  11.834  -0.961   7.760  0.0947  0.2299 -0.0716
  916YOPE   NH313819   4.635   1.820   5.183 -0.1031  0.1427  0.2202
  916YOPE   PO413820   4.437   1.655   5.547  0.2248 -0.0129 -0.4954
  916YOPE   GL113821   4.168   1.290   5.804  0.2176 -0.0515  0.1102
  916YOPE   GL213822   4.328   1.052   5.849 -0.0903  0.4166  0.2400
  916YOPE   C1A13823   4.102   1.171   6.286 -0.2320 -0.0620  0.3213
  916YOPE   D2A13824   4.027   1.090   6.758 -0.2319  0.3055  0.1872
  916YOPE   C3A13825   4.375   0.853   6.942 -0.2771 -0.0800  0.0817
  916YOPE   C4A13826   4.495   0.525   6.999 -0.1349  0.0972 -0.1363
  916YOPE   C1B13827   3.982   0.756   6.040  0.1511 -0.1303 -0.2305
  916YOPE   C2B13828   3.848   0.717   6.492 -0.0130  0.0817  0.1242
  916YOPE   D3B13829   3.860   0.648   6.992 -0.5923 -0.1496  0.2283
  916YOPE   C4B13830   4.043   0.797   7.469 -0.2041 -0.1243  0.4838
  917YOPE   NH313831   4.136  10.061   5.459 -0.2306  0.1736  0.1124
  917YOPE   PO413832   4.413  10.445   5.485 -0.0042  0.0918  0.2162
  917YOPE   GL113833   4.489  10.634   5.884 -0.0827  0.2611  0.0077
  917YOPE   GL213834   4.647  10.936   5.931 -0.1990  0.1335  0.1106
  917YOPE   C1A13835   4.365  10.615   6.194 -0.0231 -0.3258 -0.0004
  917YOPE   D2A13836   4.330  10.526   6.629 -0.0522 -0.1233 -0.4053
  917YOPE   C3A13837   4.593  10.831   6.926  0.0094 -0.0686 -0.2953
  917YOPE   C4A13838   4.784  10.919   7.340 -0.1617  0.0088 -0.1486
  917YOPE   C1B13839   4.637  11.036   6.339  0.2604 -0.3749 -0.4882
  917YOPE   C2B13840   4.728  11.248   6.659 -0.1873 -0.0050  0.3470
  917YOPE   D3B13841   5.023  11.301   7.055  0.1261  0.0114 -0.0147
  917YOPE   C4B13842   5.170  11.227   7.486 -0.0639 -0.0970 -0.1767
  918YOPE   NH313843   5.300  16.826   4.886  0.0026 -0.0605 -0.1614
  918YOPE   PO413844   5.307  16.585   5.230  0.3343 -0.0985  0.0446
  918YOPE   GL113845   5.417  16.808   5.651  0.0151  0.1446 -0.3340
  918YOPE   GL213846   5.222  16.665   5.797 -0.0227  0.0868 -0.0866
  918YOPE   C1A13847   5.432  16.979   6.130 -0.1434 -0.1609 -0.4346
  918YOPE   D2A13848   5.362  17.082   6.570 -0.0776 -0.1657  0.2063
  918YOPE   C3A13849   5.663  17.162   6.964 -0.2281 -0.1345 -0.2305
  918YOPE   C4A13850   5.663  17.119   7.414  0.0196  0.1006 -0.0646
  918YOPE   C1B13851   5.210  16.558   6.262 -0.0554 -0.0222  0.0343
  918YOPE   C2B13852   5.074  16.500   6.783  0.2182  0.3777  0.1279
  918YOPE   D3B13853   4.828  16.667   7.081  0.1910 -0.0883  0.0598
  918YOPE   C4B13854   4.575  17.110   7.217 -0.0129 -0.0466 -0.1266
  919YOPE   NH313855  10.714  17.041   5.547  0.1291  0.2390  0.1011
  919YOPE   PO413856  11.156  17.124   5.540  0.2896  0.3056 -0.4351
  919YOPE   GL113857  11.090  17.257   5.977 -0.2687 -0.0634  0.0799
  919YOPE   GL213858  10.794  17.178   6.042 -0.2518  0.0416 -0.1497
  919YOPE   C1A13859  11.310  17.446   6.300 -0.0493  0.3681 -0.0373
  919YOPE   D2A13860  11.501  17.283   6.616  0.0169  0.2329 -0.3383
  919YOPE   C3A13861  11.615  16.875   6.639  0.1141 -0.1644  0.1751
  919YOPE   C4A13862  11.648  16.404   6.413  0.5221 -0.1349 -0.1057
  919YOPE   C1B13863  10.963  17.108   6.447  0.2661 -0.2456  0.1108
  919YOPE   C2B13864  11.076  17.048   6.784  0.0692 -0.0408  0.0508
  919YOPE   D3B13865  11.200  16.716   7.026 -0.1414  0.1258 -0.1803
  919YOPE   C4B13866  11.121  16.771   7.499 -0.2641  0.1227 -0.0675
  920YOPE   NH313867   6.717   8.500   5.596  0.0600 -0.1033 -0.4423
  920YOPE   PO413868   6.859   8.901   5.729  0.0740 -0.0604  0.1289
  920YOPE   GL113869   6.703   8.965   6.080 -0.1915 -0.1367 -0.1372
  920YOPE   GL213870   6.681   8.618   6.153 -0.0179 -0.0071 -0.0781
  920YOPE   C1A13871   6.749   9.045   6.454 -0.3495 -0.0870  0.1969
  920YOPE   D2A13872   6.748   9.070   6.871 -0.1410 -0.0103  0.0869
  920YOPE   C3A13873   6.321   9.255   7.165 -0.0453 -0.4532  0.0996
  920YOPE   C4A13874   6.284   9.700   7.376  0.3083 -0.1737 -0.0729
  920YOPE   C1B13875   6.582   8.599   6.562  0.0501  0.2718  0.2174
  920YOPE   C2B13876   6.533   8.685   7.035  0.2021 -0.0257  0.2206
  920YOPE   D3B13877   6.133   8.861   7.361 -0.2921  0.1832  0.0490
  920YOPE   C4B13878   5.994   9.322   7.510  0.2650  0.0107 -0.0640
  921YOPE   NH313879  11.622  17.270   5.376 -0.0512 -0.0056  0.0402
  921YOPE   PO413880  12.097  17.398   5.314 -0.5174 -0.0937 -0.1164
  921YOPE   GL113881  12.139  17.282   5.681  0.0051 -0.0349  0.1875
  921YOPE   GL213882  12.280  17.522   5.929 -0.1676 -0.1911  0.1517
  921YOPE   C1A13883  11.974  16.858   5.946 -0.0044 -0.2261  0.1985
  921YOPE   D2A13884  12.007  16.682   6.306  0.2328  0.1400  0.1034
  921YOPE   C3A13885  12.052  16.597   6.689  0.2578 -0.1673 -0.1299
  921YOPE   C4A13886  12.209  16.305   7.032 -0.0524  0.1990  0.2621
  921YOPE   C1B13887  12.384  17.540   6.353  0.1264  0.2890 -0.1931
  921YOPE   C2B13888  12.387  17.489   6.788 -0.1842 -0.2704  0.0768
  921YOPE   D3B13889  12.414  17.320   7.154  0.0341 -0.1009 -0.2729
  921YOPE   C4B13890  12.492  17.165   7.501  0.1838 -0.1991 -0.1156
  922YOPE   NH313891  13.385   8.484   5.248 -0.1119  0.1336 -0.2418
  922YOPE   PO413892  13.382   8.165   5.536  0.2300 -0.0028 -0.0398
  922YOPE   GL113893  13.415   8.412   5.871 -0.1131  0.2014 -0.1994
  922YOPE   GL213894  13.316   8.761   5.883  0.0166  0.0644  0.0193
  922YOPE   C1A13895  13.622   8.560   6.320  0.1205 -0.0759  0.3642
  922YOPE   D2A13896  13.612   8.506   6.831 -0.1699 -0.1504  0.1431
  922YOPE   C3A13897  13.920   8.499   7.125 -0.1790  0.1056 -0.0876
  922YOPE   C4A13898  14.210   8.244   7.083  0.1701  0.0662 -0.0129
  922YOPE   C1B13899  13.405   9.025   6.168  0.0011  0.0898  0.1661
  922YOPE   C2B13900  13.426   8.911   6.641 -0.1619 -0.1704  0.1673
  922YOPE   D3B13901  13.271   8.971   7.033  0.0244  0.1991 -0.2920
  922YOPE   C4B13902  12.963   8.819   7.283  0.1409  0.2537 -0.1242
  923YOPE   NH313903   1.367   5.080   5.100  0.1670 -0.2095  0.2155
  923YOPE   PO413904   1.328   5.346   5.345 -0.1069  0.0138  0.1391
  923YOPE   GL113905   1.291   5.457   5.757  0.2556 -0.2559 -0.0639
  923YOPE   GL213906   1.002   5.566   5.728  0.0673 -0.1817 -0.1109
  923YOPE   C1A13907   1.265   5.624   6.197  0.1168 -0.2787  0.0517
  923YOPE   D2A13908   1.014   5.684   6.474 -0.1131  0.0414  0.2196
  923YOPE   C3A13909   0.797   5.877   6.784 -0.0485  0.1494 -0.1424
  923YOPE   C4A13910   0.575   5.703   7.170 -0.3185  0.1366  0.0267
  923YOPE   C1B13911   0.894   5.312   6.120  0.2621  0.0278  0.3150
  923YOPE   C2B13912   0.657   5.335   6.452  0.1844 -0.4054 -0.1264
  923YOPE   D3B13913   0.623   5.163   6.852 -0.1720  0.1460 -0.0908
  923YOPE   C4B13914   0.948   4.977   7.173  0.3204  0.0754 -0.0742
  924YOPE   NH313915   2.592  15.377   5.228 -0.1199 -0.3901  0.2263
  924YOPE   PO413916   2.731  15.799   5.199  0.0990 -0.1095  0.1522
  924YOPE   GL113917   2.431  15.737   5.576  0.1126 -0.1770  0.0172
  924YOPE   GL213918   2.346  15.969   5.737 -0.6158 -0.0854  0.2389
  924YOPE   C1A13919   2.556  15.500   5.902  0.0115  0.1854 -0.0850
  924YOPE   D2A13920   2.407  15.485   6.362 -0.1509 -0.0773  0.3331
  924YOPE   C3A13921   2.613  15.317   6.698 -0.1321 -0.3149  0.1177
  924YOPE   C4A13922   2.743  14.978   6.814 -0.0471  0.0066 -0.1208
  924YOPE   C1B13923   2.270  15.858   6.023 -0.0085  0.0502  0.0399
  924YOPE   C2B13924   2.328  16.036   6.381 -0.1031  0.5437  0.3133
  924YOPE   D3B13925   1.923  16.032   6.679  0.1782 -0.1209  0.0056
  924YOPE   C4B13926   1.713  15.780   6.921 -0.0707  0.0745 -0.0393
  925YOPE   NH313927  18.427   8.617   5.766  0.0635 -0.0979  0.2609
  925YOPE   PO413928  18.084   8.659   5.584 -0.1996 -0.0682 -0.0210
  925YOPE   GL113929  17.902   8.957   5.958  0.1933  0.4522 -0.2174
  925YOPE   GL213930  18.006   8.708   6.268  0.1976  0.1259  0.1855
  925YOPE   C1A13931  17.818   9.125   6.438 -0.1334  0.3042 -0.0671
  925YOPE   D2A13932  17.715   9.019   6.905  0.2059 -0.0755  0.2922
  925YOPE   C3A13933  17.837   8.603   7.073  0.1336 -0.1452 -0.0689
  925YOPE   C4A13934  17.643   8.372   7.426  0.1926 -0.2925  0.0814
  925YOPE   C1B13935  18.238   8.633   6.574 -0.0168  0.1566 -0.0534
  925YOPE   C2B13936  18.290   8.762   6.947  0.0176  0.0060 -0.0479
  925YOPE   D3B13937  18.442   8.706   7.311 -0.2264  0.1806 -0.0273
  925YOPE   C4B13938  18.786   8.849   7.524 -0.1223  0.0606  0.0032
  926YOPE   NH313939   5.836   7.419   5.816 -0.4763 -0.1837  0.0548
  926YOPE   PO413940   5.427   7.382   5.694  0.0626 -0.2049  0.1888
  926YOPE   GL113941   5.215   7.271   5.981  0.0595  0.1195  0.0354
  926YOPE   GL213942   5.064   7.486   6.078 -0.3119  0.1162  0.3442
  926YOPE   C1A13943   5.176   6.909   6.346 -0.1698 -0.0571  0.0689
  926YOPE   D2A13944   5.053   6.907   6.728 -0.1450  0.1782 -0.1813
  926YOPE   C3A13945   5.230   7.212   6.990 -0.0959 -0.2381  0.1503
  926YOPE   C4A13946   5.001   7.400   7.325  0.0556  0.0247 -0.1240
  926YOPE   C1B13947   5.165   7.375   6.471 -0.0205  0.1118  0.0534
  926YOPE   C2B13948   4.842   7.496   6.805 -0.0710 -0.1991  0.3277
  926YOPE   D3B13949   4.564   7.442   7.153  0.1388 -0.0500 -0.0858
  926YOPE   C4B13950   4.362   7.228   7.516 -0.3023  0.0822  0.1675
  927YOPE   NH313951  10.788   0.592   5.341 -0.3015 -0.0759 -0.2972
  927YOPE   PO413952  10.828   0.117   5.490  0.0868  0.2756 -0.0076
  927YOPE   GL113953  11.021  -0.029   5.906 -0.1080 -0.0648 -0.0889
  927YOPE   GL213954  11.141  -0.436   5.913  0.2975 -0.0969  0.1152
  927YOPE   C1A13955  10.955   0.144   6.321 -0.1662 -0.2367 -0.0985
  927YOPE   D2A13956  10.911   0.202   6.801  0.1218 -0.0393 -0.1086
  927YOPE   C3A13957  11.235   0.156   7.038  0.2345 -0.4159 -0.0957
  927YOPE   C4A13958  11.440   0.248   7.346 -0.2401 -0.0016 -0.2303
  927YOPE   C1B13959  10.932  -0.368   6.285  0.0851 -0.0071 -0.0125
  927YOPE   C2B13960  10.762  -0.282   6.750  0.1739  0.0876 -0.1004
  927YOPE   D3B13961  10.536  -0.407   7.165  0.0783 -0.0523 -0.2253
  927YOPE   C4B13962  10.432  -0.434   7.554 -0.0284  0.0080 -0.0467
  928YOPE   NH313963  16.555  15.609   5.457 -0.1342 -0.3159  0.0699
  928YOPE   PO413964  16.163  15.455   5.403  0.0429  0.3548 -0.1490
  928YOPE   GL113965  16.238  15.432   5.797 -0.0996  0.1977  0.1605
  928YOPE   GL213966  15.952  15.481   5.902  0.1070 -0.0865 -0.3533
  928YOPE   C1A13967  16.317  15.448   6.230 -0.2586 -0.2513 -0.2232
  928YOPE   D2A13968  16.263  15.398   6.673  0.2014 -0.0658  0.4309
  928YOPE   C3A13969  16.737  15.442   6.921  0.3794  0.0124  0.0339
  928YOPE   C4A13970  16.886  15.596   7.361  0.2441  0.0040  0.0044
  928YOPE   C1B13971  15.723  15.418   6.280 -0.1256  0.0318 -0.1886
  928YOPE   C2B13972  15.731  15.281   6.667 -0.4327 -0.4544  0.1070
  928YOPE   D3B13973  15.950  15.346   7.052  0.0448 -0.1837  0.0749
  928YOPE   C4B13974  15.949  15.031   7.311 -0.0002  0.0781 -0.0014
  929YOPE   NH313975  16.115  17.067   5.384 -0.1654  0.0914 -0.0180
  929YOPE   PO413976  15.924  17.460   5.508 -0.2486  0.0551 -0.0377
  929YOPE   GL113977  15.631  17.114   5.626 -0.3461 -0.3666  0.1379
  929YOPE   GL213978  15.778  16.773   5.667 -0.1362  0.0682 -0.1158
  929YOPE   C1A13979  15.443  17.294   6.028  0.2410  0.0311 -0.1357
  929YOPE   D2A13980  15.539  17.366   6.480  0.0605 -0.1010 -0.1700
  929YOPE   C3A13981  15.389  17.121   6.774  0.2785  0.2577  0.0494
  929YOPE   C4A13982  15.273  17.021   7.238  0.0232  0.0526 -0.0096
  929YOPE   C1B13983  15.730  16.374   5.821 -0.2989 -0.2471  0.1628
  929YOPE   C2B13984  15.573  15.871   6.001 -0.1334 -0.1424  0.0518
  929YOPE   D3B13985  15.554  15.922   6.427  0.0711 -0.0687  0.1707
  929YOPE   C4B13986  15.398  16.005   6.856 -0.0150 -0.1272 -0.2265
  930YOPE   NH313987  15.235  11.901   5.662 -0.0247  0.2794 -0.1307
  930YOPE   PO413988  15.165  12.374   5.620  0.1654  0.0186  0.0032
  930YOPE   GL113989  15.237  12.267   6.000 -0.1797 -0.2062 -0.0276
  930YOPE   GL213990  15.101  12.509   6.144 -0.1077  0.0037  0.4216
  930YOPE   C1A13991  15.267  12.036   6.522  0.0815  0.2147 -0.0124
  930YOPE   D2A13992  15.353  11.777   6.911  0.0855 -0.4610 -0.0771
  930YOPE   C3A13993  15.737  11.798   7.304  0.0581  0.0323 -0.1740
  930YOPE   C4A13994  16.069  11.884   7.550 -0.0434  0.4725 -0.1966
  930YOPE   C1B13995  15.151  12.574   6.576  0.1948 -0.2939 -0.0163
  930YOPE   C2B13996  15.144  12.746   6.978 -0.1153 -0.2802  0.1072
  930YOPE   D3B13997  15.082  12.675   7.443 -0.2422 -0.0844  0.0618
  930YOPE   C4B13998  15.242  12.782   7.826 -0.3806 -0.0516 -0.0287
  931YOPE   NH313999  12.649  13.122   5.525 -0.1936  0.1842 -0.0824
  931YOPE   PO414000  12.638  13.605   5.459 -0.0271  0.2040 -0.0208
  931YOPE   GL114001  12.658  13.767   5.813 -0.0605  0.1249  0.1732
  931YOPE   GL214002  12.895  13.570   5.885  0.0608 -0.2294  0.0088
  931YOPE   C1A14003  12.525  14.092   6.198 -0.0521 -0.4454  0.0759
  931YOPE   D2A14004  12.465  14.513   6.324 -0.1011 -0.0753 -0.0192
  931YOPE   C3A14005  12.723  14.830   6.106 -0.1176 -0.0335  0.2872
  931YOPE   C4A14006  12.954  15.231   6.121  0.3775 -0.0259 -0.3001
  931YOPE   C1B14007  12.988  13.781   6.331 -0.2386 -0.3615  0.3636
  931YOPE   C2B14008  13.245  13.908   6.782  0.2195  0.4028  0.0331
  931YOPE   D3B14009  13.182  14.205   7.171 -0.1221 -0.1801 -0.2189
  931YOPE   C4B14010  12.996  14.331   7.497 -0.0236 -0.0132 -0.1290
  932YOPE   NH314011   6.155   9.610   5.272 -0.1116 -0.2810  0.1865
  932YOPE   PO414012   5.998   9.198   5.424 -0.1234 -0.0589  0.2289
  932YOPE   GL114013   6.127   9.250   5.837 -0.1095 -0.0340 -0.0425
  932YOPE   GL214014   6.166   9.655   5.802  0.2134 -0.0813  0.1397
  932YOPE   C1A14015   6.145   9.054   6.288  0.2838  0.0996  0.0470
  932YOPE   D2A14016   6.272   8.964   6.679 -0.0386  0.2022 -0.4643
  932YOPE   C3A14017   5.943   9.104   6.898 -0.2790 -0.2545 -0.1554
  932YOPE   C4A14018   5.677   9.101   7.106  0.0302  0.2164 -0.1226
  932YOPE   C1B14019   6.272   9.865   6.156 -0.0184 -0.0895  0.2531
  932YOPE   C2B14020   6.098  10.033   6.533 -0.0181  0.0718  0.1114
  932YOPE   D3B14021   6.179  10.113   7.098 -0.0505  0.0145 -0.3330
  932YOPE   C4B14022   6.098  10.240   7.479 -0.0181  0.3208 -0.4175
  933YOPE   NH314023  16.903  18.016   5.390  0.0497  0.0684  0.2134
  933YOPE   PO414024  17.272  17.869   5.573  0.2090  0.3246 -0.0465
  933YOPE   GL114025  17.058  17.972   5.924  0.0847  0.1526  0.2436
  933YOPE   GL214026  16.812  17.913   5.901 -0.0146  0.0557  0.0625
  933YOPE   C1A14027  16.934  18.160   6.352  0.2364  0.2252  0.0402
  933YOPE   D2A14028  17.061  18.284   6.830 -0.2941 -0.2202  0.1468
  933YOPE   C3A14029  17.131  18.719   6.980 -0.2547 -0.2944 -0.2265
  933YOPE   C4A14030  17.125  18.890   7.386  0.0567  0.1935 -0.1294
  933YOPE   C1B14031  16.585  17.790   6.256 -0.2279 -0.2691 -0.2046
  933YOPE   C2B14032  16.672  17.818   6.717 -0.2360 -0.0700  0.1246
  933YOPE   D3B14033  16.771  17.740   7.068 -0.3102  0.1604 -0.0138
  933YOPE   C4B14034  17.085  17.415   7.231  0.0688 -0.2904 -0.2276
  934YOPE   NH314035  11.189   6.974   5.665  0.0995  0.0882 -0.3151
  934YOPE   PO414036  11.266   7.363   5.753 -0.0992  0.1761  0.0411
  934YOPE   GL114037  11.110   7.260   6.121  0.1692  0.4128  0.0401
  934YOPE   GL214038  11.344   7.216   6.447  0.1421  0.3969 -0.1614
  934YOPE   C1A14039  10.796   7.350   6.401 -0.1119 -0.2823  0.0202
  934YOPE   D2A14040  10.847   7.134   6.799  0.0930  0.3521 -0.1534
  934YOPE   C3A14041  11.154   7.208   7.142 -0.2103 -0.1384 -0.1128
  934YOPE   C4A14042  11.414   7.262   7.575  0.0004  0.0310 -0.1138
  934YOPE   C1B14043  11.536   7.180   6.838 -0.1186 -0.3346  0.2604
  934YOPE   C2B14044  11.658   6.836   7.095  0.2215 -0.1541 -0.1119
  934YOPE   D3B14045  11.607   6.589   7.576  0.0481  0.0720 -0.3226
  934YOPE   C4B14046  11.683   6.364   7.969 -0.0802  0.0422 -0.0770
  935YOPE   NH314047  16.121   0.901   5.495  0.1224  0.1291  0.0778
  935YOPE   PO414048  15.726   0.544   5.375 -0.1937 -0.2665  0.1476
  935YOPE   GL114049  15.327   0.480   5.692  0.2116  0.3202  0.5193
  935YOPE   GL214050  15.426   0.467   6.028 -0.0380 -0.4073 -0.1602
  935YOPE   C1A14051  14.896   0.457   5.865 -0.0609 -0.1407 -0.2630
  935YOPE   D2A14052  14.459   0.355   5.991  0.4495  0.3079  0.2296
  935YOPE   C3A14053  14.307   0.536   6.361 -0.3676  0.1788  0.0487
  935YOPE   C4A14054  14.432   0.575   6.696 -0.3388  0.3085  0.0075
  935YOPE   C1B14055  15.385   0.446   6.355  0.2021 -0.0301  0.0543
  935YOPE   C2B14056  15.232   0.224   6.752 -0.0235  0.0383 -0.2285
  935YOPE   D3B14057  14.887   0.132   6.949 -0.0570 -0.1619 -0.1181
  935YOPE   C4B14058  14.491   0.270   7.064 -0.5162  0.1026 -0.1691
  936YOPE   NH314059  11.023   6.067   5.664 -0.1109  0.1067  0.0983
  936YOPE   PO414060  11.424   5.982   5.874 -0.2005  0.2317 -0.0242
  936YOPE   GL114061  11.459   6.020   6.373  0.1105 -0.1904 -0.0975
  936YOPE   GL214062  11.654   6.285   6.307  0.0323 -0.0076  0.2806
  936YOPE   C1A14063  11.434   6.123   6.794 -0.2104  0.0520 -0.1542
  936YOPE   D2A14064  11.597   6.211   7.200 -0.0331 -0.0523  0.0735
  936YOPE   C3A14065  11.587   6.062   7.555 -0.0738  0.3240  0.3131
  936YOPE   C4A14066  11.599   5.818   7.995 -0.1912  0.2633  0.3490
  936YOPE   C1B14067  11.859   6.534   6.742 -0.0175  0.4256  0.0526
  936YOPE   C2B14068  12.052   6.501   7.179 -0.0444 -0.2008  0.0607
  936YOPE   D3B14069  12.007   6.361   7.573 -0.0153  0.2040  0.1760
  936YOPE   C4B14070  12.013   5.980   7.774 -0.1704  0.2414 -0.0746
  937YOPE   NH314071   8.184  13.915   5.933  0.0049 -0.2062  0.0817
  937YOPE   PO414072   7.917  14.134   5.648  0.1299  0.2102 -0.1406
  937YOPE   GL114073   7.587  14.310   5.836 -0.1161 -0.0893  0.1161
  937YOPE   GL214074   7.740  14.534   5.976 -0.3779  0.0330 -0.1807
  937YOPE   C1A14075   7.208  14.191   5.918  0.0124  0.3170 -0.0924
  937YOPE   D2A14076   7.016  14.012   6.205  0.0745 -0.1906  0.3119
  937YOPE   C3A14077   6.962  14.002   6.721 -0.3340  0.0561  0.0621
  937YOPE   C4A14078   7.118  13.852   7.057 -0.0885  0.0884  0.1675
  937YOPE   C1B14079   7.631  14.682   6.286  0.0860 -0.0897  0.0522
  937YOPE   C2B14080   7.566  14.783   6.620 -0.2134 -0.0869  0.1385
  937YOPE   D3B14081   7.469  14.875   7.138  0.2106  0.1010  0.2532
  937YOPE   C4B14082   7.288  14.644   7.473  0.0148 -0.3567  0.1008
  938YOPE   NH314083   3.679   7.359   5.523  0.2019 -0.0310  0.0405
  938YOPE   PO414084   3.490   7.010   5.653  0.1582  0.0483  0.0416
  938YOPE   GL114085   3.486   6.867   6.122 -0.2099  0.1650  0.0630
  938YOPE   GL214086   3.229   6.651   6.333 -0.0136 -0.1627  0.4138
  938YOPE   C1A14087   3.696   6.743   6.523  0.1258  0.2147  0.3212
  938YOPE   D2A14088   3.672   6.803   7.086 -0.1098  0.1218  0.0251
  938YOPE   C3A14089   3.882   6.732   7.435  0.1081 -0.1289 -0.3434
  938YOPE   C4A14090   3.771   6.974   7.809  0.0970  0.1319  0.0715
  938YOPE   C1B14091   3.261   6.765   6.736  0.0615 -0.2691 -0.0070
  938YOPE   C2B14092   3.197   6.887   7.201  0.1948  0.3588  0.1263
  938YOPE   D3B14093   3.199   7.060   7.588  0.0303 -0.2427 -0.1272
  938YOPE   C4B14094   3.140   6.855   7.918 -0.0053  0.0214  0.2584
  939YOPE   NH314095   7.219   5.894   5.481  0.1525  0.0299 -0.1407
  939YOPE   PO414096   6.983   5.489   5.587  0.0445  0.3713  0.0112
  939YOPE   GL114097   7.151   5.336   5.991 -0.1044  0.2976  0.0827
  939YOPE   GL214098   7.073   5.050   6.028 -0.1977  0.0366  0.1560
  939YOPE   C1A14099   7.343   5.341   6.400 -0.0182  0.3126 -0.4984
  939YOPE   D2A14100   7.493   5.027   6.671 -0.0629 -0.3003 -0.3070
  939YOPE   C3A14101   7.759   5.118   7.055 -0.0428  0.0112  0.0537
  939YOPE   C4A14102   7.787   5.229   7.490 -0.1863  0.1153  0.0622
  939YOPE   C1B14103   6.956   4.903   6.362  0.0474 -0.1460  0.1298
  939YOPE   C2B14104   6.944   4.676   6.818 -0.0492  0.0524  0.2446
  939YOPE   D3B14105   6.697   4.834   7.170  0.0082  0.1744  0.1348
  939YOPE   C4B14106   6.572   4.911   7.681 -0.0564  0.2459  0.1004
  940YOPE   NH314107  10.274   4.536   5.564 -0.0164 -0.2222 -0.1134
  940YOPE   PO414108  10.040   4.164   5.600  0.0704  0.3233 -0.3196
  940YOPE   GL114109  10.042   4.247   5.990 -0.2792 -0.1525  0.0791
  940YOPE   GL214110  10.387   4.305   6.022 -0.1443 -0.0036 -0.0922
  940YOPE   C1A14111   9.914   4.171   6.365  0.2008  0.3352  0.0082
  940YOPE   D2A14112   9.743   3.847   6.586  0.2025  0.2697 -0.0423
  940YOPE   C3A14113   9.715   3.853   7.023 -0.2462  0.1732  0.1341
  940YOPE   C4A14114  10.023   3.962   7.343  0.0446  0.2159  0.1067
  940YOPE   C1B14115  10.313   4.456   6.497 -0.0645 -0.0742  0.1277
  940YOPE   C2B14116  10.246   4.631   6.854  0.1627 -0.2283 -0.3912
  940YOPE   D3B14117  10.272   4.376   7.196  0.1651 -0.0625  0.0527
  940YOPE   C4B14118  10.560   4.038   7.450  0.0097  0.2461  0.5190
  941YOPE   NH314119   0.746   0.139   4.935  0.1350 -0.0672 -0.1581
  941YOPE   PO414120   0.916   0.208   5.311  0.0975  0.0812 -0.1480
  941YOPE   GL114121   0.675   0.316   5.612 -0.1443 -0.1793 -0.2841
  941YOPE   GL214122   0.874   0.229   5.783  0.0685 -0.0831  0.0190
  941YOPE   C1A14123   0.582   0.542   5.996 -0.0458 -0.1313 -0.1101
  941YOPE   D2A14124   0.406   0.918   6.143  0.0479 -0.4253  0.2515
  941YOPE   C3A14125   0.524   1.239   6.437 -0.1300  0.0153 -0.3321
  941YOPE   C4A14126   0.621   1.439   6.777  0.3797 -0.0933  0.2916
  941YOPE   C1B14127   0.839  -0.017   6.085  0.1728  0.1766  0.1696
  941YOPE   C2B14128   0.497  -0.218   6.373  0.0638 -0.0891 -0.0477
  941YOPE   D3B14129   0.032  -0.096   6.373  0.0456 -0.1457  0.2859
  941YOPE   C4B14130  -0.241   0.169   6.054  0.0908  0.0246  0.0596
  942YOPE   NH314131   2.183  10.473   5.521 -0.1760 -0.1729  0.0558
  942YOPE   PO414132   2.485  10.199   5.715  0.1931  0.1107  0.0636
  942YOPE   GL114133   2.622  10.205   6.105 -0.1319 -0.4199 -0.2617
  942YOPE   GL214134   2.685  10.488   6.136 -0.0646  0.1305 -0.0266
  942YOPE   C1A14135   2.636   9.742   6.329 -0.2601 -0.2667  0.0814
  942YOPE   D2A14136   2.523   9.416   6.728 -0.0995 -0.0555 -0.1665
  942YOPE   C3A14137   2.541   9.454   7.050  0.0469  0.1126  0.1182
  942YOPE   C4A14138   2.673   9.707   7.360 -0.1576  0.1978  0.3218
  942YOPE   C1B14139   2.553  10.713   6.490 -0.0994 -0.6609 -0.0987
  942YOPE   C2B14140   2.599  10.727   6.867 -0.1265  0.3546 -0.4620
  942YOPE   D3B14141   2.597  10.830   7.317 -0.0112 -0.1205 -0.0660
  942YOPE   C4B14142   2.638  10.982   7.713 -0.1204  0.2344  0.2020
  943YOPE   NH314143   9.429   6.376   5.670 -0.1972 -0.2293 -0.0027
  943YOPE   PO414144   9.315   6.825   5.585 -0.1402  0.2498 -0.1207
  943YOPE   GL114145   9.172   6.696   6.045 -0.1424  0.0757  0.1785
  943YOPE   GL214146   8.786   6.692   6.103  0.1390  0.1249 -0.1269
  943YOPE   C1A14147   9.229   6.509   6.399  0.0014 -0.1627 -0.0502
  943YOPE   D2A14148   9.114   6.390   6.884 -0.2196 -0.0904  0.0261
  943YOPE   C3A14149   8.977   6.381   7.259 -0.0074  0.1527 -0.3490
  943YOPE   C4A14150   8.932   6.313   7.818  0.0844  0.1484 -0.2741
  943YOPE   C1B14151   8.810   6.770   6.592 -0.1407 -0.3835 -0.1315
  943YOPE   C2B14152   8.707   6.747   7.026 -0.0140 -0.1443 -0.0314
  943YOPE   D3B14153   8.699   6.985   7.420  0.2679 -0.2652 -0.1534
  943YOPE   C4B14154   8.865   7.117   7.778  0.0822  0.0151  0.0367
  944POPC   NC314155   4.037  10.783   5.123  0.0852  0.0987  0.1118
  944POPC   PO414156   3.864  10.493   5.483 -0.0579  0.0751  0.0777
  944POPC   GL114157   4.018  10.387   5.900 -0.0601 -0.0893  0.3779
  944POPC   GL214158   4.332  10.174   5.942 -0.2339  0.1346 -0.0760
  944POPC   C1A14159   3.984  10.334   6.373  0.0611  0.2769 -0.1656
  944POPC   D2A14160   3.981  10.220   6.808  0.0029  0.2495 -0.2501
  944POPC   C3A14161   3.778  10.389   7.198 -0.1094  0.1047  0.3953
  944POPC   C4A14162   3.910  10.752   7.415 -0.0876  0.0087  0.0017
  944POPC   C1B14163   4.362  10.048   6.338 -0.4298 -0.2789  0.0424
  944POPC   C2B14164   4.377   9.947   6.830  0.1083  0.2492  0.0369
  944POPC   C3B14165   4.704   9.777   7.225  0.0394 -0.0144 -0.2522
  944POPC   C4B14166   4.975   9.787   7.608  0.0277 -0.0300  0.1701
  945POPC   NC314167   1.872  18.504   5.356 -0.0381 -0.1916  0.0067
  945POPC   PO414168   2.166  18.748   5.615  0.2251  0.0698 -0.0434
  945POPC   GL114169   2.285  18.663   6.008  0.0735 -0.1712  0.1533
  945POPC   GL214170   2.395  18.370   6.011  0.2972  0.1089 -0.1286
  945POPC   C1A14171   2.334  18.553   6.470  0.0215 -0.2746 -0.2210
  945POPC   D2A14172   2.136  18.562   6.906 -0.1647 -0.2164  0.3552
  945POPC   C3A14173   1.983  18.956   7.093  0.0860  0.2021 -0.1123
  945POPC   C4A14174   1.969  19.356   7.283 -0.3790 -0.0052  0.1190
  945POPC   C1B14175   2.036  18.173   6.354  0.1908  0.0316 -0.2060
  945POPC   C2B14176   1.886  18.109   6.761  0.2224 -0.2516  0.0634
  945POPC   C3B14177   1.723  18.281   7.101 -0.0379 -0.1206  0.0167
  945POPC   C4B14178   1.597  18.305   7.456 -0.1350 -0.1015  0.1579
  946POPC   NC314179   8.313  15.098   5.438 -0.1438 -0.1163 -0.0239
  946POPC   PO414180   8.054  14.924   5.669  0.1218 -0.0168  0.3956
  946POPC   GL114181   8.277  15.054   6.030 -0.0153  0.0952  0.0808
  946POPC   GL214182   8.153  14.874   6.295  0.0771 -0.1151  0.1658
  946POPC   C1A14183   8.549  15.158   6.243  0.4540 -0.5076 -0.1676
  946POPC   D2A14184   8.694  15.356   6.647 -0.1230  0.0397 -0.0866
  946POPC   C3A14185   8.356  15.243   6.957  0.2541  0.2108  0.0873
  946POPC   C4A14186   7.905  14.969   6.955 -0.2850  0.0312  0.2380
  946POPC   C1B14187   8.366  14.841   6.638 -0.0207  0.3157 -0.2947
  946POPC   C2B14188   8.570  14.774   7.020 -0.5256  0.0962  0.0408
  946POPC   C3B14189   8.854  14.926   7.275 -0.0253  0.0043 -0.0752
  946POPC   C4B14190   9.034  15.001   7.610 -0.0390 -0.0401 -0.0024
  947POPC   NC314191   0.314   9.201   5.799 -0.1430 -0.0157 -0.0109
  947POPC   PO414192  -0.103   8.996   5.566 -0.1005 -0.1945  0.3476
  947POPC   GL114193  -0.266   9.068   5.935 -0.2471 -0.0276 -0.1500
  947POPC   GL214194  -0.023   9.084   6.143  0.0707 -0.1440  0.1091
  947POPC   C1A14195  -0.537   9.215   6.297 -0.0248  0.1253  0.0718
  947POPC   D2A14196  -0.620   9.188   6.686 -0.1256 -0.1134  0.2235
  947POPC   C3A14197  -0.410   9.466   6.931 -0.3409  0.1836 -0.0643
  947POPC   C4A14198  -0.480   9.668   7.312  0.1019 -0.0794  0.1011
  947POPC   C1B14199   0.217   8.818   6.421 -0.0835 -0.0261 -0.0365
  947POPC   C2B14200   0.476   8.832   6.613  0.0842  0.0294 -0.3022
  947POPC   C3B14201   0.365   8.695   6.944 -0.1206 -0.1812 -0.0348
  947POPC   C4B14202   0.288   8.601   7.310 -0.5350 -0.2287  0.2050
  948POPC   NC314203   8.777   2.521   5.192  0.0362 -0.2192  0.3885
  948POPC   PO414204   8.757   2.398   5.667  0.1617 -0.0942 -0.0334
  948POPC   GL114205   8.506   2.350   6.082  0.1832  0.1135  0.3805
  948POPC   GL214206   8.411   2.675   6.260  0.0765 -0.3349  0.0131
  948POPC   C1A14207   8.440   2.253   6.478  0.2111  0.1927  0.0444
  948POPC   D2A14208   8.254   2.236   6.887 -0.0199  0.0592 -0.1145
  948POPC   C3A14209   8.390   2.486   7.187  0.2266  0.0856  0.1032
  948POPC   C4A14210   8.563   2.555   7.563  0.0503  0.0052 -0.1440
  948POPC   C1B14211   8.391   2.800   6.661 -0.1459 -0.0070  0.0800
  948POPC   C2B14212   8.210   2.890   6.993 -0.1132  0.0124 -0.0780
  948POPC   C3B14213   8.322   2.968   7.368  0.0609  0.0151 -0.4006
  948POPC   C4B14214   8.284   3.102   7.818 -0.0891  0.2608 -0.1198
  949POPC   NC314215  12.619   9.876   5.342 -0.2487  0.1345 -0.1502
  949POPC   PO414216  12.334  10.152   5.754 -0.1824  0.0889  0.2058
  949POPC   GL114217  12.327  10.119   6.126 -0.0705  0.1593  0.1204
  949POPC   GL214218  12.666  10.111   6.196 -0.3025  0.1108 -0.3286
  949POPC   C1A14219  11.930  10.167   6.422 -0.1087  0.1445  0.0005
  949POPC   D2A14220  11.794  10.324   6.859  0.1042 -0.0099 -0.1211
  949POPC   C3A14221  11.950  10.130   7.236  0.1708  0.1900  0.0429
  949POPC   C4A14222  11.764   9.929   7.682 -0.3758  0.1410  0.0524
  949POPC   C1B14223  12.623   9.851   6.626  0.2985  0.0160 -0.1418
  949POPC   C2B14224  12.606   9.461   6.998 -0.0216 -0.0882 -0.0926
  949POPC   C3B14225  12.634   9.014   6.918  0.1028 -0.0062 -0.1347
  949POPC   C4B14226  12.900   8.682   6.802 -0.1843  0.2228  0.0196
  950POPC   NC314227   6.673  14.545   5.177 -0.1650 -0.1401 -0.1019
  950POPC   PO414228   6.765  14.957   5.390  0.0249  0.0779 -0.0831
  950POPC   GL114229   6.938  15.073   5.768 -0.2497  0.1455  0.0309
  950POPC   GL214230   6.898  15.388   5.719  0.1705 -0.1870 -0.1648
  950POPC   C1A14231   6.764  14.841   6.206  0.0799 -0.0654  0.2151
  950POPC   D2A14232   6.567  14.896   6.534  0.0191 -0.1511 -0.2639
  950POPC   C3A14233   6.642  14.918   6.969  0.0222  0.1341  0.1994
  950POPC   C4A14234   6.802  14.793   7.483  0.4026  0.0025 -0.0146
  950POPC   C1B14235   6.641  15.311   6.150 -0.2800 -0.0481 -0.0279
  950POPC   C2B14236   6.422  15.385   6.555  0.3570  0.1042  0.0749
  950POPC   C3B14237   6.666  15.456   6.905  0.0719  0.1589 -0.0595
  950POPC   C4B14238   6.728  15.585   7.356  0.1757 -0.3536  0.0921
  951POPC   NC314239  16.201   5.642   6.155 -0.0041  0.2805 -0.1262
  951POPC   PO414240  16.596   5.765   6.078 -0.1316  0.0957 -0.2360
  951POPC   GL114241  16.600   5.939   6.281  0.2064 -0.1790 -0.0163
  951POPC   GL214242  16.285   6.173   6.358 -0.2134 -0.0495 -0.2218
  951POPC   C1A14243  16.779   6.020   6.693  0.0241  0.3941  0.2647
  951POPC   D2A14244  16.822   6.044   7.132 -0.3169  0.0082  0.1788
  951POPC   C3A14245  16.810   6.403   7.365 -0.0378  0.0049  0.2410
  951POPC   C4A14246  16.925   6.821   7.686 -0.0044  0.0172  0.0504
  951POPC   C1B14247  16.368   6.315   6.767 -0.2325 -0.0406 -0.1505
  951POPC   C2B14248  16.380   6.562   7.145 -0.2250 -0.1710  0.0883
  951POPC   C3B14249  16.440   6.672   7.538 -0.0471  0.0486  0.2280
  951POPC   C4B14250  16.631   6.589   7.989  0.0159 -0.0238  0.0220
  952POPC   NC314251   5.625   0.922   5.454 -0.2151 -0.3093  0.0201
  952POPC   PO414252   5.154   0.957   5.404  0.2951  0.3843 -0.0098
  952POPC   GL114253   5.127   0.824   5.794 -0.0364 -0.2172  0.5364
  952POPC   GL214254   4.864   0.972   5.880  0.2828 -0.1840  0.1061
  952POPC   C1A14255   5.105   0.586   6.241 -0.1036 -0.0070 -0.0375
  952POPC   D2A14256   4.840   0.560   6.576 -0.2164  0.0989 -0.0899
  952POPC   C3A14257   5.166   0.548   6.959  0.1716 -0.2158  0.0831
  952POPC   C4A14258   5.233   0.329   7.341 -0.2963  0.2709 -0.1400
  952POPC   C1B14259   4.568   0.970   6.256 -0.0040  0.0474  0.1180
  952POPC   C2B14260   4.379   0.683   6.477  0.1540  0.0982  0.0066
  952POPC   C3B14261   4.099   0.303   6.642  0.1849  0.1673  0.2496
  952POPC   C4B14262   3.838   0.042   6.930  0.0364  0.0885 -0.1984
  953POPC   NC314263  17.066   0.622   5.190 -0.2201  0.0145  0.0218
  953POPC   PO414264  16.591   0.775   5.210 -0.3710 -0.2102  0.0745
  953POPC   GL114265  16.693   0.668   5.610  0.2559  0.0913 -0.3171
  953POPC   GL214266  16.594   0.879   5.793 -0.1459 -0.0068  0.1658
  953POPC   C1A14267  16.880   0.561   6.111  0.3245  0.0224 -0.0071
  953POPC   D2A14268  16.639   0.824   6.409 -0.0499 -0.0260 -0.0194
  953POPC   C3A14269  16.734   0.688   6.810  0.0269  0.0401 -0.1275
  953POPC   C4A14270  17.129   0.593   7.068 -0.0344  0.3417 -0.2620
  953POPC   C1B14271  16.725   1.173   6.056 -0.1835 -0.2140  0.2431
  953POPC   C2B14272  16.944   1.206   6.461  0.0735  0.0865 -0.1669
  953POPC   C3B14273  16.927   1.588   6.666  0.0225 -0.1867 -0.2159
  953POPC   C4B14274  16.982   1.957   6.987 -0.2869 -0.1592 -0.0220
  954POPC   NC314275   1.058   9.751   5.652 -0.5520 -0.2429 -0.0736
  954POPC   PO414276   1.064   9.348   5.869  0.1139 -0.5254  0.2829
  954POPC   GL114277   1.302   9.309   6.234 -0.3528  0.0102  0.2999
  954POPC   GL214278   1.289   9.012   6.299  0.0820 -0.1357 -0.0338
  954POPC   C1A14279   1.336   9.168   6.746  0.1686  0.2705  0.1579
  954POPC   D2A14280   1.490   9.112   7.099  0.2073  0.0515 -0.1442
  954POPC   C3A14281   1.280   8.953   7.351  0.0025  0.0827 -0.1142
  954POPC   C4A14282   1.165   8.762   7.828  0.1024  0.0295  0.1591
  954POPC   C1B14283   0.962   8.931   6.622 -0.0933  0.2588  0.2277
  954POPC   C2B14284   0.860   8.892   7.039 -0.0609  0.2811  0.0420
  954POPC   C3B14285   0.802   8.794   7.362  0.1052 -0.0771 -0.1064
  954POPC   C4B14286   0.604   8.772   7.750 -0.1807  0.1624 -0.1484
  955POPC   NC314287   2.338   7.064   4.850 -0.1232 -0.1478  0.1008
  955POPC   PO414288   2.434   7.223   5.323  0.0136  0.0180 -0.1636
  955POPC   GL114289   2.536   7.063   5.807 -0.0304 -0.0561  0.0263
  955POPC   GL214290   2.735   7.301   5.933  0.2791  0.3317 -0.1162
  955POPC   C1A14291   2.377   7.125   6.252 -0.0127 -0.1648 -0.0781
  955POPC   D2A14292   2.196   6.969   6.644 -0.0704 -0.3381  0.1376
  955POPC   C3A14293   1.971   6.663   6.839  0.1109  0.0705 -0.1339
  955POPC   C4A14294   1.972   6.461   7.264 -0.2211  0.0195  0.0348
  955POPC   C1B14295   3.124   7.259   6.181 -0.0394 -0.1361 -0.0725
  955POPC   C2B14296   3.397   7.187   6.588  0.2588  0.0174  0.0495
  955POPC   C3B14297   3.388   7.297   6.984 -0.3034 -0.1242 -0.0721
  955POPC   C4B14298   3.618   7.199   7.351 -0.1760  0.1030 -0.2860
  956POPC   NC314299  10.883   2.405   5.667 -0.1853  0.0362 -0.0251
  956POPC   PO414300  11.162   2.763   5.702 -0.2928  0.1515 -0.4424
  956POPC   GL114301  11.010   2.823   6.176 -0.0548 -0.3223 -0.3979
  956POPC   GL214302  10.938   3.113   6.249  0.0756 -0.2824  0.1210
  956POPC   C1A14303  10.727   2.886   6.616  0.1092 -0.1102  0.0648
  956POPC   D2A14304  10.707   3.213   6.897  0.1648  0.2301 -0.0206
  956POPC   C3A14305  10.833   3.074   7.284 -0.2094  0.0711 -0.0368
  956POPC   C4A14306  11.136   3.297   7.622  0.0970  0.2859 -0.0752
  956POPC   C1B14307  11.174   3.085   6.587 -0.1264  0.1147  0.0483
  956POPC   C2B14308  11.397   3.045   7.021  0.2261  0.1859 -0.1713
  956POPC   C3B14309  11.365   2.879   7.470 -0.2423 -0.2320  0.1651
  956POPC   C4B14310  11.544   2.549   7.793  0.2277  0.1908  0.0457
  957POPC   NC314311  16.047  12.327   5.117  0.1140 -0.0358 -0.1722
  957POPC   PO414312  16.202  12.557   5.515  0.2130  0.0063  0.2761
  957POPC   GL114313  16.292  12.524   5.871 -0.1388 -0.3717  0.1141
  957POPC   GL214314  16.438  12.826   5.945 -0.2412  0.1568 -0.1724
  957POPC   C1A14315  16.606  12.388   6.131  0.0436  0.1498 -0.1832
  957POPC   D2A14316  16.775  12.575   6.442  0.2698  0.1351  0.1141
  957POPC   C3A14317  16.853  12.333   6.865 -0.0828 -0.0775 -0.1545
  957POPC   C4A14318  17.138  12.107   6.946  0.0002 -0.0904  0.0750
  957POPC   C1B14319  16.305  12.713   6.421  0.0885  0.1458  0.1418
  957POPC   C2B14320  16.481  12.746   6.834 -0.0008 -0.0999  0.0737
  957POPC   C3B14321  16.455  12.589   7.225  0.0028 -0.0643 -0.3265
  957POPC   C4B14322  16.417  12.303   7.557  0.0598 -0.1379 -0.2298
  958POPC   NC314323  14.569   8.089   5.352 -0.2535 -0.1612  0.0114
  958POPC   PO414324  14.462   7.637   5.604  0.0961 -0.0312 -0.0786
  958POPC   GL114325  14.433   7.528   6.129 -0.1095 -0.1437 -0.3246
  958POPC   GL214326  14.701   7.591   6.365 -0.1023  0.2157  0.3873
  958POPC   C1A14327  14.398   7.169   6.444  0.1598  0.1474 -0.1797
  958POPC   D2A14328  14.546   7.137   6.820 -0.2208  0.1416 -0.4246
  958POPC   C3A14329  14.287   7.219   7.147  0.1900  0.0445  0.1085
  958POPC   C4A14330  13.951   7.477   7.240 -0.1111 -0.2235  0.1472
  958POPC   C1B14331  14.532   7.615   6.761  0.2841 -0.1786  0.1713
  958POPC   C2B14332  14.749   7.574   7.167 -0.1170 -0.2011  0.0218
  958POPC   C3B14333  14.823   7.688   7.593  0.0781 -0.1760  0.1679
  958POPC   C4B14334  14.647   7.410   8.078  0.2244  0.2395  0.1382
  959POPC   NC314335  16.149   8.056   5.619 -0.0713 -0.6171  0.2999
  959POPC   PO414336  16.542   8.022   5.683  0.2029 -0.0091  0.3031
  959POPC   GL114337  16.268   8.052   6.084 -0.4232  0.0214 -0.2216
  959POPC   GL214338  16.067   8.330   6.066  0.2045  0.3745 -0.2723
  959POPC   C1A14339  16.241   7.886   6.403  0.3108  0.1935 -0.3028
  959POPC   D2A14340  16.295   7.811   6.806  0.1131  0.1105  0.4273
  959POPC   C3A14341  15.900   7.925   7.164 -0.2667  0.1096  0.4169
  959POPC   C4A14342  15.587   8.086   7.431 -0.2047  0.0039  0.1173
  959POPC   C1B14343  16.179   8.398   6.462 -0.0992  0.0017 -0.0212
  959POPC   C2B14344  16.290   8.293   6.910  0.0631  0.0347  0.0819
  959POPC   C3B14345  16.498   7.986   7.239 -0.5205 -0.2745 -0.1879
  959POPC   C4B14346  16.694   7.896   7.547 -0.0374 -0.1525  0.2252
  960POPC   NC314347   6.289   1.609   5.542 -0.1267 -0.1036 -0.0353
  960POPC   PO414348   6.627   1.786   5.493  0.1478  0.2238  0.0166
  960POPC   GL114349   6.530   1.884   5.894  0.2007  0.0763  0.1399
  960POPC   GL214350   6.337   1.573   6.021 -0.5719  0.0529 -0.0402
  960POPC   C1A14351   6.402   2.061   6.310 -0.1042 -0.1298  0.3408
  960POPC   D2A14352   6.230   2.246   6.591  0.1944  0.2607 -0.1351
  960POPC   C3A14353   6.034   2.565   6.330  0.0366 -0.0153  0.3490
  960POPC   C4A14354   5.782   2.858   6.420  0.1823 -0.0322 -0.1735
  960POPC   C1B14355   6.341   1.148   6.323  0.0588 -0.1719  0.0933
  960POPC   C2B14356   6.530   0.871   6.602 -0.1439  0.1280 -0.1943
  960POPC   C3B14357   6.591   0.902   7.016 -0.3111  0.0745  0.0191
  960POPC   C4B14358   6.292   0.637   7.360 -0.0943  0.0077  0.1026
  961POPC   NC314359  11.620   3.670   5.662 -0.0783  0.1607 -0.2246
  961POPC   PO414360  11.985   3.347   5.725 -0.0441 -0.2080  0.0767
  961POPC   GL114361  11.921   3.417   6.160  0.0642  0.0455 -0.0756
  961POPC   GL214362  12.009   3.157   6.270  0.0362 -0.4132  0.0702
  961POPC   C1A14363  12.091   3.674   6.462 -0.0701  0.1007 -0.1430
  961POPC   D2A14364  12.126   3.820   6.857  0.4529  0.0361 -0.1258
  961POPC   C3A14365  12.219   3.594   7.302 -0.1877  0.0589 -0.1482
  961POPC   C4A14366  11.865   3.693   7.548 -0.0778 -0.1513  0.2804
  961POPC   C1B14367  12.086   2.943   6.651 -0.4337  0.2013 -0.2277
  961POPC   C2B14368  12.148   2.602   6.956  0.1760 -0.1867  0.2056
  961POPC   C3B14369  12.182   2.312   7.172 -0.4054 -0.0487 -0.4175
  961POPC   C4B14370  12.034   1.898   7.139  0.2408  0.0487 -0.1025
  962POPC   NC314371   0.062  18.302   5.223  0.1072  0.1567  0.0444
  962POPC   PO414372   0.098  18.822   5.250  0.1068  0.0386  0.3212
  962POPC   GL114373   0.022  18.587   5.739  0.5214 -0.2362 -0.2709
  962POPC   GL214374   0.316  18.457   5.903  0.0805 -0.0119  0.4278
  962POPC   C1A14375  -0.316  18.502   6.079  0.0738  0.4945 -0.1518
  962POPC   D2A14376  -0.367  18.385   6.491  0.1260  0.1301  0.0357
  962POPC   C3A14377  -0.523  17.939   6.567  0.0773  0.0606 -0.1359
  962POPC   C4A14378  -0.440  17.572   6.460 -0.1467 -0.0038 -0.0361
  962POPC   C1B14379   0.287  18.921   5.953  0.1110  0.0285 -0.4928
  962POPC   C2B14380   0.153  19.329   6.196 -0.2474 -0.0802 -0.0432
  962POPC   C3B14381   0.218  19.378   6.656 -0.0656  0.0559  0.0023
  962POPC   C4B14382   0.436  19.255   7.064 -0.4630 -0.2457 -0.1298
  963POPC   NC314383  13.544   1.117   5.436 -0.1115  0.0662  0.1128
  963POPC   PO414384  13.095   1.054   5.555  0.3358  0.0276  0.1188
  963POPC   GL114385  13.038   1.209   5.947  0.4615 -0.0490 -0.1390
  963POPC   GL214386  12.758   1.011   6.076  0.1348 -0.0770  0.2524
  963POPC   C1A14387  13.078   1.362   6.371  0.0685  0.0148  0.2049
  963POPC   D2A14388  12.797   1.461   6.754  0.3043  0.1340 -0.3219
  963POPC   C3A14389  12.444   1.667   6.674  0.1535 -0.3386 -0.0528
  963POPC   C4A14390  11.983   1.654   6.675 -0.2378 -0.1343  0.1575
  963POPC   C1B14391  12.809   0.964   6.539 -0.0668 -0.1445  0.1724
  963POPC   C2B14392  13.167   1.106   6.800 -0.2503  0.1786 -0.0773
  963POPC   C3B14393  13.288   1.118   7.196  0.0989 -0.2006 -0.3131
  963POPC   C4B14394  13.580   1.080   7.482 -0.1460 -0.5633  0.3329
  964POPC   NC314395   6.292   3.244   5.604 -0.2115  0.2508 -0.0821
  964POPC   PO414396   5.987   2.879   5.623 -0.2619 -0.0266  0.1131
  964POPC   GL114397   6.262   2.943   6.055  0.0810 -0.0983  0.1332
  964POPC   GL214398   6.354   3.245   6.118 -0.0538 -0.3149  0.2358
  964POPC   C1A14399   6.484   2.682   6.325 -0.0160 -0.0081 -0.1330
  964POPC   D2A14400   6.734   2.383   6.496  0.0003  0.0200 -0.1851
  964POPC   C3A14401   7.026   2.218   6.807 -0.2110 -0.0885 -0.3804
  964POPC   C4A14402   6.952   2.437   7.272 -0.2681  0.3729 -0.1500
  964POPC   C1B14403   6.237   3.028   6.606 -0.2577 -0.0444 -0.0772
  964POPC   C2B14404   5.859   3.130   6.899 -0.0923  0.0611 -0.2724
  964POPC   C3B14405   5.610   3.008   7.249  0.0126  0.0485 -0.0418
  964POPC   C4B14406   5.603   3.361   7.523 -0.0067  0.1851 -0.0444
  965POPC   NC314407  17.559  12.698   5.507  0.2402 -0.0015 -0.2437
  965POPC   PO414408  17.624  13.104   5.377 -0.3865 -0.3425 -0.1450
  965POPC   GL114409  17.326  13.065   5.737 -0.1939 -0.3022 -0.0554
  965POPC   GL214410  17.094  12.888   5.768 -0.0079 -0.0754  0.2838
  965POPC   C1A14411  17.183  13.332   6.023 -0.1089  0.0415  0.2364
  965POPC   D2A14412  17.343  13.736   6.096  0.0433 -0.2872 -0.0032
  965POPC   C3A14413  17.452  13.988   6.524 -0.0947  0.1197 -0.1201
  965POPC   C4A14414  17.882  13.978   6.787  0.0489  0.0707  0.1340
  965POPC   C1B14415  16.949  12.937   6.172  0.2594  0.0928  0.0035
  965POPC   C2B14416  17.002  12.894   6.699  0.3220 -0.0140 -0.1365
  965POPC   C3B14417  16.889  12.800   7.155 -0.4311 -0.1044 -0.2097
  965POPC   C4B14418  17.187  12.744   7.508 -0.1584  0.1332 -0.2165
  966POPC   NC314419  11.013   5.769   6.169  0.2435 -0.1959 -0.6099
  966POPC   PO414420  10.608   5.860   5.861  0.3298 -0.0509 -0.0950
  966POPC   GL114421  10.499   5.815   6.293  0.2282 -0.1054  0.0395
  966POPC   GL214422  10.700   5.931   6.554  0.2730  0.0396 -0.1950
  966POPC   C1A14423  10.301   5.661   6.673 -0.0867  0.0339  0.2374
  966POPC   D2A14424  10.293   5.718   7.061  0.3861 -0.0908 -0.2355
  966POPC   C3A14425  10.273   5.520   7.439 -0.2210 -0.0040  0.0334
  966POPC   C4A14426  10.513   5.605   7.756 -0.0145 -0.4264 -0.1605
  966POPC   C1B14427  10.744   5.849   6.972 -0.0809  0.3379 -0.2394
  966POPC   C2B14428  10.735   5.873   7.339 -0.0296  0.1487  0.0634
  966POPC   C3B14429  10.398   6.010   7.535 -0.0565  0.0663 -0.1888
  966POPC   C4B14430  10.047   6.102   7.721 -0.2589  0.0772  0.3605
  967POPC   NC314431   1.207  14.614   4.457  0.4377 -0.0395  0.0551
  967POPC   PO414432   1.006  14.575   4.982  0.1820  0.0027 -0.0117
  967POPC   GL114433   1.126  14.430   5.328  0.1375 -0.0055 -0.0424
  967POPC   GL214434   1.144  14.621   5.529  0.2304  0.0076  0.0411
  967POPC   C1A14435   1.392  14.128   5.519 -0.1408  0.2148  0.0169
  967POPC   D2A14436   1.764  14.208   5.818 -0.1242  0.0443 -0.0250
  967POPC   C3A14437   1.721  13.986   6.275  0.2617  0.0260 -0.1778
  967POPC   C4A14438   1.624  13.772   6.689 -0.1309 -0.3026 -0.4242
  967POPC   C1B14439   1.165  15.011   5.769  0.2354  0.1299  0.0430
  967POPC   C2B14440   0.884  15.279   5.979 -0.1455  0.0864 -0.0371
  967POPC   C3B14441   0.469  15.195   6.106  0.1764 -0.0124 -0.1364
  967POPC   C4B14442   0.246  15.470   5.818 -0.1476 -0.5262 -0.2053
  968POPC   NC314443  14.152   5.139   5.474  0.2488 -0.0184  0.2704
  968POPC   PO414444  13.809   5.222   5.461 -0.2468 -0.0582  0.2711
  968POPC   GL114445  13.770   5.137   5.912  0.3692 -0.2820  0.0744
  968POPC   GL214446  13.891   4.863   6.092  0.1631 -0.0832 -0.2002
  968POPC   C1A14447  13.477   5.162   6.310 -0.1497  0.1611 -0.2538
  968POPC   D2A14448  13.582   4.963   6.625  0.0541 -0.1936 -0.1318
  968POPC   C3A14449  13.446   4.694   6.844  0.0271 -0.1072 -0.0776
  968POPC   C4A14450  13.410   4.597   7.259 -0.2380  0.3098  0.0286
  968POPC   C1B14451  14.098   4.972   6.491 -0.0258  0.1010  0.1620
  968POPC   C2B14452  14.091   5.236   6.888  0.2225 -0.1026  0.1130
  968POPC   C3B14453  14.149   5.299   7.355  0.0741 -0.0530  0.2613
  968POPC   C4B14454  14.097   5.132   7.759 -0.1689  0.1601  0.1352
  969POPC   NC314455  17.821   5.003   5.372  0.4906  0.4949 -0.0751
  969POPC   PO414456  18.042   5.396   5.496 -0.1438  0.2625 -0.1183
  969POPC   GL114457  17.896   5.650   5.862 -0.0782  0.0171  0.0755
  969POPC   GL214458  17.614   5.610   6.057  0.0017  0.0164  0.1034
  969POPC   C1A14459  18.095   5.425   6.280 -0.3045  0.0745  0.3844
  969POPC   D2A14460  18.261   5.434   6.624  0.0642  0.0178  0.3253
  969POPC   C3A14461  18.066   5.496   6.995  0.1655  0.0384  0.3726
  969POPC   C4A14462  18.000   5.848   7.264  0.0434  0.2802 -0.2656
  969POPC   C1B14463  17.917   5.913   6.309 -0.1586 -0.2165 -0.3210
  969POPC   C2B14464  18.138   5.954   6.776 -0.0994 -0.1253  0.1566
  969POPC   C3B14465  18.517   5.949   6.931  0.2121  0.2329 -0.2328
  969POPC   C4B14466  18.657   6.226   7.339  0.1832  0.0089  0.3622
  970POPC   NC314467   1.875   8.240   5.668  0.1015 -0.2292 -0.1645
  970POPC   PO414468   1.978   7.824   5.473 -0.4869 -0.2011 -0.0519
  970POPC   GL114469   2.098   7.815   5.935  0.2647  0.0779  0.2537
  970POPC   GL214470   2.083   8.077   6.103 -0.0461  0.0918 -0.2378
  970POPC   C1A14471   2.410   7.573   6.123  0.0013 -0.1569 -0.2854
  970POPC   D2A14472   2.660   7.479   6.444 -0.1540 -0.4705 -0.3383
  970POPC   C3A14473   2.491   7.547   6.730 -0.1090  0.0678 -0.1606
  970POPC   C4A14474   2.264   7.337   6.953 -0.3763  0.0907 -0.0220
  970POPC   C1B14475   2.231   8.109   6.492 -0.0979  0.1627 -0.1835
  970POPC   C2B14476   2.196   8.183   6.874 -0.0896  0.2009 -0.0948
  970POPC   C3B14477   2.268   7.865   7.194 -0.0062 -0.0127  0.1358
  970POPC   C4B14478   2.037   7.558   7.368 -0.0339  0.1155 -0.0859
  971POPC   NC314479   3.300  18.699   5.106 -0.1833 -0.0313  0.0451
  971POPC   PO414480   2.916  18.612   5.038 -0.2338  0.1786 -0.3312
  971POPC   GL114481   2.803  18.466   5.427  0.1615  0.1410 -0.3458
  971POPC   GL214482   2.808  18.641   5.774 -0.0654  0.1575 -0.3976
  971POPC   C1A14483   2.943  18.174   5.829  0.0469  0.0142  0.1598
  971POPC   D2A14484   3.185  18.294   6.077  0.3468 -0.2063 -0.0785
  971POPC   C3A14485   3.463  18.395   6.449  0.0108 -0.0915 -0.0314
  971POPC   C4A14486   3.438  18.586   6.814 -0.4969  0.2449 -0.0304
  971POPC   C1B14487   2.777  18.613   6.187 -0.0414  0.2030 -0.1489
  971POPC   C2B14488   2.950  18.390   6.492 -0.2431  0.0829  0.0466
  971POPC   C3B14489   2.805  18.465   6.849 -0.1675  0.0617 -0.0397
  971POPC   C4B14490   2.720  18.525   7.264  0.2916  0.2136  0.3577
  972POPC   NC314491   5.772   2.466   5.658 -0.2349  0.1771 -0.0804
  972POPC   PO414492   5.397   2.151   5.688  0.4015  0.0453 -0.0400
  972POPC   GL114493   5.155   2.180   6.042  0.1359  0.0737 -0.1083
  972POPC   GL214494   5.038   1.817   6.008 -0.2673 -0.1317 -0.1456
  972POPC   C1A14495   5.178   2.155   6.480 -0.1709 -0.1199 -0.3853
  972POPC   D2A14496   5.199   2.278   6.815  0.1442  0.3924 -0.2701
  972POPC   C3A14497   5.526   2.176   7.159 -0.0783 -0.1454 -0.0009
  972POPC   C4A14498   5.550   2.048   7.516  0.1551 -0.0558  0.0178
  972POPC   C1B14499   4.885   1.756   6.440 -0.0427 -0.5553  0.0426
  972POPC   C2B14500   4.904   1.877   6.889 -0.3235 -0.2364 -0.2382
  972POPC   C3B14501   4.746   2.071   7.154 -0.1005  0.0319 -0.1352
  972POPC   C4B14502   4.366   2.186   7.443  0.0457 -0.2283  0.2817
  973POPC   NC314503  13.477   9.667   5.551 -0.0040  0.1472 -0.0506
  973POPC   PO414504  13.137   9.809   5.839  0.1410  0.2712  0.1796
  973POPC   GL114505  13.384   9.941   6.172 -0.2421 -0.0173  0.0227
  973POPC   GL214506  13.264  10.089   6.461  0.3935  0.1634 -0.6116
  973POPC   C1A14507  13.435   9.600   6.406  0.1901 -0.0957 -0.0404
  973POPC   D2A14508  13.611   9.391   6.518 -0.3983  0.0023 -0.2995
  973POPC   C3A14509  13.530   9.374   6.894  0.0419  0.0724 -0.0617
  973POPC   C4A14510  13.518   9.323   7.307 -0.1074 -0.0920  0.0195
  973POPC   C1B14511  12.980  10.167   6.815 -0.0195 -0.2896 -0.1458
  973POPC   C2B14512  12.669  10.338   7.039  0.0692 -0.1099 -0.1049
  973POPC   C3B14513  12.431  10.318   7.312  0.1330 -0.1053  0.0090
  973POPC   C4B14514  12.413  10.076   7.687  0.1712 -0.4738  0.0994
  974POPC   NC314515  12.080   4.296   5.422 -0.1877  0.6387  0.0555
  974POPC   PO414516  12.442   4.270   5.722  0.0188 -0.0078  0.2128
  974POPC   GL114517  12.415   4.491   6.116 -0.2552  0.1408 -0.0395
  974POPC   GL214518  12.141   4.465   6.232  0.0161  0.2198 -0.0517
  974POPC   C1A14519  12.464   4.739   6.523 -0.1717  0.0586 -0.1380
  974POPC   D2A14520  12.688   4.959   6.822  0.0655 -0.0141  0.0009
  974POPC   C3A14521  12.995   4.866   7.151 -0.3074  0.1281  0.2482
  974POPC   C4A14522  13.272   4.970   7.534 -0.2370 -0.0028  0.0348
  974POPC   C1B14523  12.373   4.279   6.642  0.1907  0.2542  0.3763
  974POPC   C2B14524  12.517   4.531   6.992 -0.0860  0.0990  0.0305
  974POPC   C3B14525  12.806   4.407   7.281 -0.0504  0.2910  0.1976
  974POPC   C4B14526  13.113   4.146   7.601 -0.0195 -0.0981 -0.1751
  975POPC   NC314527  14.847  18.346   5.348 -0.2321  0.0963 -0.1329
  975POPC   PO414528  15.103  18.565   5.607  0.0498  0.0869 -0.0294
  975POPC   GL114529  15.046  18.371   5.876 -0.0378 -0.0152  0.3678
  975POPC   GL214530  15.243  18.247   6.131  0.2737 -0.0817 -0.1288
  975POPC   C1A14531  14.744  18.215   6.028  0.2858  0.3026  0.0041
  975POPC   D2A14532  14.756  18.040   6.388 -0.0817 -0.2685 -0.0638
  975POPC   C3A14533  14.524  18.164   6.767  0.1081  0.1117  0.4164
  975POPC   C4A14534  14.165  18.327   6.828 -0.3768  0.0318 -0.0268
  975POPC   C1B14535  15.365  18.019   6.481  0.0989  0.0909  0.2047
  975POPC   C2B14536  15.471  17.703   6.877  0.0695 -0.4115  0.1209
  975POPC   C3B14537  15.693  17.392   7.028  0.0937  0.0469 -0.0432
  975POPC   C4B14538  15.719  16.904   7.226 -0.2525  0.1179 -0.0921
  976POPC   NC314539   8.343   1.464   5.764 -0.1348  0.0544  0.1738
  976POPC   PO414540   8.584   1.097   5.818  0.1033 -0.1372 -0.0107
  976POPC   GL114541   8.492   1.106   6.193 -0.0047  0.1003 -0.0937
  976POPC   GL214542   8.153   1.105   6.109  0.0135 -0.1225 -0.0750
  976POPC   C1A14543   8.636   1.263   6.590  0.0212  0.3991 -0.0522
  976POPC   D2A14544   8.683   1.229   6.901  0.0712 -0.3511 -0.2128
  976POPC   C3A14545   8.375   1.183   7.208 -0.0274 -0.0477  0.1530
  976POPC   C4A14546   8.159   0.922   7.539  0.3362  0.1651 -0.1533
  976POPC   C1B14547   8.116   1.255   6.516 -0.3091 -0.2343 -0.2129
  976POPC   C2B14548   8.105   1.465   6.927 -0.1689 -0.0754  0.2599
  976POPC   C3B14549   8.074   1.473   7.456 -0.2221  0.2560 -0.0669
  976POPC   C4B14550   7.963   1.243   7.910  0.2630 -0.0972  0.3784
  977POPC   NC314551  16.858   4.948   5.814  0.0169 -0.2650  0.0802
  977POPC   PO414552  17.031   4.575   5.935 -0.0679 -0.1160  0.1016
  977POPC   GL114553  17.440   4.750   6.126  0.2918 -0.0123  0.0897
  977POPC   GL214554  17.654   4.632   6.044 -0.1033 -0.0662 -0.0094
  977POPC   C1A14555  17.569   5.078   6.373 -0.0397  0.0558  0.3285
  977POPC   D2A14556  17.515   5.245   6.798 -0.1434 -0.0467  0.0034
  977POPC   C3A14557  17.187   5.172   7.110  0.1052  0.1928 -0.2667
  977POPC   C4A14558  16.913   5.156   7.381 -0.4943  0.0901 -0.0605
  977POPC   C1B14559  17.741   4.554   6.502  0.1431 -0.0834  0.4256
  977POPC   C2B14560  17.480   4.731   6.830 -0.0924 -0.0564 -0.2797
  977POPC   C3B14561  17.559   4.786   7.313  0.2211 -0.0067 -0.2566
  977POPC   C4B14562  17.344   5.027   7.640 -0.0993  0.0582  0.0915
  978POPC   NC314563  15.262   2.042   5.345  0.2142  0.2730 -0.0035
  978POPC   PO414564  15.143   1.837   5.647 -0.1575 -0.0589 -0.2502
  978POPC   GL114565  15.160   1.743   6.049 -0.0608  0.0276  0.1437
  978POPC   GL214566  15.323   1.444   6.042 -0.0968  0.0856 -0.0801
  978POPC   C1A14567  15.250   1.883   6.392  0.1443 -0.1104 -0.1040
  978POPC   D2A14568  15.398   1.787   6.797 -0.0212 -0.2404 -0.0828
  978POPC   C3A14569  15.761   1.692   6.810 -0.2545 -0.0256 -0.2275
  978POPC   C4A14570  16.123   1.363   7.002 -0.1066 -0.2354  0.1683
  978POPC   C1B14571  15.196   1.353   6.437  0.1623  0.2165  0.1974
  978POPC   C2B14572  15.091   1.281   6.740 -0.2537 -0.0679 -0.0144
  978POPC   C3B14573  14.811   1.103   6.923 -0.0028 -0.2662 -0.2729
  978POPC   C4B14574  14.864   0.684   7.066  0.3216  0.2129 -0.3048
  979POPC   NC314575   5.720  14.760   5.124 -0.0961  0.1846 -0.5266
  979POPC   PO414576   5.275  14.669   5.321  0.3591 -0.0475  0.0186
  979POPC   GL114577   5.454  14.656   5.663  0.1117 -0.0104 -0.1231
  979POPC   GL214578   5.834  14.614   5.675  0.2872 -0.2752  0.0624
  979POPC   C1A14579   5.629  14.742   6.116  0.1620 -0.3439 -0.0193
  979POPC   D2A14580   5.766  14.806   6.465 -0.0142  0.1299  0.3045
  979POPC   C3A14581   5.547  14.753   6.880 -0.1672 -0.1603  0.2464
  979POPC   C4A14582   5.613  14.529   7.142 -0.0522  0.0886 -0.1055
  979POPC   C1B14583   6.079  14.613   5.990 -0.0841  0.1480 -0.1686
  979POPC   C2B14584   6.174  14.580   6.397  0.0157  0.0840 -0.2385
  979POPC   C3B14585   6.120  14.616   6.842 -0.0396  0.0645  0.2423
  979POPC   C4B14586   6.062  14.822   7.233  0.3533 -0.0829 -0.1586
  980POPC   NC314587  12.909   4.168   5.556  0.1401 -0.0996 -0.1205
  980POPC   PO414588  12.761   3.710   5.584  0.3006  0.0665 -0.0995
  980POPC   GL114589  12.623   3.832   5.960  0.1858 -0.0563 -0.2960
  980POPC   GL214590  12.415   3.554   6.045 -0.0611 -0.0358 -0.2522
  980POPC   C1A14591  12.921   3.870   6.310  0.0363  0.2551  0.1478
  980POPC   D2A14592  12.814   4.017   6.695 -0.4044  0.0072 -0.2228
  980POPC   C3A14593  12.567   3.987   7.007 -0.2581 -0.2216 -0.0514
  980POPC   C4A14594  12.307   4.149   7.299 -0.0501  0.1734  0.2529
  980POPC   C1B14595  12.620   3.512   6.470 -0.3201 -0.0867 -0.0886
  980POPC   C2B14596  12.494   3.452   6.892 -0.1078 -0.2270 -0.0846
  980POPC   C3B14597  12.353   3.091   7.234  0.1676  0.1278  0.0958
  980POPC   C4B14598  12.479   2.683   7.317  0.1171 -0.0395  0.0946
  981POPC   NC314599  18.199   3.637   5.720 -0.1085  0.2378  0.1840
  981POPC   PO414600  17.837   3.910   5.814 -0.0668 -0.0066 -0.1297
  981POPC   GL114601  17.768   4.011   6.207  0.0709  0.0142  0.0861
  981POPC   GL214602  17.478   4.183   6.188  0.1682 -0.3393  0.2948
  981POPC   C1A14603  17.878   4.089   6.672 -0.2003  0.0316 -0.1422
  981POPC   D2A14604  17.892   4.411   6.977  0.1522 -0.0730  0.1854
  981POPC   C3A14605  17.828   4.331   7.463  0.1834  0.1857 -0.0555
  981POPC   C4A14606  17.823   4.045   7.821 -0.0159 -0.0975 -0.3945
  981POPC   C1B14607  17.408   4.076   6.573  0.1845  0.0797 -0.0035
  981POPC   C2B14608  17.419   4.261   6.952 -0.0006 -0.4858 -0.2599
  981POPC   C3B14609  17.219   4.364   7.364 -0.3277  0.0331 -0.1591
  981POPC   C4B14610  17.331   4.246   7.765  0.0390  0.2246  0.0357
  982POPC   NC314611  16.722  17.065   5.608 -0.0673  0.3800  0.0056
  982POPC   PO414612  17.142  16.862   5.642 -0.2701  0.1918  0.0668
  982POPC   GL114613  17.285  17.025   6.002  0.1913  0.2705  0.0451
  982POPC   GL214614  17.528  17.202   6.047 -0.2524 -0.0738  0.1842
  982POPC   C1A14615  17.241  16.893   6.403  0.0444  0.2443 -0.1073
  982POPC   D2A14616  17.465  16.825   6.770  0.0215 -0.0410  0.0750
  982POPC   C3A14617  17.330  16.901   7.203 -0.2348  0.1501  0.0997
  982POPC   C4A14618  17.357  17.115   7.602 -0.1512 -0.1715 -0.2320
  982POPC   C1B14619  17.636  17.258   6.490 -0.2972  0.2282  0.1006
  982POPC   C2B14620  17.544  17.319   6.939 -0.0505 -0.0340  0.1405
  982POPC   C3B14621  17.679  17.373   7.303 -0.0492  0.1455 -0.0229
  982POPC   C4B14622  17.419  17.603   7.643 -0.0279  0.0276  0.0753
  983POPC   NC314623  16.613   9.938   5.492 -0.1604  0.1531 -0.0500
  983POPC   PO414624  16.460  10.319   5.571 -0.0509  0.0965  0.1757
  983POPC   GL114625  16.610  10.200   5.893 -0.0466  0.1012 -0.2944
  983POPC   GL214626  16.195  10.194   6.002 -0.0590  0.0442  0.3439
  983POPC   C1A14627  16.657  10.047   6.261  0.2939 -0.1795 -0.1352
  983POPC   D2A14628  16.710   9.863   6.608 -0.1165 -0.0501  0.0658
  983POPC   C3A14629  16.783   9.399   6.775 -0.0296 -0.1792  0.2422
  983POPC   C4A14630  16.833   9.040   6.932  0.1781 -0.1392 -0.1655
  983POPC   C1B14631  16.133   9.921   6.375 -0.3645  0.5636 -0.0449
  983POPC   C2B14632  16.305   9.639   6.770 -0.3471  0.2518 -0.4480
  983POPC   C3B14633  16.519   9.541   7.196  0.0540  0.2817 -0.0051
  983POPC   C4B14634  16.492   9.592   7.591 -0.3347  0.1206 -0.1012
  984YOPC   NC314635  17.711  15.338   5.028 -0.1246  0.1156 -0.3006
  984YOPC   PO414636  17.887  15.671   5.224 -0.2600  0.2112 -0.0700
  984YOPC   GL114637  17.738  15.475   5.563  0.2656  0.1182 -0.2004
  984YOPC   GL214638  17.459  15.400   5.762 -0.1038 -0.1442 -0.0874
  984YOPC   C1A14639  17.926  15.049   5.820 -0.0351 -0.0886 -0.2145
  984YOPC   D2A14640  18.260  15.068   6.094 -0.1386 -0.0703 -0.3052
  984YOPC   C3A14641  18.590  15.400   6.294 -0.1925 -0.0878  0.1561
  984YOPC   C4A14642  18.726  15.706   6.629  0.1804  0.1096 -0.0028
  984YOPC   C1B14643  17.226  15.174   6.165  0.0248  0.1483  0.1688
  984YOPC   C2B14644  17.066  15.248   6.595  0.0267 -0.0419 -0.3473
  984YOPC   D3B14645  17.240  15.392   6.908 -0.5376  0.2337 -0.2938
  984YOPC   C4B14646  17.706  15.628   7.030 -0.0156 -0.0807 -0.1891
  985YOPC   NC314647  13.044   1.646   5.554  0.3374 -0.1624  0.2011
  985YOPC   PO414648  12.810   1.882   5.892  0.0914  0.0290  0.0427
  985YOPC   GL114649  12.979   2.054   6.237  0.2240  0.2783 -0.0338
  985YOPC   GL214650  13.168   2.312   6.177 -0.0334 -0.0020  0.5120
  985YOPC   C1A14651  12.891   1.957   6.576  0.3401 -0.0516  0.0465
  985YOPC   D2A14652  13.103   2.090   6.932  0.1046  0.0963 -0.3414
  985YOPC   C3A14653  13.309   2.401   7.049 -0.0125 -0.0031  0.4475
  985YOPC   C4A14654  13.204   2.756   6.981 -0.1162  0.1886 -0.1125
  985YOPC   C1B14655  13.093   2.472   6.585 -0.2890  0.1007  0.1157
  985YOPC   C2B14656  12.763   2.458   6.969 -0.0356  0.0072 -0.0615
  985YOPC   D3B14657  12.849   2.345   7.399 -0.1887  0.0341  0.0388
  985YOPC   C4B14658  13.242   2.013   7.399  0.0978  0.0325  0.1082
  986YOPC   NC314659  12.231   5.510   5.266 -0.0260  0.2231 -0.0374
  986YOPC   PO414660  12.273   5.621   5.788  0.0703  0.1083  0.1376
  986YOPC   GL114661  12.146   5.590   6.357  0.1456 -0.0534  0.4173
  986YOPC   GL214662  11.840   5.677   6.468 -0.0391 -0.2053 -0.0277
  986YOPC   C1A14663  12.348   5.651   6.716 -0.0425 -0.0634 -0.2541
  986YOPC   D2A14664  12.436   5.395   7.053 -0.1461 -0.1300 -0.0509
  986YOPC   C3A14665  12.392   5.556   7.401 -0.0868 -0.1084  0.3536
  986YOPC   C4A14666  12.331   5.587   7.821  0.0007 -0.2832  0.0294
  986YOPC   C1B14667  11.522   5.545   6.612 -0.1378  0.1575  0.1008
  986YOPC   C2B14668  11.208   5.696   6.768  0.1185 -0.2799  0.0393
  986YOPC   D3B14669  11.301   5.759   7.209 -0.0329  0.2304 -0.0397
  986YOPC   C4B14670  11.146   5.801   7.620  0.0848 -0.0598  0.0740
  987YOPC   NC314671   9.014   3.293   5.794 -0.1525  0.0956 -0.2481
  987YOPC   PO414672   8.564   3.547   5.662  0.1447 -0.3637  0.2575
  987YOPC   GL114673   8.765   3.692   6.085 -0.2535  0.1920 -0.2349
  987YOPC   GL214674   9.136   3.604   6.216  0.2081 -0.1585  0.0151
  987YOPC   C1A14675   8.562   3.948   6.322 -0.1846  0.2071 -0.1111
  987YOPC   D2A14676   8.469   4.255   6.777  0.2210  0.4380 -0.2054
  987YOPC   C3A14677   8.214   4.089   6.991  0.1910  0.0916 -0.2107
  987YOPC   C4A14678   7.943   4.118   7.371  0.0095  0.0848 -0.0663
  987YOPC   C1B14679   8.979   3.750   6.562  0.1504  0.3927 -0.1011
  987YOPC   C2B14680   8.607   3.805   6.810 -0.1741  0.1834  0.2805
  987YOPC   D3B14681   8.554   3.854   7.223  0.0293  0.0904 -0.1019
  987YOPC   C4B14682   8.477   4.121   7.624  0.3470  0.0454  0.3739
  988YOPC   NC314683  12.197  10.524   5.503  0.0759 -0.1824 -0.2726
  988YOPC   PO414684  12.521  10.609   5.741  0.1417  0.2548  0.1585
  988YOPC   GL114685  12.513  10.659   6.169  0.0186 -0.1580 -0.0297
  988YOPC   GL214686  12.821  10.573   6.366 -0.2528  0.2546 -0.0377
  988YOPC   C1A14687  12.385  10.432   6.584  0.2141 -0.0526  0.0134
  988YOPC   D2A14688  12.244  10.113   6.768 -0.3702  0.1538 -0.1967
  988YOPC   C3A14689  12.351   9.852   7.115 -0.4641 -0.0991  0.0083
  988YOPC   C4A14690  12.180   9.595   7.532 -0.1178 -0.0268  0.0424
  988YOPC   C1B14691  12.921  10.744   6.787  0.1460 -0.0600  0.1967
  988YOPC   C2B14692  13.010  10.653   7.212 -0.2879 -0.2149 -0.3405
  988YOPC   D3B14693  13.116  10.297   7.353 -0.0063  0.2871 -0.2725
  988YOPC   C4B14694  12.941   9.980   7.648 -0.3923 -0.3387 -0.1018
  989YOPC   NC314695   5.532   3.910   5.334  0.2134 -0.2870 -0.1078
  989YOPC   PO414696   5.299   3.583   5.394 -0.1315  0.0340  0.0878
  989YOPC   GL114697   5.340   3.560   5.853  0.0101  0.0558 -0.1447
  989YOPC   GL214698   5.047   3.401   5.960 -0.0678  0.0242  0.2864
  989YOPC   C1A14699   5.469   3.253   6.114  0.1940  0.0878 -0.0461
  989YOPC   D2A14700   5.251   3.212   6.498 -0.1229 -0.0023  0.0855
  989YOPC   C3A14701   5.425   3.415   6.656  0.1647  0.0282  0.1239
  989YOPC   C4A14702   5.492   3.452   7.003 -0.0509  0.1322  0.2356
  989YOPC   C1B14703   4.789   3.457   6.236  0.0503 -0.0283  0.0330
  989YOPC   C2B14704   4.535   3.568   6.664  0.0838 -0.0213 -0.3814
  989YOPC   D3B14705   4.254   3.487   6.927 -0.0706 -0.1780 -0.2470
  989YOPC   C4B14706   4.027   3.521   7.274 -0.1667 -0.2175 -0.1592
  990YOPC   NC314707   3.447  12.881   5.608 -0.1107 -0.0612  0.0876
  990YOPC   PO414708   2.999  12.994   5.471  0.2713  0.0488  0.0994
  990YOPC   GL114709   2.961  12.754   5.779 -0.1355  0.1729  0.1404
  990YOPC   GL214710   3.081  12.764   6.078  0.2629 -0.0185 -0.0014
  990YOPC   C1A14711   3.097  12.320   6.000  0.0467  0.0936  0.0127
  990YOPC   D2A14712   3.282  11.998   6.060 -0.0257 -0.2888  0.1124
  990YOPC   C3A14713   3.772  12.114   6.191  0.3807  0.0643  0.2023
  990YOPC   C4A14714   3.990  12.226   6.436 -0.3316 -0.2976  0.0775
  990YOPC   C1B14715   2.949  12.630   6.416  0.0482  0.1260 -0.1138
  990YOPC   C2B14716   2.768  12.497   6.715 -0.1717 -0.2504 -0.0462
  990YOPC   D3B14717   2.537  12.773   6.941 -0.0964  0.2062  0.1876
  990YOPC   C4B14718   2.525  13.107   7.238 -0.0465 -0.0289  0.3589
  991YOPC   NC314719   3.170  13.281   5.050 -0.0172  0.1249 -0.0063
  991YOPC   PO414720   2.859  13.479   5.279 -0.3581 -0.0005  0.1955
  991YOPC   GL114721   2.785  13.412   5.629  0.1432 -0.1227 -0.0689
  991YOPC   GL214722   2.617  13.614   5.732  0.0664  0.2537  0.1006
  991YOPC   C1A14723   2.638  13.236   6.061  0.0170  0.0445 -0.2111
  991YOPC   D2A14724   2.254  13.244   6.394 -0.2490 -0.2076  0.0960
  991YOPC   C3A14725   2.151  12.913   6.549 -0.0887 -0.0717  0.0287
  991YOPC   C4A14726   2.008  12.625   6.882  0.0036 -0.5483 -0.1025
  991YOPC   C1B14727   2.188  13.480   5.934  0.2438  0.1861 -0.1220
  991YOPC   C2B14728   1.822  13.546   6.301 -0.1571  0.2230 -0.0489
  991YOPC   D3B14729   1.949  13.444   6.693  0.1139  0.2269 -0.0026
  991YOPC   C4B14730   1.894  13.182   7.016 -0.1153  0.2475 -0.0362
  992YOPC   NC314731  18.140  16.027   5.474 -0.2332 -0.0785  0.0706
  992YOPC   PO414732  18.330  15.628   5.613  0.1156  0.3329  0.0841
  992YOPC   GL114733  18.204  15.800   6.050  0.2266 -0.2387 -0.0703
  992YOPC   GL214734  17.857  15.663   6.055 -0.0921 -0.0211 -0.1679
  992YOPC   C1A14735  18.399  15.971   6.410 -0.3007 -0.0775 -0.0809
  992YOPC   D2A14736  18.307  16.192   6.731 -0.0915 -0.0637 -0.4384
  992YOPC   C3A14737  18.044  16.040   7.040  0.3779 -0.1184  0.4172
  992YOPC   C4A14738  18.255  16.054   7.485  0.0139 -0.1073  0.2994
  992YOPC   C1B14739  17.722  15.295   6.224  0.1265 -0.0428  0.0277
  992YOPC   C2B14740  17.621  15.216   6.635  0.0174 -0.0847  0.2188
  992YOPC   D3B14741  18.124  15.141   6.682  0.2841  0.1543  0.1861
  992YOPC   C4B14742  18.521  15.247   6.757 -0.0143 -0.0765  0.0381
  993YOPC   NC314743  13.621  14.983   5.391 -0.2333  0.2071 -0.4011
  993YOPC   PO414744  13.827  14.646   5.159 -0.1311  0.0165 -0.2828
  993YOPC   GL114745  13.845  14.643   5.749  0.0617 -0.1529  0.1101
  993YOPC   GL214746  14.124  14.532   5.986  0.3830  0.1053  0.0317
  993YOPC   C1A14747  13.632  14.578   6.179  0.0694  0.0408  0.0056
  993YOPC   D2A14748  13.611  14.711   6.542 -0.0121  0.0781  0.1966
  993YOPC   C3A14749  13.935  14.766   6.828  0.0268 -0.0279  0.2408
  993YOPC   C4A14750  14.059  14.722   7.191  0.1310 -0.2463 -0.2785
  993YOPC   C1B14751  14.042  14.471   6.435  0.0646  0.2308 -0.0214
  993YOPC   C2B14752  14.079  14.311   6.947 -0.3078  0.3747  0.0595
  993YOPC   D3B14753  14.191  13.911   7.200  0.1686  0.0091  0.1219
  993YOPC   C4B14754  14.560  13.909   7.476 -0.1278 -0.3558 -0.2105
  994YOPC   NC314755   5.754  11.379   5.449  0.0245 -0.1637  0.0062
  994YOPC   PO414756   5.623  10.977   5.374  0.1243  0.2776  0.0720
  994YOPC   GL114757   5.710  11.012   5.770 -0.1759 -0.1040  0.0225
  994YOPC   GL214758   6.040  11.133   5.784  0.3426  0.1176 -0.2067
  994YOPC   C1A14759   5.733  11.272   6.162  0.0067  0.1117 -0.1407
  994YOPC   D2A14760   5.628  11.157   6.641 -0.3607  0.1302 -0.1816
  994YOPC   C3A14761   5.934  11.074   6.919  0.0713 -0.3121  0.0067
  994YOPC   C4A14762   6.072  11.280   7.305  0.1091 -0.2309  0.1873
  994YOPC   C1B14763   6.200  10.915   6.060  0.1720  0.0947 -0.1171
  994YOPC   C2B14764   5.938  10.815   6.332  0.2628 -0.2399  0.1397
  994YOPC   D3B14765   5.924  10.569   6.729 -0.0214 -0.2332 -0.2643
  994YOPC   C4B14766   5.842  10.681   7.188 -0.0831  0.2208 -0.2836
  995YOPC   NC314767   4.262  15.208   5.285 -0.2166  0.1698  0.5203
  995YOPC   PO414768   4.570  14.880   5.421 -0.0204 -0.0085 -0.1074
  995YOPC   GL114769   4.475  14.905   5.813 -0.0747  0.2090 -0.0887
  995YOPC   GL214770   4.247  14.786   6.022  0.0750 -0.0286  0.3435
  995YOPC   C1A14771   4.624  15.069   6.185 -0.0601  0.0103  0.2395
  995YOPC   D2A14772   4.695  15.096   6.594 -0.3229 -0.0042  0.1758
  995YOPC   C3A14773   4.443  15.129   6.986 -0.1735  0.4575 -0.2355
  995YOPC   C4A14774   4.309  15.390   7.286 -0.0377  0.0106  0.0864
  995YOPC   C1B14775   4.244  14.914   6.573 -0.2688  0.0343 -0.2736
  995YOPC   C2B14776   4.141  14.670   7.072 -0.0662 -0.3511  0.3419
  995YOPC   D3B14777   4.347  14.711   7.467 -0.0175 -0.0258  0.1133
  995YOPC   C4B14778   4.232  14.560   7.787  0.4196  0.2113 -0.0558
  996YOPC   NC314779   8.009  18.118   5.421  0.0359  0.0229  0.1154
  996YOPC   PO414780   7.800  17.810   5.484 -0.0579 -0.1486 -0.0807
  996YOPC   GL114781   8.047  17.880   5.860  0.0066  0.5201  0.1330
  996YOPC   GL214782   8.255  18.143   5.864 -0.1559  0.1800  0.2552
  996YOPC   C1A14783   8.063  17.721   6.257  0.3408  0.1060 -0.2790
  996YOPC   D2A14784   8.276  17.610   6.596  0.2181  0.0346  0.0657
  996YOPC   C3A14785   8.128  17.315   6.848  0.0440  0.0496  0.1144
  996YOPC   C4A14786   8.312  17.136   7.319 -0.0143  0.0376 -0.1777
  996YOPC   C1B14787   8.266  18.147   6.333 -0.1852 -0.1960  0.1944
  996YOPC   C2B14788   8.275  18.143   6.821 -0.2433  0.0161  0.0998
  996YOPC   D3B14789   8.533  18.226   7.147 -0.0704  0.3075 -0.1279
  996YOPC   C4B14790   8.685  18.064   7.605  0.0623  0.1111 -0.1361
  997YOPC   NC314791   9.018  18.013   5.285  0.1699 -0.0700  0.1647
  997YOPC   PO414792   9.167  18.358   5.361 -0.0181  0.0640  0.0125
  997YOPC   GL114793   9.026  18.231   5.756 -0.1310 -0.0908  0.0464
  997YOPC   GL214794   8.933  18.039   5.786  0.0638 -0.0691  0.0932
  997YOPC   C1A14795   9.133  18.242   6.162  0.2329  0.3659 -0.0009
  997YOPC   D2A14796   9.553  18.494   6.225  0.2100  0.0558 -0.3510
  997YOPC   C3A14797  10.041  18.575   6.269  0.0578  0.1626 -0.2336
  997YOPC   C4A14798  10.520  18.708   6.307 -0.0270 -0.0796 -0.1081
  997YOPC   C1B14799   8.755  17.916   6.113  0.2324  0.3320 -0.1953
  997YOPC   C2B14800   8.748  18.017   6.553  0.1485  0.0360 -0.1766
  997YOPC   D3B14801   9.045  18.164   6.699 -0.0095 -0.1219  0.2233
  997YOPC   C4B14802   9.301  18.501   6.722 -0.4934 -0.2658 -0.0994
  998YOPC   NC314803   2.716   5.313   5.154 -0.1678 -0.1407 -0.1187
  998YOPC   PO414804   2.622   5.395   5.632 -0.0002  0.0316  0.2449
  998YOPC   GL114805   2.518   5.137   6.004 -0.0070 -0.0189  0.0231
  998YOPC   GL214806   2.622   4.910   5.845  0.0895 -0.0809  0.0759
  998YOPC   C1A14807   2.546   4.954   6.393 -0.1828 -0.2218 -0.0158
  998YOPC   D2A14808   2.751   4.929   6.753 -0.1047  0.0821  0.1530
  998YOPC   C3A14809   2.739   4.658   6.989 -0.1526 -0.1371  0.2323
  998YOPC   C4A14810   2.369   4.548   7.207 -0.0062  0.1413 -0.0397
  998YOPC   C1B14811   2.498   4.604   6.093 -0.3497  0.2435  0.2069
  998YOPC   C2B14812   2.208   4.395   6.352  0.0642 -0.2725  0.1028
  998YOPC   D3B14813   2.166   4.605   6.769  0.4726 -0.1448  0.1950
  998YOPC   C4B14814   2.097   5.004   7.042  0.1577 -0.1272 -0.3747
  999YOPC   NC314815   6.599  15.265   5.036 -0.0803  0.0076  0.1184
  999YOPC   PO414816   6.351  14.929   5.193  0.0818  0.3808 -0.0625
  999YOPC   GL114817   6.354  14.769   5.567  0.1916  0.2519 -0.3180
  999YOPC   GL214818   6.431  14.977   5.867 -0.1382 -0.0044 -0.0765
  999YOPC   C1A14819   6.499  14.409   5.955 -0.0462  0.1107  0.1686
  999YOPC   D2A14820   6.568  14.265   6.322  0.0824 -0.1142 -0.1253
  999YOPC   C3A14821   6.543  14.322   6.802  0.1713 -0.1330 -0.1667
  999YOPC   C4A14822   6.468  14.521   7.222  0.3232  0.2002 -0.1956
  999YOPC   C1B14823   6.160  15.080   6.260  0.1187  0.0091  0.0776
  999YOPC   C2B14824   6.070  15.093   6.748 -0.1022  0.1961  0.2231
  999YOPC   D3B14825   6.203  15.263   6.978 -0.0848 -0.0854  0.1877
  999YOPC   C4B14826   6.231  15.725   7.119 -0.1348 -0.2169  0.0833
 1000YOPC   NC314827   4.870   2.380   5.683  0.0926  0.1948  0.1596
 1000YOPC   PO414828   4.881   1.972   5.578 -0.0612  0.2128 -0.3666
 1000YOPC   GL114829   4.552   1.952   5.927 -0.2815  0.0162  0.0881
 1000YOPC   GL214830   4.126   1.918   5.867 -0.0330  0.4205 -0.0039
 1000YOPC   C1A14831   4.356   1.987   6.373  0.1298  0.0916 -0.0458
 1000YOPC   D2A14832   4.428   2.030   6.784 -0.0180  0.0739  0.1554
 1000YOPC   C3A14833   4.220   2.315   6.938  0.0207  0.0990  0.0003
 1000YOPC   C4A14834   4.179   2.648   7.087  0.4587 -0.0972 -0.1522
 1000YOPC   C1B14835   4.011   1.661   6.203  0.2301 -0.0663  0.2642
 1000YOPC   C2B14836   4.016   1.588   6.599 -0.0290 -0.0223 -0.0146
 1000YOPC   D3B14837   3.930   1.876   6.937 -0.1109 -0.2758 -0.1364
 1000YOPC   C4B14838   3.893   2.233   7.315 -0.1580 -0.1348 -0.3489
 1001YOPC   NC314839  18.648  13.925   5.158  0.0805  0.0859  0.0483
 1001YOPC   PO414840  18.272  14.169   5.252 -0.0711 -0.0441 -0.0170
 1001YOPC   GL114841  18.078  13.978   5.577  0.1109 -0.2132  0.2025
 1001YOPC   GL214842  18.188  13.670   5.559 -0.1019 -0.0745  0.1120
 1001YOPC   C1A14843  17.966  13.952   5.989 -0.3198  0.2832  0.1750
 1001YOPC   D2A14844  18.233  13.970   6.364  0.0982 -0.1379 -0.2185
 1001YOPC   C3A14845  18.218  14.339   6.604 -0.0891 -0.1168  0.0838
 1001YOPC   C4A14846  18.295  14.706   6.539 -0.3143 -0.0023  0.0166
 1001YOPC   C1B14847  18.373  13.650   5.965 -0.2217  0.0155 -0.0800
 1001YOPC   C2B14848  18.805  13.643   6.075  0.1823 -0.1626  0.0565
 1001YOPC   D3B14849  19.004  13.712   6.382  0.1381  0.1237 -0.1284
 1001YOPC   C4B14850  18.965  13.887   6.688 -0.1458 -0.1941 -0.1035
 1002YOPC   NC314851   3.106   5.496   5.691  0.3443 -0.1937  0.1048
 1002YOPC   PO414852   3.115   5.064   5.883  0.0071 -0.0019  0.0329
 1002YOPC   GL114853   3.096   4.916   6.254 -0.2014 -0.0960  0.0597
 1002YOPC   GL214854   3.206   5.163   6.451  0.3058 -0.0791 -0.0734
 1002YOPC   C1A14855   2.826   4.506   6.476  0.2219 -0.0262 -0.1326
 1002YOPC   D2A14856   2.539   4.257   6.689 -0.1011  0.2971 -0.2159
 1002YOPC   C3A14857   2.544   3.862   6.918 -0.0829 -0.1061  0.0838
 1002YOPC   C4A14858   2.717   3.473   6.896  0.1380 -0.0317  0.2330
 1002YOPC   C1B14859   3.571   5.158   6.711 -0.1862 -0.0345 -0.3435
 1002YOPC   C2B14860   3.915   4.929   6.853  0.3780  0.1205  0.0760
 1002YOPC   D3B14861   3.946   4.692   6.434 -0.2729 -0.0673 -0.3091
 1002YOPC   C4B14862   4.110   4.836   5.972  0.1988  0.0121 -0.0468
 1003YOPC   NC314863   7.377   4.115   5.028 -0.0667 -0.2767  0.0071
 1003YOPC   PO414864   7.254   3.997   5.513  0.0014  0.0304 -0.0549
 1003YOPC   GL114865   7.166   4.080   5.942  0.0515  0.2098  0.2108
 1003YOPC   GL214866   6.779   4.101   6.008 -0.1908  0.0574  0.1637
 1003YOPC   C1A14867   7.073   3.991   6.432 -0.0290 -0.2826 -0.0095
 1003YOPC   D2A14868   6.974   4.155   6.745 -0.1027 -0.2499 -0.2566
 1003YOPC   C3A14869   7.172   4.336   7.116  0.0878 -0.3591  0.1214
 1003YOPC   C4A14870   7.350   4.366   7.442  0.2443  0.0194 -0.1781
 1003YOPC   C1B14871   6.567   4.036   6.468  0.0344  0.1156 -0.0111
 1003YOPC   C2B14872   6.597   3.867   6.936 -0.0475 -0.1536 -0.1663
 1003YOPC   D3B14873   6.680   3.620   7.295 -0.0592 -0.4098  0.0264
 1003YOPC   C4B14874   6.910   3.544   7.619  0.0382 -0.1751 -0.0238
 1004YOPC   NC314875   8.857   5.836   5.724  0.1655  0.0618 -0.0968
 1004YOPC   PO414876   8.576   5.523   5.810  0.0062  0.2444  0.0280
 1004YOPC   GL114877   8.515   5.779   6.115  0.2578  0.2289  0.2476
 1004YOPC   GL214878   8.469   6.131   5.900 -0.3809 -0.2493  0.2189
 1004YOPC   C1A14879   8.297   5.826   6.508  0.1628  0.1251 -0.1894
 1004YOPC   D2A14880   8.111   5.963   6.980  0.0395  0.1852 -0.3145
 1004YOPC   C3A14881   8.400   5.757   7.263  0.6281 -0.0159  0.0707
 1004YOPC   C4A14882   8.439   5.514   7.593  0.0119  0.0997  0.0602
 1004YOPC   C1B14883   8.325   6.388   6.177  0.0481 -0.1049 -0.3502
 1004YOPC   C2B14884   8.306   6.675   6.427 -0.2044 -0.0547  0.0979
 1004YOPC   D3B14885   8.348   7.001   6.635  0.0463 -0.0823  0.1644
 1004YOPC   C4B14886   8.523   7.251   6.924 -0.2622 -0.1858  0.2582
 1005YOPC   NC314887   1.567   9.107   5.787  0.2126  0.4525  0.0119
 1005YOPC   PO414888   1.955   8.859   5.703  0.1123 -0.0195  0.0898
 1005YOPC   GL114889   2.219   8.890   6.096 -0.0416 -0.0783  0.0479
 1005YOPC   GL214890   2.275   8.536   6.239 -0.0318 -0.1498 -0.0334
 1005YOPC   C1A14891   2.425   9.036   6.452 -0.0661  0.0521  0.1336
 1005YOPC   D2A14892   2.375   8.993   6.897  0.0008 -0.2321  0.2506
 1005YOPC   C3A14893   2.471   8.702   7.174  0.0692  0.0372  0.0181
 1005YOPC   C4A14894   2.319   8.386   7.318  0.4272  0.3211 -0.2736
 1005YOPC   C1B14895   2.428   8.543   6.633  0.0319  0.0914 -0.0069
 1005YOPC   C2B14896   2.722   8.450   6.781  0.0938  0.0032  0.2277
 1005YOPC   D3B14897   2.879   8.681   6.874 -0.1510 -0.0790 -0.2937
 1005YOPC   C4B14898   3.273   8.745   7.033  0.0060  0.1097 -0.2009
 1006YOPC   NC314899  12.067   0.635   5.611  0.1651  0.0289 -0.1411
 1006YOPC   PO414900  11.996   1.052   5.613 -0.0937 -0.1136 -0.0957
 1006YOPC   GL114901  11.766   1.204   6.039 -0.3219  0.1608 -0.2755
 1006YOPC   GL214902  11.698   1.556   6.131 -0.0860  0.2548 -0.0369
 1006YOPC   C1A14903  11.950   1.230   6.443 -0.2155 -0.0747  0.0746
 1006YOPC   D2A14904  12.335   1.091   6.555  0.0188 -0.2553  0.0612
 1006YOPC   C3A14905  12.471   1.146   7.029  0.1080  0.0835 -0.2683
 1006YOPC   C4A14906  12.722   1.238   7.418 -0.2782  0.2993  0.3745
 1006YOPC   C1B14907  11.545   1.530   6.561  0.0754 -0.0703 -0.0428
 1006YOPC   C2B14908  11.689   1.404   6.998 -0.2809  0.1175 -0.0296
 1006YOPC   D3B14909  11.552   1.041   7.263 -0.0560  0.2322  0.0714
 1006YOPC   C4B14910  11.480   0.700   7.552  0.0168  0.0483  0.0828
 1007YOPC   NC314911  16.052   2.693   5.480 -0.2752  0.2812 -0.0862
 1007YOPC   PO414912  15.999   3.186   5.607 -0.0526 -0.1094  0.2872
 1007YOPC   GL114913  16.084   3.452   6.027  0.2383  0.0282  0.1998
 1007YOPC   GL214914  16.308   3.272   6.039 -0.1980 -0.0834  0.1947
 1007YOPC   C1A14915  16.052   3.621   6.485  0.1297  0.0338 -0.3117
 1007YOPC   D2A14916  15.936   3.471   6.867  0.0915 -0.2690 -0.2297
 1007YOPC   C3A14917  15.976   3.588   7.378  0.0762  0.1259  0.0642
 1007YOPC   C4A14918  16.057   3.956   7.600 -0.1458 -0.0975 -0.2855
 1007YOPC   C1B14919  16.355   3.204   6.532 -0.3111 -0.2724 -0.2070
 1007YOPC   C2B14920  16.348   2.922   6.861 -0.0962 -0.1346 -0.2037
 1007YOPC   D3B14921  16.029   2.942   7.077  0.2881  0.0020 -0.0321
 1007YOPC   C4B14922  15.757   3.154   7.319 -0.3239 -0.0803  0.3917
 1008YOPC   NC314923   1.558  16.265   5.023  0.0851  0.1138  0.1935
 1008YOPC   PO414924   1.671  15.751   5.097  0.0568 -0.0628  0.1960
 1008YOPC   GL114925   1.668  15.572   5.466  0.1274 -0.1665 -0.1232
 1008YOPC   GL214926   1.956  15.462   5.615  0.3610  0.1507  0.0176
 1008YOPC   C1A14927   1.542  15.365   5.888  0.3051  0.0866 -0.0480
 1008YOPC   D2A14928   1.331  15.457   6.204 -0.0613  0.1138 -0.1822
 1008YOPC   C3A14929   1.050  15.246   6.463  0.1308  0.0754  0.1848
 1008YOPC   C4A14930   0.747  15.029   6.475  0.2208  0.1667  0.1238
 1008YOPC   C1B14931   2.049  15.409   5.974 -0.0372  0.0088 -0.1558
 1008YOPC   C2B14932   1.898  15.565   6.339  0.1009  0.2517 -0.0805
 1008YOPC   D3B14933   2.199  15.612   6.775 -0.2149  0.1753  0.6765
 1008YOPC   C4B14934   2.150  15.666   7.155 -0.2557  0.0814 -0.1111
 1009YOPC   NC314935   6.774  16.182   5.520 -0.1498  0.0214 -0.1411
 1009YOPC   PO414936   7.189  15.944   5.503 -0.1779 -0.0483  0.1758
 1009YOPC   GL114937   7.158  16.003   5.927  0.0333  0.0343  0.0319
 1009YOPC   GL214938   6.972  15.794   5.952 -0.0205 -0.0558  0.1388
 1009YOPC   C1A14939   7.164  16.181   6.331 -0.1811 -0.1978  0.2741
 1009YOPC   D2A14940   7.271  16.319   6.832 -0.1991  0.0898 -0.0682
 1009YOPC   C3A14941   7.154  16.134   7.129  0.0169  0.2680  0.2097
 1009YOPC   C4A14942   7.075  16.130   7.505 -0.1536  0.3763 -0.0573
 1009YOPC   C1B14943   6.852  15.690   6.362  0.0427 -0.4829 -0.1376
 1009YOPC   C2B14944   7.016  15.893   6.722  0.1660 -0.0974  0.1244
 1009YOPC   D3B14945   7.118  15.650   7.071 -0.0206 -0.1058 -0.0481
 1009YOPC   C4B14946   7.244  15.655   7.429 -0.0712  0.0065  0.1187
 1010YOPC   NC314947   7.475  12.826   5.533  0.0644 -0.0488 -0.0019
 1010YOPC   PO414948   7.904  12.863   5.693  0.0911 -0.2401 -0.0455
 1010YOPC   GL114949   8.084  12.530   5.939  0.0770 -0.0271  0.0766
 1010YOPC   GL214950   8.471  12.439   5.949 -0.1561 -0.2526  0.2794
 1010YOPC   C1A14951   8.158  12.321   6.312  0.0658 -0.2469  0.1817
 1010YOPC   D2A14952   8.005  12.029   6.634  0.1706 -0.2045 -0.3950
 1010YOPC   C3A14953   7.941  12.115   7.066  0.1154 -0.0319 -0.0619
 1010YOPC   C4A14954   7.626  12.224   7.413  0.2014 -0.0526  0.2239
 1010YOPC   C1B14955   8.452  12.028   5.967 -0.1634  0.0217  0.1026
 1010YOPC   C2B14956   8.703  11.621   6.089 -0.0607  0.0408  0.1185
 1010YOPC   D3B14957   8.392  11.225   6.200  0.0755 -0.1159  0.2171
 1010YOPC   C4B14958   8.455  10.955   6.512  0.2382 -0.3161  0.0503
 1011YOPC   NC314959   3.883  18.436   4.669  0.1965  0.2168 -0.3262
 1011YOPC   PO414960   3.599  18.385   4.957  0.2100  0.0458 -0.0632
 1011YOPC   GL114961   3.767  18.513   5.397 -0.1862  0.0545 -0.0207
 1011YOPC   GL214962   3.452  18.522   5.566 -0.1520 -0.0421  0.1034
 1011YOPC   C1A14963   4.006  18.165   5.585  0.0096  0.3103  0.0709
 1011YOPC   D2A14964   3.975  17.794   5.560 -0.0015  0.0611 -0.1535
 1011YOPC   C3A14965   3.761  17.599   5.833 -0.0646  0.2531  0.3341
 1011YOPC   C4A14966   3.504  17.582   6.155  0.0326  0.1070 -0.1172
 1011YOPC   C1B14967   3.568  18.578   5.977 -0.1706  0.2507  0.0487
 1011YOPC   C2B14968   3.830  18.731   6.403 -0.3577 -0.1870  0.2579
 1011YOPC   D3B14969   3.878  18.454   6.692  0.0639  0.0954 -0.2463
 1011YOPC   C4B14970   3.698  18.104   6.892  0.1624  0.1253 -0.1097
 1012YOPC   NC314971   3.089   0.662   5.323  0.1030 -0.1035  0.0296
 1012YOPC   PO414972   3.072   0.219   5.410  0.2329  0.0074  0.3367
 1012YOPC   GL114973   2.820   0.481   5.766  0.0118 -0.1545 -0.0150
 1012YOPC   GL214974   2.539   0.724   5.756 -0.1841  0.0579  0.1621
 1012YOPC   C1A14975   2.786   0.526   6.142  0.3494  0.1014  0.2612
 1012YOPC   D2A14976   2.698   0.623   6.567 -0.1611  0.0073  0.0471
 1012YOPC   C3A14977   2.792   0.946   6.987 -0.1526  0.0905 -0.2558
 1012YOPC   C4A14978   2.863   0.909   7.455 -0.0680 -0.0744  0.2457
 1012YOPC   C1B14979   2.305   0.717   6.192 -0.1167 -0.1430 -0.4492
 1012YOPC   C2B14980   2.081   0.789   6.541 -0.0402  0.2538 -0.2073
 1012YOPC   D3B14981   2.277   0.576   6.926 -0.3624  0.0819 -0.3070
 1012YOPC   C4B14982   2.437   0.628   7.469  0.2424 -0.0293 -0.2229
 1013YOPC   NC314983   4.040   2.514   5.346  0.1786  0.1036 -0.0028
 1013YOPC   PO414984   4.390   2.645   5.684 -0.0115 -0.0108  0.1770
 1013YOPC   GL114985   4.298   2.480   6.036  0.1149  0.2527 -0.0470
 1013YOPC   GL214986   4.062   2.732   6.065 -0.0022  0.1602 -0.1895
 1013YOPC   C1A14987   4.279   2.552   6.451 -0.1011  0.0201  0.1666
 1013YOPC   D2A14988   3.953   2.807   6.619  0.1139  0.0359 -0.2771
 1013YOPC   C3A14989   3.972   3.085   7.026  0.1176 -0.0272 -0.0683
 1013YOPC   C4A14990   3.832   3.081   7.453  0.2335  0.0445 -0.0208
 1013YOPC   C1B14991   3.883   3.053   6.124  0.1667  0.2289 -0.2778
 1013YOPC   C2B14992   3.841   3.484   6.000  0.1420  0.2499  0.1322
 1013YOPC   D3B14993   3.788   3.782   6.344  0.1601  0.0309 -0.1712
 1013YOPC   C4B14994   4.084   3.847   6.630 -0.1087 -0.2902  0.1779
 1014YOPC   NC314995   4.429  17.303   5.061  0.2641  0.0089  0.4751
 1014YOPC   PO414996   4.413  16.811   5.080 -0.2024 -0.0915 -0.0408
 1014YOPC   GL114997   4.270  16.964   5.498 -0.1812  0.1035  0.0285
 1014YOPC   GL214998   4.236  17.274   5.564 -0.1104  0.1627 -0.1012
 1014YOPC   C1A14999   3.855  17.029   5.735  0.0110  0.0430 -0.2031
 1014YOPC   D2A15000   3.917  17.178   6.146 -0.0226  0.1382 -0.0204
 1014YOPC   C3A15001   3.678  17.482   6.596  0.2077  0.0532  0.1777
 1014YOPC   C4A15002   3.953  17.731   6.763  0.0881 -0.2206 -0.0439
 1014YOPC   C1B15003   4.304  17.322   5.904  0.0334  0.2307  0.0578
 1014YOPC   C2B15004   4.447  17.120   6.364  0.0190 -0.1041  0.0871
 1014YOPC   D3B15005   4.296  17.323   6.784 -0.5605 -0.2260 -0.0497
 1014YOPC   C4B15006   4.427  17.666   7.018 -0.0286  0.1870 -0.1807
 1015YOPC   NC315007  11.914   5.365   6.015 -0.0227 -0.1626  0.1913
 1015YOPC   PO415008  11.730   4.953   5.924  0.0535 -0.2315  0.0491
 1015YOPC   GL115009  11.697   4.787   6.271 -0.2317  0.0244  0.1377
 1015YOPC   GL215010  11.772   5.117   6.462  0.1066 -0.1839  0.1547
 1015YOPC   C1A15011  11.890   4.715   6.632 -0.1572  0.1050 -0.0861
 1015YOPC   D2A15012  12.174   4.860   6.919 -0.0742 -0.0599  0.3624
 1015YOPC   C3A15013  12.060   5.109   7.304  0.0056  0.0914 -0.1636
 1015YOPC   C4A15014  11.752   5.058   7.526 -0.1393 -0.2982 -0.0512
 1015YOPC   C1B15015  11.393   4.974   6.595  0.0243 -0.3440  0.1082
 1015YOPC   C2B15016  11.141   4.858   6.974  0.0547  0.1282  0.2772
 1015YOPC   D3B15017  11.089   4.761   7.404 -0.5032  0.1047  0.1704
 1015YOPC   C4B15018  11.268   4.988   7.693  0.0528  0.0261  0.0025
 1016YOPC   NC315019   6.187   2.527   5.359 -0.2701  0.3915  0.0185
 1016YOPC   PO415020   6.084   2.085   5.523  0.0639 -0.2904 -0.0496
 1016YOPC   GL115021   5.981   2.054   5.972 -0.1300  0.1104 -0.0792
 1016YOPC   GL215022   5.747   2.217   6.056  0.0853  0.0378  0.0312
 1016YOPC   C1A15023   5.990   1.752   6.354 -0.2800  0.4119  0.1031
 1016YOPC   D2A15024   6.287   1.614   6.564  0.0397  0.2408 -0.2378
 1016YOPC   C3A15025   6.570   1.927   6.797 -0.3967  0.1540  0.2224
 1016YOPC   C4A15026   6.571   2.325   7.000  0.4117  0.1164  0.0838
 1016YOPC   C1B15027   5.750   2.174   6.452  0.2624 -0.2772  0.2249
 1016YOPC   C2B15028   5.916   1.964   6.892 -0.0059  0.0803  0.1391
 1016YOPC   D3B15029   6.028   2.247   7.230 -0.0536 -0.0814 -0.2786
 1016YOPC   C4B15030   5.974   2.631   7.423  0.0683 -0.3099  0.0687
 1017YOPC   NC315031   6.013  18.349   5.442  0.1191  0.1033 -0.0708
 1017YOPC   PO415032   6.321  18.636   5.332  0.1855 -0.0180  0.1691
 1017YOPC   GL115033   6.311  18.753   5.847  0.2454  0.1234 -0.0115
 1017YOPC   GL215034   6.588  18.876   5.893  0.0083  0.0849 -0.0901
 1017YOPC   C1A15035   6.178  18.768   6.255  0.0681  0.2312 -0.0472
 1017YOPC   D2A15036   6.009  18.982   6.709  0.1020  0.0414 -0.1377
 1017YOPC   C3A15037   6.074  18.879   7.134  0.0029 -0.1404 -0.1152
 1017YOPC   C4A15038   6.538  19.087   7.407 -0.1911 -0.1563 -0.0655
 1017YOPC   C1B15039   6.658  19.119   6.355  0.1684  0.1587  0.0921
 1017YOPC   C2B15040   6.474  18.837   6.726  0.2024 -0.0310 -0.0487
 1017YOPC   D3B15041   6.641  18.744   7.095  0.2674 -0.1196  0.0519
 1017YOPC   C4B15042   6.902  18.782   7.466  0.1061  0.0590  0.0023
 1018YOPC   NC315043   2.361   2.475   4.973 -0.0963 -0.0610 -0.4320
 1018YOPC   PO415044   1.988   2.581   5.060  0.1179  0.1755 -0.2051
 1018YOPC   GL115045   2.199   2.532   5.468  0.1704 -0.0234 -0.0233
 1018YOPC   GL215046   2.533   2.554   5.503 -0.0927  0.1248  0.1399
 1018YOPC   C1A15047   2.002   2.408   5.816 -0.0992 -0.1577 -0.2645
 1018YOPC   D2A15048   1.895   2.536   6.191 -0.2274 -0.2019 -0.1256
 1018YOPC   C3A15049   1.952   2.299   6.524  0.0212  0.0601  0.0961
 1018YOPC   C4A15050   1.692   2.256   6.907 -0.1147  0.0643  0.0124
 1018YOPC   C1B15051   2.401   2.716   5.902 -0.2165 -0.2722 -0.0755
 1018YOPC   C2B15052   2.375   2.743   6.256  0.0377 -0.1934  0.0970
 1018YOPC   D3B15053   2.384   3.091   6.609 -0.0250  0.1663 -0.0735
 1018YOPC   C4B15054   2.382   2.976   6.973  0.0208  0.3229  0.0714
 1019YOPC   NC315055   5.732   1.828   5.386  0.1743  0.2363  0.2735
 1019YOPC   PO415056   5.809   1.363   5.479 -0.1230 -0.2100 -0.2687
 1019YOPC   GL115057   5.916   1.097   5.844  0.1521  0.1715  0.0596
 1019YOPC   GL215058   6.203   0.987   5.867  0.0215 -0.1610 -0.2560
 1019YOPC   C1A15059   5.860   1.228   6.199  0.2888 -0.2012 -0.2174
 1019YOPC   D2A15060   5.657   1.223   6.516  0.0943  0.1291 -0.0524
 1019YOPC   C3A15061   5.886   1.439   6.883  0.1137 -0.0222 -0.4561
 1019YOPC   C4A15062   6.026   1.668   7.225 -0.0277  0.1656  0.0125
 1019YOPC   C1B15063   6.627   0.843   6.086  0.2459  0.2371  0.1689
 1019YOPC   C2B15064   6.843   1.148   6.226  0.0454 -0.0219  0.1290
 1019YOPC   D3B15065   6.794   1.679   6.250  0.2381  0.2741  0.0602
 1019YOPC   C4B15066   6.899   1.928   6.431 -0.2923  0.3549 -0.2008
 1020YOPC   NC315067  12.099  16.911   4.896 -0.3296  0.2836  0.0386
 1020YOPC   PO415068  12.506  16.809   5.131  0.0463 -0.2095 -0.0645
 1020YOPC   GL115069  12.411  16.644   5.505  0.0655  0.2803  0.4275
 1020YOPC   GL215070  12.435  16.294   5.565 -0.0389 -0.1779  0.0822
 1020YOPC   C1A15071  12.411  16.645   6.005 -0.1926  0.1172 -0.1175
 1020YOPC   D2A15072  12.651  16.394   6.298 -0.0626 -0.1691 -0.0653
 1020YOPC   C3A15073  12.574  16.472   6.622 -0.1125 -0.1798 -0.0051
 1020YOPC   C4A15074  12.781  16.610   7.097 -0.3299  0.2864  0.0646
 1020YOPC   C1B15075  12.470  15.865   5.886 -0.2030 -0.1132 -0.3794
 1020YOPC   C2B15076  12.604  15.603   6.299 -0.6417  0.1405  0.2055
 1020YOPC   D3B15077  12.432  15.216   6.407  0.1693  0.0179 -0.0128
 1020YOPC   C4B15078  12.745  14.829   6.640 -0.2589 -0.2017  0.2597
 1021YOPC   NC315079   8.563   7.378   5.056 -0.1363  0.1984  0.4019
 1021YOPC   PO415080   8.407   7.690   5.327  0.1734 -0.0375  0.0949
 1021YOPC   GL115081   8.231   7.634   5.788  0.1352 -0.1852 -0.1934
 1021YOPC   GL215082   8.140   7.988   5.835  0.2787 -0.2329  0.5489
 1021YOPC   C1A15083   8.248   7.501   6.255  0.2048 -0.3674  0.0009
 1021YOPC   D2A15084   8.212   7.674   6.741 -0.4117 -0.3313 -0.1344
 1021YOPC   C3A15085   8.148   7.486   7.103  0.0605  0.2771 -0.1891
 1021YOPC   C4A15086   7.788   7.351   7.338  0.0929 -0.0496  0.3557
 1021YOPC   C1B15087   8.174   8.370   5.866  0.0415  0.0226  0.0770
 1021YOPC   C2B15088   7.996   8.806   6.093 -0.1267 -0.0139  0.0910
 1021YOPC   D3B15089   7.584   8.944   6.350 -0.2086 -0.1116  0.0618
 1021YOPC   C4B15090   7.415   9.144   6.647 -0.3771 -0.0954 -0.2161
 1022YOPC   NC315091  14.063   4.257   5.340  0.2188 -0.0277 -0.0062
 1022YOPC   PO415092  13.718   4.254   5.576 -0.1964 -0.0924 -0.0105
 1022YOPC   GL115093  13.779   4.321   6.016  0.2040  0.0048 -0.4037
 1022YOPC   GL215094  14.112   4.323   6.222  0.1275  0.1828  0.2495
 1022YOPC   C1A15095  13.664   4.542   6.380 -0.0621 -0.4019  0.0435
 1022YOPC   D2A15096  13.904   4.567   6.746 -0.1564 -0.0254 -0.1257
 1022YOPC   C3A15097  13.673   4.289   6.975 -0.1411 -0.0340  0.1219
 1022YOPC   C4A15098  13.541   4.068   7.337  0.0401 -0.0407  0.1598
 1022YOPC   C1B15099  13.905   3.947   6.343 -0.0069 -0.1537 -0.1052
 1022YOPC   C2B15100  13.467   3.853   6.193  0.1402 -0.0087 -0.2893
 1022YOPC   D3B15101  13.250   4.235   6.435  0.2468  0.0364 -0.0283
 1022YOPC   C4B15102  12.808   4.380   6.334 -0.0699 -0.0215  0.0765
 1023YOPC   NC315103  12.575  14.115   5.445  0.2930 -0.0241 -0.3778
 1023YOPC   PO415104  12.249  14.288   5.530 -0.1531  0.1577 -0.0494
 1023YOPC   GL115105  12.129  14.216   5.934  0.3463  0.1665  0.0509
 1023YOPC   GL215106  12.053  13.870   6.126 -0.2688  0.4093  0.3003
 1023YOPC   C1A15107  11.855  14.452   6.184  0.0838 -0.1118  0.1457
 1023YOPC   D2A15108  11.527  14.152   6.357  0.0598  0.0018 -0.0067
 1023YOPC   C3A15109  11.305  14.207   6.774 -0.4990  0.0359 -0.0880
 1023YOPC   C4A15110  11.175  14.197   7.166 -0.1098  0.0811 -0.1233
 1023YOPC   C1B15111  11.997  13.974   6.520  0.0319 -0.3998 -0.0458
 1023YOPC   C2B15112  11.821  14.330   6.712 -0.0847  0.2801  0.1033
 1023YOPC   D3B15113  12.042  14.560   7.035 -0.2447 -0.0327  0.0572
 1023YOPC   C4B15114  12.318  14.826   6.950 -0.2218 -0.2791  0.3081
 1024YOPC   NC315115  14.560   3.680   5.810  0.2014 -0.1487 -0.3804
 1024YOPC   PO415116  14.170   3.467   5.560  0.1276  0.1340 -0.2281
 1024YOPC   GL115117  14.091   3.428   5.975  0.1331  0.1275  0.1207
 1024YOPC   GL215118  14.360   3.183   6.156  0.2980 -0.2932  0.2348
 1024YOPC   C1A15119  13.794   3.440   6.332  0.2014 -0.2541 -0.3559
 1024YOPC   D2A15120  13.496   3.327   6.502 -0.1233 -0.1189 -0.0752
 1024YOPC   C3A15121  13.490   3.325   6.939  0.0044  0.1097 -0.1576
 1024YOPC   C4A15122  13.588   2.969   7.233 -0.1198  0.1996  0.2479
 1024YOPC   C1B15123  14.276   3.518   6.478  0.2580  0.2737  0.2174
 1024YOPC   C2B15124  14.020   3.555   6.871 -0.4426 -0.1349 -0.0402
 1024YOPC   D3B15125  13.667   3.802   6.884  0.0922 -0.1164 -0.2502
 1024YOPC   C4B15126  13.344   3.769   6.622  0.5300  0.0171 -0.1508
 1025YOPC   NC315127  15.002  15.299   5.424 -0.4859  0.0099 -0.1207
 1025YOPC   PO415128  15.307  15.019   5.554 -0.0442 -0.1950  0.0394
 1025YOPC   GL115129  15.080  14.919   5.852 -0.1216 -0.0666  0.3613
 1025YOPC   GL215130  14.926  15.197   5.909  0.1148  0.1256  0.1569
 1025YOPC   C1A15131  15.048  14.654   6.194 -0.3140  0.2116  0.2346
 1025YOPC   D2A15132  14.957  14.309   6.406  0.1025 -0.3035  0.0585
 1025YOPC   C3A15133  15.139  14.363   6.749  0.1662  0.0643  0.1550
 1025YOPC   C4A15134  15.357  14.317   7.145  0.2544  0.0144  0.0649
 1025YOPC   C1B15135  15.232  15.195   6.334 -0.0862 -0.0764  0.0291
 1025YOPC   C2B15136  15.276  15.263   6.763  0.0716  0.1333 -0.0556
 1025YOPC   D3B15137  15.421  15.415   7.102  0.0486 -0.1249  0.1015
 1025YOPC   C4B15138  15.731  15.510   7.477 -0.0290  0.0527  0.1809
 1026YOPC   NC315139   0.176   3.110   4.834  0.0276  0.3092 -0.1003
 1026YOPC   PO415140   0.258   3.223   5.254 -0.0923 -0.2342 -0.0781
 1026YOPC   GL115141   0.277   3.143   5.677  0.0125  0.1335 -0.1140
 1026YOPC   GL215142   0.388   3.319   5.854  0.1242 -0.1010 -0.0760
 1026YOPC   C1A15143   0.245   2.952   6.146 -0.0503 -0.1509 -0.1223
 1026YOPC   D2A15144  -0.045   2.657   6.352  0.1568  0.0282  0.2515
 1026YOPC   C3A15145   0.100   2.401   6.754 -0.0895 -0.0812 -0.0398
 1026YOPC   C4A15146   0.300   2.343   7.269 -0.1387 -0.0317  0.4521
 1026YOPC   C1B15147   0.722   3.045   5.916  0.1522  0.1188  0.0135
 1026YOPC   C2B15148   0.691   2.632   5.945  0.0787  0.0539  0.3106
 1026YOPC   D3B15149   1.058   2.420   6.155  0.0475 -0.0539  0.1083
 1026YOPC   C4B15150   1.431   2.490   6.354  0.3033 -0.0832  0.2323
 1027YOPC   NC315151   2.807   2.948   5.215 -0.3419  0.0014 -0.3223
 1027YOPC   PO415152   2.373   2.939   5.128 -0.1651 -0.0292 -0.1949
 1027YOPC   GL115153   2.288   3.106   5.502 -0.4966  0.2856 -0.1710
 1027YOPC   GL215154   2.561   3.189   5.651 -0.1090 -0.1343 -0.0952
 1027YOPC   C1A15155   2.010   2.945   5.879  0.0431 -0.0575 -0.0616
 1027YOPC   D2A15156   1.982   3.030   6.304 -0.1819  0.0390  0.2866
 1027YOPC   C3A15157   2.031   2.771   6.659 -0.3645  0.0998 -0.2742
 1027YOPC   C4A15158   2.184   2.522   7.083 -0.0149  0.2783  0.3118
 1027YOPC   C1B15159   2.511   3.292   6.137 -0.1786  0.0250  0.0328
 1027YOPC   C2B15160   2.583   3.685   6.463 -0.0268  0.0639  0.0514
 1027YOPC   D3B15161   2.738   4.035   6.196  0.0715 -0.2309  0.1495
 1027YOPC   C4B15162   2.964   4.329   6.004 -0.2408 -0.0238 -0.2143
 1028YOPC   NC315163  17.566  11.072   5.344 -0.2134  0.1484  0.0956
 1028YOPC   PO415164  17.126  11.036   5.501  0.0070 -0.4598  0.1413
 1028YOPC   GL115165  17.302  11.260   5.832 -0.2398  0.0666 -0.1612
 1028YOPC   GL215166  17.615  11.154   5.904 -0.0188  0.0434 -0.0248
 1028YOPC   C1A15167  17.218  11.516   6.097 -0.1216  0.2525  0.2155
 1028YOPC   D2A15168  16.934  11.487   6.427 -0.2177  0.0022  0.1244
 1028YOPC   C3A15169  16.741  11.135   6.445 -0.0733  0.0586  0.3210
 1028YOPC   C4A15170  16.415  10.929   6.536 -0.0847 -0.0693 -0.1928
 1028YOPC   C1B15171  17.764  10.967   6.343 -0.2033  0.1747 -0.2821
 1028YOPC   C2B15172  17.883  10.708   6.701 -0.0966  0.1175  0.1071
 1028YOPC   D3B15173  17.919  10.899   7.020 -0.2241 -0.0844  0.2523
 1028YOPC   C4B15174  18.278  11.117   7.258 -0.0820  0.3512  0.1808
 1029YOPC   NC315175   3.234  17.584   5.228 -0.0151  0.1562  0.2010
 1029YOPC   PO415176   3.010  17.257   5.549 -0.0410  0.0332 -0.0710
 1029YOPC   GL115177   3.103  17.337   5.929 -0.0253 -0.2650 -0.2339
 1029YOPC   GL215178   2.996  17.699   5.838 -0.2063 -0.3605  0.0702
 1029YOPC   C1A15179   3.034  17.367   6.386 -0.0047 -0.0607  0.1191
 1029YOPC   D2A15180   3.237  17.406   6.737  0.1048 -0.2095  0.1109
 1029YOPC   C3A15181   3.362  17.658   7.055  0.1163  0.0909  0.0322
 1029YOPC   C4A15182   3.471  18.048   7.378 -0.0847 -0.0621  0.2277
 1029YOPC   C1B15183   2.905  17.912   6.281  0.2186 -0.1108  0.0318
 1029YOPC   C2B15184   2.546  17.970   6.434 -0.3388 -0.0079 -0.0757
 1029YOPC   D3B15185   2.441  18.117   6.831 -0.0381  0.1353 -0.0300
 1029YOPC   C4B15186   2.296  18.144   7.194 -0.1139  0.1311  0.0557
 1030YOPC   NC315187  12.721  12.355   5.361 -0.4350 -0.0114  0.1841
 1030YOPC   PO415188  12.800  12.591   5.680  0.1689  0.5167 -0.1498
 1030YOPC   GL115189  12.872  12.465   6.090 -0.2685 -0.1216  0.0838
 1030YOPC   GL215190  13.246  12.290   6.189  0.0298 -0.0704 -0.0756
 1030YOPC   C1A15191  13.134  12.778   6.339  0.0658  0.0570  0.2571
 1030YOPC   D2A15192  13.205  13.093   6.594 -0.0722  0.1317 -0.1577
 1030YOPC   C3A15193  13.091  13.122   7.000 -0.1539 -0.4544 -0.0871
 1030YOPC   C4A15194  13.214  13.117   7.388 -0.1612  0.0001 -0.2290
 1030YOPC   C1B15195  13.251  12.190   6.626  0.0906 -0.3016  0.1959
 1030YOPC   C2B15196  13.236  12.136   7.118  0.1413 -0.3188 -0.3611
 1030YOPC   D3B15197  13.083  11.775   7.375 -0.0390  0.1093  0.4246
 1030YOPC   C4B15198  13.217  11.416   7.486  0.1872 -0.0316  0.0571
 1031YOPC   NC315199  11.119   7.814   5.781  0.0416 -0.3183  0.1456
 1031YOPC   PO415200  11.575   7.818   5.801  0.1451 -0.1392  0.0483
 1031YOPC   GL115201  11.519   7.620   6.165 -0.0565  0.1000 -0.1849
 1031YOPC   GL215202  11.244   7.693   6.266 -0.2332  0.0269 -0.3268
 1031YOPC   C1A15203  11.630   7.663   6.588  0.2442  0.3539 -0.2317
 1031YOPC   D2A15204  11.895   7.636   6.981 -0.0616 -0.1675  0.1350
 1031YOPC   C3A15205  12.176   7.856   7.148  0.1331  0.2685  0.1129
 1031YOPC   C4A15206  12.157   8.091   7.572  0.0835 -0.0995  0.0745
 1031YOPC   C1B15207  11.140   7.614   6.689 -0.0925 -0.1589  0.0640
 1031YOPC   C2B15208  11.346   7.684   7.074 -0.1077  0.1025  0.0881
 1031YOPC   D3B15209  11.219   7.693   7.539  0.3460 -0.0728 -0.1202
 1031YOPC   C4B15210  11.155   8.080   7.718 -0.0395 -0.1028  0.2784
 1032YOPC   NC315211  18.435   7.719   5.289 -0.0161 -0.1179  0.0165
 1032YOPC   PO415212  18.577   7.438   5.474  0.1721  0.1693 -0.1510
 1032YOPC   GL115213  18.438   7.125   5.666 -0.0675 -0.1540  0.0132
 1032YOPC   GL215214  18.168   7.213   5.719 -0.1244 -0.2833 -0.1819
 1032YOPC   C1A15215  18.413   6.794   5.904 -0.3219 -0.0899 -0.0460
 1032YOPC   D2A15216  18.364   6.914   6.386 -0.2602  0.1833 -0.2543
 1032YOPC   C3A15217  18.732   7.156   6.585  0.2546 -0.1336  0.3979
 1032YOPC   C4A15218  18.922   7.220   6.954  0.0856  0.0319  0.0785
 1032YOPC   C1B15219  17.988   7.114   6.149 -0.1193 -0.2916  0.0071
 1032YOPC   C2B15220  17.766   7.093   6.520  0.2193  0.0245  0.2136
 1032YOPC   D3B15221  18.072   6.831   6.807  0.1251  0.1770  0.1770
 1032YOPC   C4B15222  18.128   6.430   6.988  0.0885  0.0249  0.0519
 1033YOPC   NC315223  10.048   0.387   5.662 -0.1618  0.0449  0.1753
 1033YOPC   PO415224   9.690   0.097   5.819 -0.1414 -0.0917 -0.2614
 1033YOPC   GL115225   9.647   0.159   6.325  0.4170  0.0938  0.0992
 1033YOPC   GL215226   9.457   0.383   6.289 -0.3769  0.1033 -0.2193
 1033YOPC   C1A15227   9.731  -0.080   6.673  0.2190  0.1331  0.1217
 1033YOPC   D2A15228   9.608  -0.334   7.121 -0.1138 -0.0975  0.0782
 1033YOPC   C3A15229   9.382  -0.063   7.551  0.3562  0.0300 -0.2140
 1033YOPC   C4A15230   9.467   0.199   7.894  0.1078 -0.0627  0.0839
 1033YOPC   C1B15231   9.319   0.460   6.673 -0.0316 -0.0157  0.3032
 1033YOPC   C2B15232   9.570   0.240   7.038  0.1754  0.0751 -0.0075
 1033YOPC   D3B15233   9.655   0.284   7.397 -0.2164  0.0711 -0.0087
 1033YOPC   C4B15234   9.556   0.634   7.725  0.2853  0.1979  0.0526
 1034YOPC   NC315235   4.108   6.298   5.584 -0.2784 -0.1145 -0.1331
 1034YOPC   PO415236   4.450   6.007   5.621  0.0246 -0.0255  0.0678
 1034YOPC   GL115237   4.143   6.010   6.054 -0.4781  0.0561  0.1593
 1034YOPC   GL215238   3.962   6.243   6.100  0.2324  0.5523 -0.0170
 1034YOPC   C1A15239   3.900   5.800   6.361  0.0381  0.1475 -0.0483
 1034YOPC   D2A15240   3.518   5.690   6.563  0.0730 -0.0872  0.1822
 1034YOPC   C3A15241   3.418   5.655   6.949 -0.0449 -0.0500  0.3419
 1034YOPC   C4A15242   3.091   5.307   6.957 -0.0097 -0.2683 -0.1728
 1034YOPC   C1B15243   3.868   6.233   6.567  0.0099 -0.0151 -0.1654
 1034YOPC   C2B15244   3.955   5.914   6.914  0.1368 -0.0196 -0.0212
 1034YOPC   D3B15245   3.743   5.800   7.318 -0.0756 -0.1189 -0.0691
 1034YOPC   C4B15246   3.502   5.908   7.587  0.0823  0.1917  0.1743
 1035YOPC   NC315247  16.367   9.425   5.234  0.2935  0.3028 -0.0974
 1035YOPC   PO415248  16.607   9.452   5.612  0.1636 -0.2755  0.0997
 1035YOPC   GL115249  16.873   9.629   5.888  0.2963  0.2761  0.0635
 1035YOPC   GL215250  17.189   9.822   5.831 -0.0635 -0.2788  0.3445
 1035YOPC   C1A15251  17.030   9.575   6.252  0.0741  0.1039 -0.0358
 1035YOPC   D2A15252  17.189   9.655   6.655  0.4863 -0.0915  0.0369
 1035YOPC   C3A15253  17.052   9.767   7.081 -0.0983  0.0615 -0.0785
 1035YOPC   C4A15254  17.259   9.562   7.348 -0.0881 -0.1840 -0.1079
 1035YOPC   C1B15255  17.126  10.080   6.157  0.3524 -0.0020 -0.1818
 1035YOPC   C2B15256  17.047  10.152   6.557 -0.1406 -0.3245  0.0494
 1035YOPC   D3B15257  16.854  10.229   6.970 -0.1062 -0.0764  0.1224
 1035YOPC   C4B15258  16.681   9.987   7.313  0.2093  0.2458 -0.0544
 1036YOPC   NC315259   6.866   6.537   5.691  0.1691  0.2485 -0.1863
 1036YOPC   PO415260   7.113   6.829   5.794  0.2263 -0.1130  0.2830
 1036YOPC   GL115261   7.459   6.781   6.010  0.0088 -0.0841 -0.1677
 1036YOPC   GL215262   7.493   7.082   6.177  0.6190 -0.0549 -0.0757
 1036YOPC   C1A15263   7.561   6.721   6.489  0.0526  0.0524  0.1104
 1036YOPC   D2A15264   7.506   6.682   6.909 -0.2526  0.2416 -0.1573
 1036YOPC   C3A15265   7.437   6.525   7.309  0.2075 -0.0329 -0.1497
 1036YOPC   C4A15266   7.565   6.495   7.688  0.2973  0.1216 -0.0599
 1036YOPC   C1B15267   7.226   7.157   6.425  0.0166  0.0654  0.0325
 1036YOPC   C2B15268   7.052   6.995   6.788 -0.0206 -0.1405  0.3087
 1036YOPC   D3B15269   6.898   7.093   7.217  0.2214 -0.2111 -0.0157
 1036YOPC   C4B15270   6.889   7.184   7.666 -0.0648 -0.0870 -0.1801
 1037YOPC   NC315271  11.729   6.073   5.474 -0.1003  0.1035  0.1969
 1037YOPC   PO415272  11.367   6.436   5.491  0.0388 -0.2131  0.0955
 1037YOPC   GL115273  11.290   6.424   5.974  0.0517  0.1442  0.0097
 1037YOPC   GL215274  11.292   6.682   6.060  0.1164  0.2119 -0.2012
 1037YOPC   C1A15275  11.131   6.362   6.487 -0.3601  0.0311  0.3850
 1037YOPC   D2A15276  10.930   6.311   6.751 -0.1609  0.1569 -0.0665
 1037YOPC   C3A15277  11.051   6.204   7.167  0.0988 -0.2109 -0.1478
 1037YOPC   C4A15278  11.157   6.292   7.600  0.1539  0.1375  0.0959
 1037YOPC   C1B15279  10.878   6.831   6.328  0.2536  0.0138 -0.2822
 1037YOPC   C2B15280  10.528   6.660   6.580 -0.0270 -0.2359  0.0329
 1037YOPC   D3B15281  10.690   6.607   7.022 -0.1360  0.1249  0.1831
 1037YOPC   C4B15282  10.675   6.441   7.467  0.0726 -0.0856 -0.1388
 1038YOPC   NC315283   9.116   6.488   5.278 -0.0587  0.2559 -0.2635
 1038YOPC   PO415284   8.968   6.322   5.684  0.1516 -0.1522  0.0611
 1038YOPC   GL115285   8.965   6.173   6.096 -0.2197 -0.2679  0.3124
 1038YOPC   GL215286   9.272   6.022   6.060 -0.0449  0.1167 -0.2518
 1038YOPC   C1A15287   8.776   6.232   6.494  0.1897  0.2167  0.0477
 1038YOPC   D2A15288   8.529   6.363   6.741  0.2041 -0.1947  0.0093
 1038YOPC   C3A15289   8.554   6.260   7.127  0.0055 -0.0100 -0.0956
 1038YOPC   C4A15290   8.567   6.527   7.542  0.1423 -0.1539  0.3388
 1038YOPC   C1B15291   9.353   6.055   6.519 -0.1311  0.3356  0.1534
 1038YOPC   C2B15292   9.407   5.862   6.981 -0.3942 -0.0673 -0.1534
 1038YOPC   D3B15293   9.226   5.530   7.111 -0.1735 -0.1164 -0.2484
 1038YOPC   C4B15294   9.373   5.271   7.379 -0.0729 -0.1821  0.0917
 1039YOPC   NC315295  10.673   5.203   5.950 -0.3232  0.2227 -0.2535
 1039YOPC   PO415296  10.241   5.049   5.681  0.0799 -0.2349 -0.0107
 1039YOPC   GL115297  10.138   5.035   6.075  0.1669 -0.0486 -0.1162
 1039YOPC   GL215298  10.301   4.800   6.162  0.2282 -0.0259 -0.1283
 1039YOPC   C1A15299   9.989   5.328   6.411 -0.0907  0.0439  0.0202
 1039YOPC   D2A15300   9.828   5.499   6.803  0.3344  0.2634  0.0668
 1039YOPC   C3A15301   9.819   5.376   7.196 -0.1243  0.1050 -0.0771
 1039YOPC   C4A15302   9.845   5.218   7.562 -0.1599  0.3631 -0.2734
 1039YOPC   C1B15303  10.431   4.950   6.498 -0.0178  0.2643  0.0367
 1039YOPC   C2B15304  10.225   5.168   6.840  0.2364  0.2697  0.2052
 1039YOPC   D3B15305  10.291   5.112   7.169  0.3769 -0.0857 -0.3870
 1039YOPC   C4B15306  10.202   4.860   7.434 -0.1866 -0.0340 -0.0397
 1040YOPC   NC315307  10.763  11.314   5.416 -0.1318 -0.0088 -0.0990
 1040YOPC   PO415308  11.072  11.475   5.686 -0.0994  0.2191  0.3967
 1040YOPC   GL115309  11.325  11.320   5.904 -0.0838  0.2940 -0.0896
 1040YOPC   GL215310  11.604  11.094   5.805  0.1970 -0.1188 -0.0932
 1040YOPC   C1A15311  11.581  11.502   6.153 -0.0110 -0.2074  0.1014
 1040YOPC   D2A15312  11.531  11.526   6.640 -0.2599  0.0756 -0.2533
 1040YOPC   C3A15313  11.675  11.822   6.885  0.2467 -0.0510  0.2492
 1040YOPC   C4A15314  11.779  12.125   7.179 -0.1712  0.1327  0.0747
 1040YOPC   C1B15315  11.782  11.066   6.215  0.1027  0.1462 -0.0647
 1040YOPC   C2B15316  12.101  10.854   6.397 -0.1951  0.0061 -0.0451
 1040YOPC   D3B15317  12.089  10.726   6.869  0.0511 -0.2873  0.0050
 1040YOPC   C4B15318  11.993  10.630   7.327 -0.1223 -0.0912  0.1311
 1041YOPC   NC315319  15.814   7.292   5.503 -0.1477 -0.1630  0.1260
 1041YOPC   PO415320  15.734   7.748   5.651  0.1487  0.1621 -0.1314
 1041YOPC   GL115321  15.724   7.448   5.970  0.1126 -0.1387  0.3712
 1041YOPC   GL215322  15.549   7.278   6.147  0.0550 -0.1244 -0.0945
 1041YOPC   C1A15323  16.027   7.456   6.266 -0.0899  0.0799  0.2135
 1041YOPC   D2A15324  16.172   7.362   6.643  0.1781  0.0512  0.2048
 1041YOPC   C3A15325  15.828   7.595   6.772  0.1127  0.0014 -0.3945
 1041YOPC   C4A15326  15.496   7.653   6.950 -0.1320  0.0137 -0.0498
 1041YOPC   C1B15327  15.635   7.185   6.581 -0.0853 -0.1441 -0.4477
 1041YOPC   C2B15328  15.662   7.146   7.040  0.4110  0.1520  0.0546
 1041YOPC   D3B15329  15.904   7.442   7.272  0.0587 -0.2142 -0.1909
 1041YOPC   C4B15330  15.972   7.522   7.709  0.0096 -0.1167  0.0558
 1042YOPC   NC315331  10.528  13.553   5.594  0.0310  0.2039 -0.1359
 1042YOPC   PO415332  10.192  13.269   5.618 -0.0950  0.0917  0.1023
 1042YOPC   GL115333  10.351  13.262   5.961 -0.0347  0.3850 -0.0475
 1042YOPC   GL215334  10.131  13.255   6.167 -0.4460 -0.0076  0.1323
 1042YOPC   C1A15335  10.427  13.130   6.505 -0.3707  0.3126  0.1347
 1042YOPC   D2A15336  10.161  13.058   6.872 -0.1202 -0.0471  0.1657
 1042YOPC   C3A15337   9.676  13.229   6.923  0.2167  0.0336 -0.1490
 1042YOPC   C4A15338   9.470  13.247   7.372 -0.1199 -0.0527  0.3372
 1042YOPC   C1B15339   9.805  13.315   6.443  0.1413 -0.3289  0.1497
 1042YOPC   C2B15340   9.589  13.702   6.563 -0.1662 -0.0959  0.0573
 1042YOPC   D3B15341   9.825  13.673   7.033 -0.1900  0.2064  0.1639
 1042YOPC   C4B15342  10.046  13.266   7.338  0.1249 -0.1493  0.0614
 1043YOPC   NC315343   7.467   5.468   4.822  0.1940 -0.3000 -0.0747
 1043YOPC   PO415344   7.475   5.467   5.267  0.1397 -0.0510  0.1267
 1043YOPC   GL115345   7.511   5.562   5.697  0.0560  0.0154  0.3083
 1043YOPC   GL215346   7.614   5.802   5.788 -0.0677 -0.0166 -0.1195
 1043YOPC   C1A15347   7.644   5.376   6.041  0.0868  0.2257  0.4536
 1043YOPC   D2A15348   8.026   5.272   6.132  0.1056  0.2049  0.0935
 1043YOPC   C3A15349   8.290   5.351   6.464 -0.0031  0.1707  0.0249
 1043YOPC   C4A15350   8.151   5.459   6.928 -0.0151 -0.2611 -0.4681
 1043YOPC   C1B15351   7.310   5.838   6.232 -0.2962 -0.2215 -0.4418
 1043YOPC   C2B15352   7.083   6.033   6.551 -0.1710  0.2215  0.2306
 1043YOPC   D3B15353   7.158   5.966   6.884 -0.1559 -0.2051 -0.1265
 1043YOPC   C4B15354   7.061   5.766   7.270 -0.1462 -0.1714  0.1396
 1044YOPC   NC315355   5.168   2.706   5.181  0.1439  0.0710  0.5146
 1044YOPC   PO415356   5.333   2.676   5.454  0.0752  0.0043 -0.2685
 1044YOPC   GL115357   5.309   2.670   5.835  0.1424 -0.0382  0.0564
 1044YOPC   GL215358   5.569   2.757   5.975  0.0122 -0.2219  0.4599
 1044YOPC   C1A15359   5.060   2.904   6.074  0.0013  0.1358  0.0175
 1044YOPC   D2A15360   4.703   2.936   6.310 -0.0908 -0.0521 -0.5204
 1044YOPC   C3A15361   4.833   3.100   6.721  0.2132 -0.2236  0.0004
 1044YOPC   C4A15362   5.040   3.084   7.157  0.3717 -0.1055 -0.0168
 1044YOPC   C1B15363   5.399   2.599   6.361  0.1761 -0.4096  0.2438
 1044YOPC   C2B15364   5.292   2.839   6.801  0.1744  0.3558  0.0408
 1044YOPC   D3B15365   5.281   2.616   7.211 -0.0801  0.2491  0.3242
 1044YOPC   C4B15366   5.112   2.315   7.441  0.2490 -0.2802  0.0763
 1045YOPC   NC315367   9.948   2.894   5.792  0.1119  0.0922  0.4225
 1045YOPC   PO415368  10.298   2.536   5.775  0.2459 -0.1964 -0.0229
 1045YOPC   GL115369  10.528   2.647   6.177  0.0794  0.1315  0.0522
 1045YOPC   GL215370  10.413   2.983   6.243 -0.2824 -0.0000 -0.1652
 1045YOPC   C1A15371  10.396   2.576   6.569 -0.2186 -0.0814 -0.2964
 1045YOPC   D2A15372  10.164   2.281   6.926  0.1170 -0.1933  0.2797
 1045YOPC   C3A15373  10.170   2.462   7.309  0.0503 -0.2001  0.1241
 1045YOPC   C4A15374   9.919   2.760   7.622  0.0032  0.1683 -0.0508
 1045YOPC   C1B15375  10.374   3.320   6.610 -0.0790  0.2796  0.1012
 1045YOPC   C2B15376  10.253   3.687   6.562 -0.5308 -0.1475 -0.2347
 1045YOPC   D3B15377  10.188   4.012   6.782 -0.3071 -0.2364  0.1557
 1045YOPC   C4B15378   9.933   4.288   6.831  0.2697  0.1182  0.0879
 1046YOPC   NC315379  17.616  14.574   5.342 -0.0697 -0.5233 -0.1472
 1046YOPC   PO415380  17.427  15.021   5.410  0.0788  0.2191 -0.0195
 1046YOPC   GL115381  17.398  14.893   5.785 -0.0349  0.0396  0.1509
 1046YOPC   GL215382  17.003  14.889   5.762  0.3339 -0.4089 -0.1046
 1046YOPC   C1A15383  17.601  14.706   6.046  0.0695  0.0455  0.0546
 1046YOPC   D2A15384  17.877  14.806   6.341  0.4665  0.1165  0.2556
 1046YOPC   C3A15385  17.861  14.763   6.760  0.0654  0.1281 -0.2056
 1046YOPC   C4A15386  18.127  14.533   7.060 -0.1015 -0.2942  0.0109
 1046YOPC   C1B15387  16.916  14.749   6.219  0.0609  0.3363  0.5909
 1046YOPC   C2B15388  17.342  14.760   6.492  0.1679  0.2490 -0.4334
 1046YOPC   D3B15389  17.429  14.394   6.771 -0.0500 -0.0634 -0.1182
 1046YOPC   C4B15390  17.675  14.275   7.127 -0.0945 -0.1035  0.0414
 1047YOPC   NC315391   4.615  18.299   5.135  0.1870 -0.1842 -0.3461
 1047YOPC   PO415392   4.552  17.816   5.145  0.1029 -0.0776 -0.2437
 1047YOPC   GL115393   4.513  17.806   5.565  0.1187  0.0258  0.3420
 1047YOPC   GL215394   4.696  17.972   5.732  0.3211 -0.1776 -0.0093
 1047YOPC   C1A15395   4.303  17.851   5.993  0.0545  0.3364  0.1936
 1047YOPC   D2A15396   4.132  17.625   6.300  0.1220  0.0792  0.1055
 1047YOPC   C3A15397   4.505  17.696   6.551  0.1466 -0.1090 -0.3325
 1047YOPC   C4A15398   4.824  17.501   6.659 -0.1304 -0.2674 -0.1782
 1047YOPC   C1B15399   4.482  18.391   5.988  0.2043  0.2292 -0.1290
 1047YOPC   C2B15400   4.364  18.540   6.385 -0.2536  0.2393  0.0607
 1047YOPC   D3B15401   4.699  18.441   6.548 -0.1111  0.1607 -0.0949
 1047YOPC   C4B15402   4.675  18.429   6.938  0.1433 -0.3100  0.0660
 1048YOPC   NC315403   9.067   7.218   5.802 -0.1309  0.3393  0.0631
 1048YOPC   PO415404   9.131   7.693   5.890 -0.3418  0.0202 -0.2343
 1048YOPC   GL115405   9.343   7.515   6.356  0.4750 -0.2295  0.1071
 1048YOPC   GL215406   9.185   7.195   6.302 -0.1176  0.0230 -0.1289
 1048YOPC   C1A15407   9.517   7.528   6.827  0.1171 -0.3426  0.4082
 1048YOPC   D2A15408   9.401   7.710   7.243  0.1231  0.1390  0.0230
 1048YOPC   C3A15409   9.048   7.975   7.265  0.1897 -0.0789  0.0244
 1048YOPC   C4A15410   8.673   8.314   7.340 -0.0020  0.3056 -0.4387
 1048YOPC   C1B15411   9.020   7.256   6.763 -0.2282  0.1524  0.0229
 1048YOPC   C2B15412   8.986   7.393   7.157  0.2685 -0.0488 -0.2853
 1048YOPC   D3B15413   8.650   7.665   7.249 -0.1846  0.1474  0.0782
 1048YOPC   C4B15414   8.639   7.896   7.652 -0.0499  0.2085  0.2012
 1049YOPC   NC315415   3.145   9.067   5.170 -0.1920 -0.1944 -0.5126
 1049YOPC   PO415416   2.949   9.377   5.444  0.0695  0.0604 -0.4165
 1049YOPC   GL115417   3.037   9.252   5.880  0.2424  0.0267 -0.0056
 1049YOPC   GL215418   3.290   8.938   6.056 -0.0553  0.1836 -0.1111
 1049YOPC   C1A15419   2.972   9.313   6.328  0.0599 -0.3279  0.2343
 1049YOPC   D2A15420   2.977   9.129   6.721  0.1212 -0.1599  0.1683
 1049YOPC   C3A15421   3.009   9.188   7.110 -0.3556  0.1631 -0.1854
 1049YOPC   C4A15422   3.114   9.011   7.550  0.3275 -0.2554 -0.2070
 1049YOPC   C1B15423   3.772   8.917   6.145  0.1147  0.1188 -0.2183
 1049YOPC   C2B15424   4.030   9.210   6.362 -0.1398  0.1045  0.1455
 1049YOPC   D3B15425   4.005   9.282   6.766  0.0458 -0.0352  0.0391
 1049YOPC   C4B15426   4.315   9.411   7.088 -0.2281  0.1290  0.1584
 1050YOPC   NC315427  15.881   2.238   5.797 -0.3903 -0.0399  0.3017
 1050YOPC   PO415428  16.302   2.184   5.588  0.0673  0.0025 -0.0355
 1050YOPC   GL115429  16.190   2.086   6.112 -0.2846  0.1122 -0.0428
 1050YOPC   GL215430  16.544   2.110   6.227 -0.0023  0.0279 -0.2112
 1050YOPC   C1A15431  16.157   1.953   6.584  0.0583  0.2163 -0.1259
 1050YOPC   D2A15432  16.088   1.972   7.021 -0.0201  0.2780  0.0434
 1050YOPC   C3A15433  16.322   1.871   7.459 -0.0253  0.0002  0.1127
 1050YOPC   C4A15434  16.180   1.806   7.870  0.1282 -0.0897  0.0858
 1050YOPC   C1B15435  16.742   1.980   6.553 -0.0155  0.0084  0.1528
 1050YOPC   C2B15436  16.562   1.768   6.922 -0.1814  0.1413 -0.1392
 1050YOPC   D3B15437  16.754   1.666   7.371 -0.1723 -0.2811 -0.1568
 1050YOPC   C4B15438  16.948   1.342   7.696 -0.0862 -0.1087  0.1071
 1051YOPC   NC315439   5.428  18.820   5.206  0.0936 -0.0150 -0.0943
 1051YOPC   PO415440   5.742  18.763   5.538 -0.3882 -0.0646  0.1370
 1051YOPC   GL115441   5.759  18.647   5.930  0.0006 -0.0605  0.0655
 1051YOPC   GL215442   5.631  18.328   5.958 -0.0308  0.1996 -0.2248
 1051YOPC   C1A15443   5.635  18.705   6.342 -0.0303 -0.1154  0.0642
 1051YOPC   D2A15444   5.566  18.562   6.636  0.2546  0.1642  0.1593
 1051YOPC   C3A15445   5.593  18.739   6.948 -0.2420  0.2739 -0.0213
 1051YOPC   C4A15446   5.629  18.764   7.327  0.0115 -0.1412  0.1943
 1051YOPC   C1B15447   5.469  18.166   6.310 -0.2465 -0.1008 -0.1138
 1051YOPC   C2B15448   5.167  18.224   6.556  0.0543 -0.0109 -0.1942
 1051YOPC   D3B15449   5.198  18.389   6.992 -0.0429 -0.1585  0.1311
 1051YOPC   C4B15450   5.207  18.593   7.386 -0.0833 -0.5748  0.1667
 1052YOPC   NC315451   0.063  16.497   5.151 -0.0289 -0.0524 -0.0868
 1052YOPC   PO415452  -0.343  16.379   5.387  0.1287  0.0818 -0.1540
 1052YOPC   GL115453  -0.346  16.125   5.791 -0.1302  0.3083 -0.1019
 1052YOPC   GL215454  -0.606  16.313   5.886  0.1707 -0.1762 -0.2471
 1052YOPC   C1A15455  -0.079  15.865   6.059 -0.2733 -0.1138 -0.3728
 1052YOPC   D2A15456   0.265  15.642   6.250 -0.1631 -0.0237  0.0445
 1052YOPC   C3A15457   0.215  15.301   6.538  0.1091 -0.1641 -0.2681
 1052YOPC   C4A15458   0.414  14.940   6.833 -0.2033  0.1717 -0.0307
 1052YOPC   C1B15459  -0.873  16.174   6.259 -0.0165 -0.1175  0.2670
 1052YOPC   C2B15460  -0.998  16.330   6.659 -0.2429  0.0728 -0.0500
 1052YOPC   D3B15461  -1.262  16.103   6.865 -0.1019  0.1225  0.2005
 1052YOPC   C4B15462  -1.191  15.992   7.409  0.2334 -0.1293  0.1346
 1053YOPC   NC315463  12.947  10.898   5.839 -0.1363  0.2487  0.3019
 1053YOPC   PO415464  13.336  10.926   5.917 -0.0850  0.0229 -0.0972
 1053YOPC   GL115465  13.431  10.824   6.256  0.0906  0.3054 -0.2693
 1053YOPC   GL215466  13.296  10.647   6.472  0.1848  0.1408 -0.0837
 1053YOPC   C1A15467  13.748  10.877   6.558  0.0585  0.2538  0.0604
 1053YOPC   D2A15468  13.811  10.877   6.975 -0.0266  0.0083  0.2298
 1053YOPC   C3A15469  13.697  10.584   7.242 -0.0383 -0.6406  0.3565
 1053YOPC   C4A15470  13.831  10.361   7.442  0.2951 -0.2029  0.1048
 1053YOPC   C1B15471  13.412  10.486   6.868  0.0435  0.1395  0.0999
 1053YOPC   C2B15472  13.572  10.167   6.976 -0.0108 -0.0378  0.1650
 1053YOPC   D3B15473  13.336   9.843   6.974  0.1822  0.2033 -0.0921
 1053YOPC   C4B15474  12.918   9.832   7.158  0.1969 -0.0628  0.0125
 1054YOPC   NC315475  14.451  10.984   5.285  0.1613  0.3138  0.1507
 1054YOPC   PO415476  14.283  11.049   5.657 -0.0784 -0.5012  0.0653
 1054YOPC   GL115477  14.411  11.170   6.082  0.3278  0.1343  0.2045
 1054YOPC   GL215478  14.025  11.280   6.289  0.2709  0.0854  0.1482
 1054YOPC   C1A15479  14.430  11.189   6.569 -0.1771  0.1873  0.1685
 1054YOPC   D2A15480  14.226  11.119   6.810  0.2103 -0.0380 -0.1726
 1054YOPC   C3A15481  14.253  11.009   7.166  0.0530  0.3751  0.1369
 1054YOPC   C4A15482  14.098  10.798   7.516  0.1055  0.1622 -0.3695
 1054YOPC   C1B15483  13.848  11.432   6.740 -0.0627 -0.2132  0.2911
 1054YOPC   C2B15484  13.896  11.342   7.192 -0.1700 -0.0203 -0.1452
 1054YOPC   D3B15485  13.712  11.530   7.512  0.0618  0.1776 -0.1144
 1054YOPC   C4B15486  13.524  11.971   7.562  0.5936 -0.1612 -0.3411
 1055YOPC   NC315487  10.085  17.822   4.956 -0.1818  0.2027 -0.1993
 1055YOPC   PO415488   9.989  17.794   5.377  0.0853 -0.1262  0.0959
 1055YOPC   GL115489   9.906  18.061   5.756  0.0705  0.1045  0.2106
 1055YOPC   GL215490   9.496  18.063   5.846 -0.1036  0.1649 -0.0125
 1055YOPC   C1A15491   9.898  18.070   6.197  0.2582 -0.0179  0.1786
 1055YOPC   D2A15492   9.474  18.079   6.492  0.1272  0.1015  0.1173
 1055YOPC   C3A15493   9.465  18.005   6.933 -0.2865  0.1532 -0.0895
 1055YOPC   C4A15494   9.574  18.034   7.320  0.1178 -0.0523 -0.0282
 1055YOPC   C1B15495   9.292  17.720   6.090 -0.0363  0.2752 -0.0095
 1055YOPC   C2B15496   9.118  17.675   6.454  0.0936 -0.2624 -0.0724
 1055YOPC   D3B15497   9.090  17.647   6.876  0.1092  0.3095  0.0635
 1055YOPC   C4B15498   8.920  17.785   7.188 -0.0991 -0.1379  0.2557
 1056YOPC   NC315499   2.106   1.520   5.114  0.3344 -0.1224  0.0462
 1056YOPC   PO415500   1.835   1.277   5.424 -0.0965  0.0194  0.0215
 1056YOPC   GL115501   2.014   1.362   5.791  0.0895 -0.2125  0.1635
 1056YOPC   GL215502   2.056   1.091   5.879  0.1185 -0.1957  0.1601
 1056YOPC   C1A15503   2.142   1.438   6.174  0.0160 -0.1259 -0.2326
 1056YOPC   D2A15504   1.945   1.390   6.483 -0.0379  0.0542  0.0048
 1056YOPC   C3A15505   1.775   1.725   6.755  0.0410  0.0692 -0.0882
 1056YOPC   C4A15506   1.715   1.786   7.208 -0.1410  0.2924 -0.0720
 1056YOPC   C1B15507   1.852   1.005   6.131  0.1601  0.1209 -0.1798
 1056YOPC   C2B15508   1.627   0.738   6.361  0.0413 -0.2687 -0.1656
 1056YOPC   D3B15509   1.292   0.780   6.595 -0.3413  0.1006 -0.1131
 1056YOPC   C4B15510   1.111   1.121   6.827 -0.0296  0.4168  0.1147
 1057YOPC   NC315511   1.292   2.062   5.241  0.1451  0.1866  0.0946
 1057YOPC   PO415512   0.827   2.013   5.185  0.0057  0.2105 -0.2985
 1057YOPC   GL115513   1.017   2.043   5.646  0.2659 -0.0745 -0.0988
 1057YOPC   GL215514   0.666   1.884   5.683 -0.1073  0.2727 -0.0994
 1057YOPC   C1A15515   1.219   1.954   6.045  0.1777 -0.0845  0.2538
 1057YOPC   D2A15516   1.210   2.094   6.480  0.0186  0.1629  0.1629
 1057YOPC   C3A15517   0.836   2.210   6.528  0.0395 -0.3698 -0.0983
 1057YOPC   C4A15518   0.646   2.387   6.778 -0.0037  0.1713 -0.0888
 1057YOPC   C1B15519   0.540   2.153   6.033 -0.1557 -0.2260  0.3992
 1057YOPC   C2B15520   0.414   2.476   6.316  0.1239  0.2096  0.0419
 1057YOPC   D3B15521   0.766   2.772   6.479  0.1686  0.3980  0.0162
 1057YOPC   C4B15522   1.033   2.650   6.636  0.0216  0.0283  0.2453
 1058YOPC   NC315523  18.197   0.826   5.163  0.3836 -0.1650  0.2306
 1058YOPC   PO415524  18.069   1.176   5.522 -0.0133 -0.0255 -0.1047
 1058YOPC   GL115525  18.013   0.996   5.918  0.2761 -0.0039  0.1863
 1058YOPC   GL215526  17.707   0.991   5.943  0.1077  0.1451  0.0282
 1058YOPC   C1A15527  18.247   1.006   6.276  0.0739 -0.0993 -0.5100
 1058YOPC   D2A15528  18.183   0.821   6.688  0.1493 -0.2023  0.0323
 1058YOPC   C3A15529  18.029   0.342   6.667 -0.0836 -0.0809 -0.1937
 1058YOPC   C4A15530  18.238  -0.008   6.455  0.0328  0.0281  0.0470
 1058YOPC   C1B15531  17.770   0.817   6.365  0.0961  0.2788  0.0364
 1058YOPC   C2B15532  17.557   0.762   6.718  0.2813 -0.0015  0.2862
 1058YOPC   D3B15533  17.232   0.998   6.816  0.1626  0.2920 -0.1520
 1058YOPC   C4B15534  17.061   1.303   7.163  0.0229 -0.3164  0.0852
 1059YOPC   NC315535  13.276  12.281   5.637  0.0380 -0.0212  0.1848
 1059YOPC   PO415536  13.364  11.872   5.792  0.1732  0.2465 -0.0030
 1059YOPC   GL115537  13.264  11.751   6.192  0.0654 -0.0413  0.0090
 1059YOPC   GL215538  13.044  11.681   6.388 -0.3033 -0.0318 -0.0910
 1059YOPC   C1A15539  13.560  11.837   6.529 -0.3000  0.0137  0.0306
 1059YOPC   D2A15540  14.011  11.862   6.603 -0.3995 -0.1245 -0.0019
 1059YOPC   C3A15541  14.133  11.806   6.981 -0.0883  0.0914  0.0355
 1059YOPC   C4A15542  14.121  11.861   7.423  0.2873 -0.2483  0.1289
 1059YOPC   C1B15543  13.164  11.684   6.886  0.2195  0.0514 -0.4008
 1059YOPC   C2B15544  13.479  11.714   7.069  0.2083  0.0423  0.1549
 1059YOPC   D3B15545  13.758  12.091   7.044 -0.1569  0.4072 -0.2348
 1059YOPC   C4B15546  13.764  12.310   6.716  0.1311  0.0503  0.0515
 1060YOPC   NC315547  17.447   2.401   5.302 -0.1870 -0.0086  0.0173
 1060YOPC   PO415548  17.231   2.640   5.646 -0.2490 -0.4217  0.1709
 1060YOPC   GL115549  17.199   2.486   6.077 -0.1365  0.0950  0.3113
 1060YOPC   GL215550  16.962   2.420   6.230  0.2305 -0.1473 -0.3286
 1060YOPC   C1A15551  17.448   2.594   6.532 -0.1432 -0.4395  0.0512
 1060YOPC   D2A15552  17.534   2.827   6.947 -0.0536  0.0823  0.0203
 1060YOPC   C3A15553  17.266   2.882   7.369  0.2802  0.0778  0.1580
 1060YOPC   C4A15554  16.882   2.674   7.518  0.0909 -0.2136 -0.0754
 1060YOPC   C1B15555  17.076   2.387   6.725 -0.2265 -0.2950  0.0418
 1060YOPC   C2B15556  17.143   2.471   7.091 -0.2078  0.2682  0.1579
 1060YOPC   D3B15557  17.193   2.222   7.395  0.0706  0.1139 -0.2229
 1060YOPC   C4B15558  17.486   2.040   7.699  0.1347  0.1256  0.1128
 1061YOPC   NC315559  10.452  12.539   5.559 -0.0344  0.1584  0.0451
 1061YOPC   PO415560  10.770  12.365   5.624 -0.2414 -0.0649  0.2631
 1061YOPC   GL115561  10.903  12.334   6.099 -0.0430 -0.0021 -0.1922
 1061YOPC   GL215562  11.236  12.315   6.203 -0.0522  0.0277  0.3313
 1061YOPC   C1A15563  10.966  12.333   6.641  0.0671  0.1498  0.0334
 1061YOPC   D2A15564  10.659  12.330   6.936 -0.1598  0.1088 -0.0584
 1061YOPC   C3A15565  10.445  12.650   6.969 -0.4665  0.1046  0.2771
 1061YOPC   C4A15566  10.266  12.758   7.337 -0.1788  0.2976  0.1589
 1061YOPC   C1B15567  11.177  11.926   6.467  0.2128  0.1200 -0.3093
 1061YOPC   C2B15568  11.084  11.764   6.804  0.1623  0.4580 -0.3508
 1061YOPC   D3B15569  11.151  11.489   7.098  0.1101  0.1320 -0.0068
 1061YOPC   C4B15570  11.315  11.224   7.487  0.1962  0.1484 -0.2067
 1062YOPC   NC315571  16.913   4.101   5.738 -0.2855 -0.0364  0.2222
 1062YOPC   PO415572  16.862   3.782   5.680 -0.1991  0.0092 -0.1339
 1062YOPC   GL115573  16.674   3.661   6.040 -0.1119 -0.2070 -0.0307
 1062YOPC   GL215574  16.976   3.860   6.247  0.0521  0.0585 -0.3286
 1062YOPC   C1A15575  16.552   3.591   6.410  0.1562  0.2391 -0.1369
 1062YOPC   D2A15576  16.681   3.570   6.805  0.4280 -0.1341  0.0001
 1062YOPC   C3A15577  16.440   3.293   7.154  0.2522 -0.1842  0.1894
 1062YOPC   C4A15578  16.283   3.333   7.613  0.1053 -0.1142 -0.0499
 1062YOPC   C1B15579  17.236   3.607   6.493  0.0386 -0.0709 -0.1842
 1062YOPC   C2B15580  17.642   3.655   6.704  0.0223 -0.0971  0.2535
 1062YOPC   D3B15581  17.951   3.721   7.057  0.0538 -0.3009  0.2255
 1062YOPC   C4B15582  18.177   4.006   7.306  0.5965 -0.0818  0.2358
 1063YOPC   NC315583  17.325  15.788   5.410  0.0548  0.3571 -0.1433
 1063YOPC   PO415584  17.237  16.203   5.378  0.2179 -0.1299 -0.1018
 1063YOPC   GL115585  17.213  16.303   5.780 -0.0713  0.2611  0.1702
 1063YOPC   GL215586  17.561  16.497   5.629  0.3701 -0.1489 -0.1019
 1063YOPC   C1A15587  17.193  16.342   6.199 -0.1511 -0.0417 -0.1335
 1063YOPC   D2A15588  17.373  16.412   6.508 -0.0142 -0.2974  0.0408
 1063YOPC   C3A15589  17.218  16.415   6.947  0.0073  0.1512 -0.0028
 1063YOPC   C4A15590  17.106  16.435   7.357 -0.1293  0.4514 -0.0797
 1063YOPC   C1B15591  17.743  16.639   6.012 -0.0622 -0.4282 -0.0801
 1063YOPC   C2B15592  17.758  16.809   6.373 -0.5833  0.1525 -0.1321
 1063YOPC   D3B15593  17.970  16.807   6.770  0.0896 -0.2315  0.2637
 1063YOPC   C4B15594  17.872  16.895   7.217 -0.0622 -0.0992 -0.0185
 1064YOPC   NC315595   1.596   7.597   5.287  0.0565 -0.2616 -0.0905
 1064YOPC   PO415596   1.441   7.234   5.356 -0.2282 -0.1622 -0.2269
 1064YOPC   GL115597   1.568   7.432   5.740 -0.2564  0.2593 -0.2964
 1064YOPC   GL215598   1.578   7.792   5.783  0.1712  0.3178  0.1082
 1064YOPC   C1A15599   1.416   7.412   6.207  0.0366  0.1589 -0.1890
 1064YOPC   D2A15600   1.346   7.293   6.582  0.1421  0.0283 -0.1900
 1064YOPC   C3A15601   1.322   7.639   6.876  0.4546  0.1016  0.1852
 1064YOPC   C4A15602   1.145   7.926   7.004  0.0045  0.0195 -0.1030
 1064YOPC   C1B15603   1.679   7.780   6.124 -0.0242  0.0348 -0.0433
 1064YOPC   C2B15604   1.313   7.990   6.499  0.0241 -0.0897 -0.0197
 1064YOPC   D3B15605   0.942   7.641   6.485  0.0455  0.2643 -0.1040
 1064YOPC   C4B15606   0.585   7.466   6.204  0.2437 -0.0618  0.2238
 1065YOPC   NC315607  16.876   8.472   5.522 -0.3298  0.2075  0.2428
 1065YOPC   PO415608  17.139   8.511   5.802  0.0560 -0.0038  0.1674
 1065YOPC   GL115609  16.904   8.775   5.977  0.1572  0.3549 -0.0777
 1065YOPC   GL215610  16.854   9.097   5.927 -0.0165 -0.1161 -0.1020
 1065YOPC   C1A15611  16.439   8.925   6.067  0.1389  0.3613 -0.1267
 1065YOPC   D2A15612  16.048   8.886   6.354  0.0988 -0.0223  0.0514
 1065YOPC   C3A15613  16.101   8.746   6.820  0.2017 -0.0456  0.4381
 1065YOPC   C4A15614  15.857   8.963   7.211 -0.1166  0.2118  0.1106
 1065YOPC   C1B15615  16.852   9.069   6.360 -0.0819  0.3048 -0.1724
 1065YOPC   C2B15616  16.598   8.690   6.657  0.1681  0.0056  0.1451
 1065YOPC   D3B15617  16.775   8.387   6.722 -0.0563  0.3303 -0.1959
 1065YOPC   C4B15618  16.810   7.912   6.776  0.1665  0.0360 -0.0377
 1066YOPC   NC315619  14.859   6.557   5.413  0.0185 -0.1394 -0.0110
 1066YOPC   PO415620  15.184   6.405   5.716 -0.2735  0.0018  0.0126
 1066YOPC   GL115621  15.149   6.462   6.095 -0.0857 -0.2469 -0.1180
 1066YOPC   GL215622  15.265   6.814   6.188  0.0048  0.3252  0.1252
 1066YOPC   C1A15623  14.963   6.553   6.472  0.2309 -0.4256  0.1828
 1066YOPC   D2A15624  14.914   6.718   6.915 -0.1264 -0.4758 -0.0909
 1066YOPC   C3A15625  14.657   6.722   7.237  0.1825  0.2137 -0.0112
 1066YOPC   C4A15626  14.698   7.119   7.417 -0.0928 -0.2825 -0.2564
 1066YOPC   C1B15627  15.466   6.660   6.575  0.1311 -0.0587 -0.3230
 1066YOPC   C2B15628  15.405   6.702   7.001 -0.2020 -0.1155  0.2710
 1066YOPC   D3B15629  15.112   6.802   7.390  0.1499  0.1159 -0.2611
 1066YOPC   C4B15630  15.033   6.674   7.789  0.0141  0.1246  0.1431
 1067YOPC   NC315631   8.261   0.172   5.675 -0.0506  0.4732 -0.2434
 1067YOPC   PO415632   8.688   0.158   5.799 -0.1038 -0.2352 -0.0940
 1067YOPC   GL115633   8.839   0.206   6.180 -0.1000  0.1222  0.1694
 1067YOPC   GL215634   8.994   0.450   6.274 -0.0278 -0.2205 -0.3725
 1067YOPC   C1A15635   9.165   0.010   6.450  0.0529  0.1957  0.0916
 1067YOPC   D2A15636   9.106   0.058   6.899  0.1780 -0.1268  0.2017
 1067YOPC   C3A15637   9.040  -0.248   7.192  0.0225  0.2221 -0.1336
 1067YOPC   C4A15638   9.139  -0.646   7.215  0.3625  0.1223 -0.0547
 1067YOPC   C1B15639   8.909   0.755   6.702 -0.0202  0.0314  0.1151
 1067YOPC   C2B15640   9.160   0.983   6.935 -0.1040  0.0431  0.2532
 1067YOPC   D3B15641   9.192   1.346   6.819  0.0540  0.1384  0.2392
 1067YOPC   C4B15642   9.112   1.599   6.466 -0.0482 -0.1076  0.0033
 1068YOPC   NC315643   7.326   8.588   5.491 -0.3166 -0.4452  0.1681
 1068YOPC   PO415644   7.410   8.138   5.458 -0.1714 -0.2652 -0.1447
 1068YOPC   GL115645   7.654   8.135   5.828 -0.2783 -0.0130 -0.0404
 1068YOPC   GL215646   7.473   7.973   6.071  0.1450 -0.0948 -0.1216
 1068YOPC   C1A15647   7.585   8.492   6.072  0.1477  0.3767 -0.1623
 1068YOPC   D2A15648   7.512   8.256   6.545  0.1731  0.0444  0.0028
 1068YOPC   C3A15649   7.666   8.325   6.926 -0.1777  0.0420 -0.3544
 1068YOPC   C4A15650   7.708   8.655   7.203  0.1203  0.0254  0.0447
 1068YOPC   C1B15651   7.912   8.112   6.291  0.2106 -0.0293 -0.0403
 1068YOPC   C2B15652   8.376   8.167   6.293  0.0830  0.4136  0.1015
 1068YOPC   D3B15653   8.721   8.256   6.523 -0.0973  0.1824  0.0968
 1068YOPC   C4B15654   9.103   8.270   6.518  0.2096 -0.0757 -0.1990
 1069YOPC   NC315655   9.826   7.052   5.462  0.0901 -0.0416  0.1520
 1069YOPC   PO415656   9.819   6.622   5.738 -0.2978 -0.2808  0.0086
 1069YOPC   GL115657   9.861   6.457   6.049 -0.0642  0.1375  0.0877
 1069YOPC   GL215658   9.738   6.245   6.323 -0.0583  0.2619  0.2786
 1069YOPC   C1A15659  10.064   6.657   6.467  0.1509  0.1289 -0.2354
 1069YOPC   D2A15660   9.942   6.773   6.942  0.2311 -0.2102  0.1247
 1069YOPC   C3A15661  10.366   6.923   7.001  0.3168  0.1371  0.0659
 1069YOPC   C4A15662  10.685   7.069   7.281 -0.1502 -0.0169 -0.0335
 1069YOPC   C1B15663   9.623   6.449   6.671  0.3095 -0.1213  0.0759
 1069YOPC   C2B15664   9.571   6.390   7.104 -0.0090  0.0745  0.0904
 1069YOPC   D3B15665   9.651   6.715   7.389  0.2321 -0.0891 -0.3370
 1069YOPC   C4B15666   9.772   6.908   7.820  0.0707 -0.0512  0.2022
 1070YOPC   NC315667  15.595  17.845   5.411  0.3531  0.0718 -0.0195
 1070YOPC   PO415668  15.172  17.980   5.511 -0.5078 -0.1092  0.1164
 1070YOPC   GL115669  14.990  17.723   5.917 -0.0539  0.1890  0.2224
 1070YOPC   GL215670  15.009  17.726   6.103 -0.2718 -0.0933  0.0434
 1070YOPC   C1A15671  14.949  17.226   6.056  0.3296  0.0649 -0.0580
 1070YOPC   D2A15672  15.114  17.011   6.335 -0.0000  0.2014  0.0804
 1070YOPC   C3A15673  14.931  17.084   6.671  0.4126 -0.0809 -0.0918
 1070YOPC   C4A15674  15.058  17.375   7.017  0.1868  0.1434 -0.1249
 1070YOPC   C1B15675  15.093  17.580   6.600  0.1804 -0.0726  0.0356
 1070YOPC   C2B15676  14.895  17.890   6.939 -0.2684 -0.0153  0.0034
 1070YOPC   D3B15677  14.786  17.875   7.327 -0.1719  0.0622  0.3668
 1070YOPC   C4B15678  14.464  17.580   7.580  0.3012 -0.3101 -0.0189
 1071YOPC   NC315679  17.224   3.443   5.547 -0.1676  0.0325  0.4755
 1071YOPC   PO415680  17.424   3.138   5.681  0.0800  0.1767  0.2275
 1071YOPC   GL115681  17.495   2.995   6.141 -0.2786 -0.3385 -0.2395
 1071YOPC   GL215682  17.760   2.961   6.276  0.0748  0.3378  0.1777
 1071YOPC   C1A15683  17.365   3.148   6.557  0.3176 -0.1286 -0.0601
 1071YOPC   D2A15684  17.313   3.335   6.907  0.0898  0.1659 -0.1121
 1071YOPC   C3A15685  17.025   3.352   7.168 -0.3469  0.0919  0.3049
 1071YOPC   C4A15686  16.819   3.225   7.511 -0.3095 -0.0115 -0.1066
 1071YOPC   C1B15687  17.875   3.084   6.599  0.0331 -0.0079 -0.3259
 1071YOPC   C2B15688  17.799   3.243   7.023 -0.0647 -0.0359 -0.2077
 1071YOPC   D3B15689  17.775   3.065   7.357 -0.0098 -0.1452  0.2219
 1071YOPC   C4B15690  17.937   2.913   7.756  0.1271 -0.2679 -0.1059
 1072YOPC   NC315691   6.095  10.878   5.178  0.1108  0.0382 -0.1365
 1072YOPC   PO415692   6.410  10.528   5.189  0.2472  0.0347  0.0034
 1072YOPC   GL115693   6.611  10.425   5.589  0.0927  0.0386  0.1004
 1072YOPC   GL215694   6.813  10.664   5.712  0.4994 -0.1264 -0.1440
 1072YOPC   C1A15695   6.578  10.348   6.033  0.3875  0.0503  0.4031
 1072YOPC   D2A15696   6.328  10.503   6.408 -0.3775 -0.1411  0.1541
 1072YOPC   C3A15697   6.378  10.826   6.733  0.3158 -0.0589  0.1310
 1072YOPC   C4A15698   6.310  10.880   7.180 -0.2963 -0.1140 -0.0800
 1072YOPC   C1B15699   6.723  10.878   6.008  0.1287 -0.2778  0.1994
 1072YOPC   C2B15700   6.671  10.996   6.375  0.0784 -0.1834  0.0924
 1072YOPC   D3B15701   6.857  11.318   6.667 -0.0260  0.0531 -0.1971
 1072YOPC   C4B15702   7.130  11.334   6.963 -0.1778  0.2565 -0.1543
 1073YOPC   NC315703  10.381  10.574   5.387  0.0034  0.2962 -0.0670
 1073YOPC   PO415704  10.771  10.743   5.386 -0.0875  0.0904 -0.1566
 1073YOPC   GL115705  10.731  10.729   5.883 -0.0616 -0.0172  0.2561
 1073YOPC   GL215706  10.841  10.431   6.069  0.0705 -0.1841  0.4405
 1073YOPC   C1A15707  10.749  10.914   6.266  0.0404 -0.2036 -0.0849
 1073YOPC   D2A15708  10.873  10.947   6.658 -0.1286  0.2499  0.0746
 1073YOPC   C3A15709  11.243  11.014   6.894 -0.1983 -0.2203  0.1985
 1073YOPC   C4A15710  11.518  10.709   7.182 -0.0507  0.3408  0.1777
 1073YOPC   C1B15711  11.078  10.522   6.469 -0.0635 -0.1519 -0.5407
 1073YOPC   C2B15712  11.000  10.580   6.978 -0.1956  0.0210  0.0577
 1073YOPC   D3B15713  10.819  10.908   7.101 -0.0363 -0.3191 -0.1071
 1073YOPC   C4B15714  10.775  11.247   7.424 -0.3691  0.1906 -0.2777
 1074YOPC   NC315715  10.219  14.853   5.324 -0.1032  0.2195 -0.0584
 1074YOPC   PO415716   9.747  14.927   5.588  0.0249  0.1866 -0.3902
 1074YOPC   GL115717   9.758  15.099   5.999  0.2750  0.0146 -0.1527
 1074YOPC   GL215718   9.565  15.407   5.974  0.1348  0.3012  0.0469
 1074YOPC   C1A15719  10.001  15.267   6.234  0.0031  0.0825 -0.0688
 1074YOPC   D2A15720  10.175  15.280   6.623 -0.2618  0.3094 -0.0113
 1074YOPC   C3A15721  10.197  14.894   6.836 -0.3061 -0.2168  0.1543
 1074YOPC   C4A15722  10.398  14.582   6.979  0.1184  0.0867 -0.2043
 1074YOPC   C1B15723   9.561  15.476   6.474  0.0369  0.1525  0.3992
 1074YOPC   C2B15724   9.688  15.426   6.914  0.0417  0.1818 -0.2009
 1074YOPC   D3B15725  10.061  15.358   7.147  0.1670  0.0709 -0.1437
 1074YOPC   C4B15726  10.487  15.544   7.313  0.1565 -0.3424 -0.0001
 1075YOPC   NC315727  13.082   6.008   5.299 -0.0283 -0.1394 -0.0274
 1075YOPC   PO415728  13.040   5.590   5.472  0.1210  0.1088  0.0097
 1075YOPC   GL115729  12.975   5.759   5.816  0.2819  0.1374  0.0003
 1075YOPC   GL215730  13.137   5.527   6.110 -0.0227  0.0410  0.4981
 1075YOPC   C1A15731  12.917   5.974   6.172 -0.0088 -0.0378 -0.1334
 1075YOPC   D2A15732  13.139   6.137   6.554 -0.0027 -0.0372  0.1409
 1075YOPC   C3A15733  13.043   5.938   6.904  0.2366 -0.0511  0.0958
 1075YOPC   C4A15734  12.786   5.714   7.146 -0.0384  0.0749  0.2069
 1075YOPC   C1B15735  13.363   5.708   6.445 -0.0043  0.2776 -0.1996
 1075YOPC   C2B15736  13.618   5.623   6.769 -0.0502 -0.0613  0.2329
 1075YOPC   D3B15737  13.737   5.610   7.245  0.3679  0.2644  0.1641
 1075YOPC   C4B15738  13.635   5.338   7.633  0.0283  0.3679 -0.0660
 1076YOPC   NC315739  10.901  17.999   5.560 -0.0041 -0.1115 -0.1089
 1076YOPC   PO415740  10.581  18.090   5.244 -0.1178  0.3022 -0.2436
 1076YOPC   GL115741  10.384  18.018   5.599 -0.3182 -0.1245  0.1190
 1076YOPC   GL215742  10.278  17.731   5.906  0.4431  0.0096  0.1849
 1076YOPC   C1A15743  10.345  18.211   6.010  0.0807 -0.0291  0.3953
 1076YOPC   D2A15744  10.491  18.255   6.402  0.0332 -0.0079 -0.0518
 1076YOPC   C3A15745  10.375  18.060   6.803  0.0970  0.0808  0.1933
 1076YOPC   C4A15746  10.458  17.884   7.132  0.3265 -0.2828 -0.2189
 1076YOPC   C1B15747  10.224  17.650   6.386 -0.1876  0.2544 -0.0614
 1076YOPC   C2B15748  10.123  17.584   6.748 -0.1623 -0.0924 -0.1925
 1076YOPC   D3B15749   9.979  17.912   7.017 -0.2431 -0.0110  0.3827
 1076YOPC   C4B15750  10.049  18.323   7.134 -0.0201 -0.1378  0.0485
 1077YOPC   NC315751  13.512   6.886   5.723 -0.2866  0.1670 -0.0322
 1077YOPC   PO415752  13.506   7.242   5.409  0.0476  0.2250 -0.1886
 1077YOPC   GL115753  13.623   7.404   5.793 -0.1090  0.0535 -0.3704
 1077YOPC   GL215754  13.899   7.502   5.846 -0.1278 -0.0979  0.1930
 1077YOPC   C1A15755  13.267   7.607   6.055 -0.0855  0.0474 -0.2604
 1077YOPC   D2A15756  13.145   8.057   6.056  0.0570  0.1228  0.0549
 1077YOPC   C3A15757  13.118   8.564   6.282 -0.1126 -0.1078  0.0115
 1077YOPC   C4A15758  12.970   8.972   6.417  0.1312  0.5465 -0.2574
 1077YOPC   C1B15759  13.969   7.474   6.262 -0.0012  0.1005 -0.1468
 1077YOPC   C2B15760  14.003   7.338   6.723 -0.0354  0.0824  0.0551
 1077YOPC   D3B15761  13.674   7.134   6.895  0.2149 -0.1510  0.3146
 1077YOPC   C4B15762  13.375   6.923   7.045 -0.3422 -0.0117  0.0356
 1078YOPC   NC315763  13.484  14.347   5.051 -0.3703  0.3622 -0.1497
 1078YOPC   PO415764  13.480  14.319   5.559  0.0031 -0.0551 -0.0971
 1078YOPC   GL115765  13.410  14.243   5.882 -0.1732  0.0718  0.2070
 1078YOPC   GL215766  13.669  14.089   6.001  0.1200 -0.3065  0.0467
 1078YOPC   C1A15767  13.243  14.235   6.287  0.1281 -0.3219  0.2984
 1078YOPC   D2A15768  13.235  14.417   6.548  0.1002  0.2096  0.0875
 1078YOPC   C3A15769  12.853  14.346   6.787 -0.0711 -0.0232  0.2672
 1078YOPC   C4A15770  12.395  14.319   6.755  0.1088  0.1167 -0.0927
 1078YOPC   C1B15771  13.653  14.117   6.452 -0.0017 -0.0872 -0.0260
 1078YOPC   C2B15772  13.594  14.250   6.851 -0.2166 -0.3660 -0.0538
 1078YOPC   D3B15773  13.702  14.372   7.263  0.0797 -0.0370 -0.0132
 1078YOPC   C4B15774  13.967  14.197   7.592 -0.4400  0.1678  0.0506
 1079YOPC   NC315775   9.689  13.959   5.444  0.0965 -0.1330  0.1118
 1079YOPC   PO415776   9.465  13.823   5.638 -0.2413 -0.1031  0.1956
 1079YOPC   GL115777   9.608  14.170   5.853 -0.1689 -0.0648 -0.0770
 1079YOPC   GL215778   9.572  14.039   6.096 -0.2934 -0.0400 -0.2227
 1079YOPC   C1A15779   9.856  14.460   6.186 -0.0005 -0.1419 -0.1452
 1079YOPC   D2A15780   9.895  14.851   6.425  0.3875 -0.3842  0.0534
 1079YOPC   C3A15781   9.753  14.819   6.912 -0.0620 -0.3063  0.0118
 1079YOPC   C4A15782   9.701  14.522   7.168 -0.0265  0.0669 -0.3666
 1079YOPC   C1B15783   9.531  14.175   6.453 -0.0172 -0.1844  0.0910
 1079YOPC   C2B15784   9.492  14.513   6.600 -0.1023  0.0333 -0.0559
 1079YOPC   D3B15785   9.415  14.773   6.372 -0.0579 -0.1564 -0.1915
 1079YOPC   C4B15786   9.276  15.134   6.277 -0.1148  0.0846 -0.0047
 1080YOPC   NC315787   2.572  11.740   5.185  0.0028  0.2443 -0.0908
 1080YOPC   PO415788   2.840  12.093   5.298 -0.0379  0.0741 -0.4261
 1080YOPC   GL115789   2.760  12.145   5.713  0.1768 -0.1589  0.1210
 1080YOPC   GL215790   2.525  11.927   5.895 -0.1558 -0.1589  0.2950
 1080YOPC   C1A15791   2.632  12.468   6.034 -0.0447  0.1017  0.2387
 1080YOPC   D2A15792   2.471  12.791   6.197 -0.0878 -0.1355  0.1916
 1080YOPC   C3A15793   2.663  13.031   6.515 -0.0980  0.1023 -0.0640
 1080YOPC   C4A15794   2.975  13.183   6.765 -0.0972  0.0885  0.1683
 1080YOPC   C1B15795   2.822  12.007   6.286  0.0027 -0.2187  0.1755
 1080YOPC   C2B15796   3.123  12.160   6.493  0.1390  0.3775  0.1853
 1080YOPC   D3B15797   3.063  12.121   6.908  0.1826 -0.1934 -0.0713
 1080YOPC   C4B15798   3.330  12.153   7.282 -0.3397 -0.0263 -0.1155
 1081YOPC   NC315799   0.015   0.787   4.551  0.1610  0.1209 -0.1232
 1081YOPC   PO415800  -0.050   0.776   4.922  0.2988 -0.0463 -0.1655
 1081YOPC   GL115801  -0.161   0.820   5.416 -0.0018  0.0862  0.1285
 1081YOPC   GL215802  -0.443   0.696   5.590  0.5050 -0.1539  0.0109
 1081YOPC   C1A15803   0.006   1.063   5.761 -0.1938  0.0059 -0.1218
 1081YOPC   D2A15804   0.268   1.516   5.722 -0.2389  0.0428 -0.1869
 1081YOPC   C3A15805   0.677   1.323   5.966  0.0523  0.1035  0.1424
 1081YOPC   C4A15806   1.080   1.521   5.966  0.0578 -0.0837  0.3504
 1081YOPC   C1B15807  -0.365   0.716   5.915  0.2379  0.0909  0.3770
 1081YOPC   C2B15808  -0.086   0.888   6.215 -0.1660 -0.2260  0.2943
 1081YOPC   D3B15809   0.025   0.991   6.626  0.2114  0.0620  0.2601
 1081YOPC   C4B15810  -0.029   0.888   7.062 -0.1759  0.3301 -0.1523
 1082YOPC   NC315811  15.329  13.038   5.376  0.0549  0.0781  0.1281
 1082YOPC   PO415812  15.466  12.861   5.741  0.1908  0.1303  0.1658
 1082YOPC   GL115813  15.483  12.831   6.145  0.1645 -0.1611  0.0126
 1082YOPC   GL215814  15.703  12.906   6.186  0.2114 -0.1572  0.2419
 1082YOPC   C1A15815  15.419  12.983   6.550 -0.2749  0.0244  0.0779
 1082YOPC   D2A15816  15.562  13.035   6.967 -0.1475 -0.0137 -0.2648
 1082YOPC   C3A15817  15.525  12.986   7.297 -0.3381 -0.1824  0.2322
 1082YOPC   C4A15818  15.432  13.238   7.696 -0.0252  0.0745 -0.2420
 1082YOPC   C1B15819  15.869  12.839   6.600  0.1304  0.1674  0.0538
 1082YOPC   C2B15820  16.012  12.796   6.999  0.0153  0.1688  0.1470
 1082YOPC   D3B15821  15.986  13.207   7.258 -0.0331 -0.3966 -0.0546
 1082YOPC   C4B15822  16.175  13.346   7.671  0.2091 -0.1938  0.2719
 1083YOPC   NC315823  15.174   2.608   5.800 -0.1309  0.4636 -0.1717
 1083YOPC   PO415824  15.424   2.237   5.819 -0.0562 -0.0033 -0.0964
 1083YOPC   GL115825  15.589   2.269   6.189 -0.0687  0.1335  0.0460
 1083YOPC   GL215826  15.573   2.581   6.290  0.0253  0.1870 -0.2545
 1083YOPC   C1A15827  15.633   2.152   6.634 -0.0379  0.0154  0.1070
 1083YOPC   D2A15828  15.612   2.067   7.153  0.0096 -0.0202  0.0449
 1083YOPC   C3A15829  15.831   1.846   7.516 -0.1032  0.1904  0.0994
 1083YOPC   C4A15830  16.026   1.406   7.476 -0.2454  0.1681  0.0090
 1083YOPC   C1B15831  15.227   2.700   6.573  0.0733  0.1699 -0.4386
 1083YOPC   C2B15832  14.946   2.707   6.974  0.1938  0.2458 -0.2849
 1083YOPC   D3B15833  14.788   2.354   7.214 -0.0503  0.1034  0.0795
 1083YOPC   C4B15834  14.868   2.133   7.654 -0.1369 -0.2910  0.4260
 1084YOPC   NC315835  16.576  16.353   4.999  0.1645 -0.0923  0.1933
 1084YOPC   PO415836  16.417  16.668   5.460 -0.0019  0.0313 -0.1706
 1084YOPC   GL115837  16.613  16.634   5.814 -0.2108  0.0415 -0.2887
 1084YOPC   GL215838  16.815  16.759   5.966  0.2269 -0.3010  0.2544
 1084YOPC   C1A15839  16.748  16.228   6.109  0.2319 -0.3689 -0.3961
 1084YOPC   D2A15840  16.878  16.418   6.578 -0.1851 -0.0286 -0.1067
 1084YOPC   C3A15841  16.958  16.793   6.792 -0.0582  0.3625 -0.1651
 1084YOPC   C4A15842  17.075  17.146   6.812  0.0992  0.0460  0.1718
 1084YOPC   C1B15843  16.686  16.886   6.371  0.1756 -0.0375  0.1535
 1084YOPC   C2B15844  16.472  16.839   6.768 -0.0594  0.1222  0.0160
 1084YOPC   D3B15845  16.584  16.440   7.009  0.3150  0.1587  0.0256
 1084YOPC   C4B15846  16.643  16.052   7.363 -0.1922  0.3528 -0.0480
 1085YOPC   NC315847  15.583   4.719   5.755 -0.0675 -0.0293 -0.1188
 1085YOPC   PO415848  15.531   5.168   5.790 -0.1565 -0.0897  0.0811
 1085YOPC   GL115849  15.337   5.385   6.149  0.3227  0.1492 -0.0985
 1085YOPC   GL215850  14.988   5.607   6.193 -0.2108 -0.0649 -0.1081
 1085YOPC   C1A15851  15.364   5.540   6.645 -0.1326  0.1436 -0.2907
 1085YOPC   D2A15852  15.606   5.803   6.960  0.0012  0.0345 -0.1804
 1085YOPC   C3A15853  15.738   5.658   7.329  0.2071  0.0511  0.0406
 1085YOPC   C4A15854  16.067   5.639   7.704 -0.1091 -0.2398 -0.0605
 1085YOPC   C1B15855  14.854   5.729   6.583 -0.1284 -0.1908 -0.0785
 1085YOPC   C2B15856  14.445   5.870   6.679  0.2015 -0.0656  0.0786
 1085YOPC   D3B15857  14.059   5.581   6.585  0.0799 -0.2478 -0.2092
 1085YOPC   C4B15858  13.910   5.535   6.181  0.2048 -0.1076 -0.3195
 1086YOPC   NC315859  14.872  17.066   4.910 -0.0772  0.1630 -0.1123
 1086YOPC   PO415860  14.487  17.162   5.103 -0.0126  0.0525 -0.0796
 1086YOPC   GL115861  14.503  17.097   5.523 -0.0771  0.1430 -0.2140
 1086YOPC   GL215862  14.201  17.158   5.564  0.1207  0.2157 -0.0042
 1086YOPC   C1A15863  14.467  17.011   6.011 -0.1983 -0.2347 -0.2326
 1086YOPC   D2A15864  14.591  16.963   6.329 -0.0916 -0.3195  0.0678
 1086YOPC   C3A15865  14.744  16.648   6.591  0.3308 -0.1586  0.0645
 1086YOPC   C4A15866  14.975  16.695   6.982  0.1118  0.0539  0.0489
 1086YOPC   C1B15867  14.014  17.096   5.936 -0.0138 -0.1002 -0.0020
 1086YOPC   C2B15868  13.844  17.280   6.314  0.0560 -0.1912 -0.0841
 1086YOPC   D3B15869  14.162  17.104   6.546 -0.3015  0.0469 -0.0878
 1086YOPC   C4B15870  14.430  16.970   6.819 -0.1111 -0.0865  0.2470
 1087YOPC   NC315871   7.761   2.188   5.401 -0.0993  0.1316 -0.0240
 1087YOPC   PO415872   7.942   2.560   5.548  0.1694 -0.1340  0.0039
 1087YOPC   GL115873   7.798   2.704   5.976  0.1957  0.3969 -0.1653
 1087YOPC   GL215874   7.841   2.972   6.246  0.1607 -0.2962  0.0650
 1087YOPC   C1A15875   7.467   2.753   6.195  0.1286 -0.3069  0.0566
 1087YOPC   D2A15876   7.292   2.672   6.587 -0.3109 -0.1259  0.1716
 1087YOPC   C3A15877   7.343   2.749   7.003 -0.0641 -0.1967  0.0330
 1087YOPC   C4A15878   7.391   2.570   7.424 -0.2451 -0.0645  0.3611
 1087YOPC   C1B15879   7.571   3.313   6.321 -0.0088  0.1302  0.3721
 1087YOPC   C2B15880   7.467   3.595   6.645  0.0357 -0.2203  0.2032
 1087YOPC   D3B15881   7.485   3.295   6.904 -0.0858 -0.1311 -0.1278
 1087YOPC   C4B15882   7.772   3.157   7.147  0.1006  0.0019  0.1854
 1088YOPC   NC315883   2.549  10.855   5.093 -0.2184 -0.0146  0.0374
 1088YOPC   PO415884   3.070  10.820   5.224 -0.2558  0.0792 -0.1802
 1088YOPC   GL115885   3.293  10.909   5.739  0.1912  0.2549 -0.1539
 1088YOPC   GL215886   3.540  10.762   5.847 -0.0179 -0.1691 -0.0616
 1088YOPC   C1A15887   3.056  10.967   6.132 -0.0030 -0.3033 -0.1691
 1088YOPC   D2A15888   2.951  11.042   6.615  0.1292  0.2351  0.2132
 1088YOPC   C3A15889   3.075  10.735   6.910 -0.0071  0.0181  0.2334
 1088YOPC   C4A15890   3.099  10.817   7.405 -0.2530 -0.0795  0.6744
 1088YOPC   C1B15891   3.707  10.765   6.263  0.1747 -0.0179 -0.1857
 1088YOPC   C2B15892   3.611  10.603   6.687  0.0199  0.1987 -0.4293
 1088YOPC   D3B15893   3.583  10.841   7.067 -0.1129  0.1389 -0.1987
 1088YOPC   C4B15894   3.462  11.154   7.375 -0.2395  0.2220  0.0261
 1089YOPC   NC315895  12.415   8.804   5.863 -0.0585 -0.0577 -0.3683
 1089YOPC   PO415896  12.378   9.266   5.769 -0.2261  0.1477  0.2345
 1089YOPC   GL115897  12.573   9.162   6.192  0.1471  0.0052  0.0647
 1089YOPC   GL215898  12.294   9.102   6.247 -0.1152 -0.1628  0.2871
 1089YOPC   C1A15899  12.649   9.370   6.527 -0.0759  0.2386 -0.0845
 1089YOPC   D2A15900  13.033   9.263   6.763  0.0544  0.0389  0.2629
 1089YOPC   C3A15901  13.088   9.399   7.140  0.0676  0.1399 -0.1681
 1089YOPC   C4A15902  13.240   9.579   7.596 -0.0084  0.3567 -0.0926
 1089YOPC   C1B15903  12.115   9.165   6.625 -0.0857  0.0448  0.1824
 1089YOPC   C2B15904  12.145   9.280   7.082 -0.1839 -0.4281 -0.2692
 1089YOPC   D3B15905  12.223   9.064   7.421 -0.3395  0.4184  0.0225
 1089YOPC   C4B15906  12.497   8.772   7.536  0.2149  0.2402 -0.3294
 1090YOPC   NC315907   4.939   4.723   5.468  0.3786 -0.1134  0.2885
 1090YOPC   PO415908   5.029   5.220   5.413  0.1974  0.0718 -0.1567
 1090YOPC   GL115909   5.031   5.221   5.865 -0.0367  0.0186  0.0053
 1090YOPC   GL215910   5.073   4.853   5.954 -0.1070  0.0582 -0.2501
 1090YOPC   C1A15911   5.323   5.307   6.091 -0.0076 -0.0187 -0.0724
 1090YOPC   D2A15912   5.578   5.478   6.509  0.0799 -0.1558  0.0458
 1090YOPC   C3A15913   5.738   5.848   6.668 -0.2332  0.4130 -0.3277
 1090YOPC   C4A15914   5.603   6.106   6.936  0.0847  0.3568 -0.0477
 1090YOPC   C1B15915   5.186   4.841   6.332  0.3399  0.0188 -0.1924
 1090YOPC   C2B15916   5.443   4.960   6.614  0.0938  0.0286 -0.1160
 1090YOPC   D3B15917   5.329   4.786   6.999 -0.5021  0.1468  0.4238
 1090YOPC   C4B15918   5.488   4.850   7.456  0.2531  0.2112 -0.0564
 1091YOPC   NC315919  17.734   0.231   5.160 -0.2660  0.0301 -0.0591
 1091YOPC   PO415920  18.076   0.367   5.329 -0.3654 -0.2061 -0.2857
 1091YOPC   GL115921  18.012   0.470   5.752  0.0804 -0.0159 -0.2861
 1091YOPC   GL215922  17.696   0.470   5.903 -0.1681 -0.0005  0.4325
 1091YOPC   C1A15923  18.147   0.447   6.201 -0.2923  0.0088 -0.0107
 1091YOPC   D2A15924  18.503   0.457   6.515  0.1314 -0.0483 -0.0484
 1091YOPC   C3A15925  18.764   0.121   6.816  0.0826  0.0895  0.0474
 1091YOPC   C4A15926  18.907  -0.376   6.794  0.1554 -0.0089 -0.0498
 1091YOPC   C1B15927  17.821   0.046   6.097 -0.3102  0.1650  0.0428
 1091YOPC   C2B15928  17.724  -0.243   6.383  0.2482  0.1771  0.3080
 1091YOPC   D3B15929  17.818  -0.081   6.767  0.3963  0.0039  0.2543
 1091YOPC   C4B15930  18.225  -0.067   6.997  0.1057 -0.1403  0.2196
 1092YOPC   NC315931  16.495  13.274   5.100 -0.1048  0.2580  0.2365
 1092YOPC   PO415932  16.326  13.326   5.543  0.1476 -0.1599  0.1527
 1092YOPC   GL115933  16.169  13.358   5.933  0.0882  0.1033  0.0326
 1092YOPC   GL215934  15.969  13.627   5.977 -0.0225 -0.2141 -0.2784
 1092YOPC   C1A15935  16.026  13.201   6.263  0.1077  0.0125 -0.0410
 1092YOPC   D2A15936  15.974  13.297   6.734  0.3531  0.4088 -0.0356
 1092YOPC   C3A15937  16.099  13.678   7.031  0.0677 -0.1950  0.0416
 1092YOPC   C4A15938  16.557  13.633   7.373 -0.2922  0.0061 -0.0911
 1092YOPC   C1B15939  15.941  13.804   6.367  0.1284  0.1378  0.1135
 1092YOPC   C2B15940  15.800  14.005   6.684  0.3485 -0.2289  0.2695
 1092YOPC   D3B15941  15.660  14.404   6.660 -0.0595 -0.1707 -0.1357
 1092YOPC   C4B15942  15.463  14.820   6.515  0.0210 -0.0530 -0.1718
 1093YOPC   NC315943   2.693   8.875   5.522 -0.1323  0.0616  0.1798
 1093YOPC   PO415944   3.075   8.743   5.592 -0.2290 -0.0639  0.2521
 1093YOPC   GL115945   2.809   8.463   5.874 -0.0623 -0.3131  0.1206
 1093YOPC   GL215946   2.746   8.106   5.791  0.1203 -0.2053 -0.3657
 1093YOPC   C1A15947   2.694   8.251   6.308  0.1983 -0.0402  0.1056
 1093YOPC   D2A15948   2.714   7.967   6.617  0.0925  0.0264  0.3273
 1093YOPC   C3A15949   2.752   7.975   7.092 -0.1635  0.1731  0.3471
 1093YOPC   C4A15950   2.853   8.342   7.332  0.0066 -0.1681 -0.2027
 1093YOPC   C1B15951   2.926   7.796   6.134 -0.3012  0.0467  0.3203
 1093YOPC   C2B15952   3.107   7.575   6.531  0.0183 -0.0187  0.1377
 1093YOPC   D3B15953   3.089   7.639   6.937  0.1516  0.0598 -0.0481
 1093YOPC   C4B15954   3.209   7.572   7.393 -0.4986  0.3200  0.2309
 1094YOPC   NC315955   8.348   1.751   5.250 -0.2905 -0.0863  0.2221
 1094YOPC   PO415956   7.991   1.785   5.615 -0.1690  0.0762  0.0781
 1094YOPC   GL115957   7.736   1.772   5.945 -0.0610  0.1428  0.2709
 1094YOPC   GL215958   7.839   1.380   5.877 -0.2649  0.1878  0.1428
 1094YOPC   C1A15959   7.372   1.768   6.191 -0.3100 -0.0341 -0.1740
 1094YOPC   D2A15960   7.334   1.768   6.643  0.0851  0.2324 -0.2191
 1094YOPC   C3A15961   6.983   1.657   6.851  0.1066  0.1290 -0.2167
 1094YOPC   C4A15962   6.769   1.420   6.655 -0.1982 -0.1687  0.0040
 1094YOPC   C1B15963   7.730   1.408   6.295  0.1207  0.0145 -0.1168
 1094YOPC   C2B15964   7.866   1.745   6.555 -0.2092 -0.0937  0.1075
 1094YOPC   D3B15965   7.938   2.127   6.376 -0.0238  0.2173  0.0316
 1094YOPC   C4B15966   7.987   2.489   6.433  0.2040  0.0766 -0.1636
 1095YOPC   NC315967  17.712   4.123   5.382 -0.0066  0.2048  0.0676
 1095YOPC   PO415968  17.836   4.540   5.614  0.4330 -0.1852 -0.1246
 1095YOPC   GL115969  18.077   4.413   5.993 -0.2832  0.0893 -0.0113
 1095YOPC   GL215970  18.258   4.022   6.045 -0.0720 -0.2727  0.1668
 1095YOPC   C1A15971  18.222   4.429   6.444 -0.0536 -0.3720  0.0633
 1095YOPC   D2A15972  18.378   4.391   6.772  0.0657 -0.1263  0.0613
 1095YOPC   C3A15973  18.563   4.529   7.126  0.2768  0.1234  0.1463
 1095YOPC   C4A15974  18.610   4.860   7.430 -0.0692 -0.2543 -0.0717
 1095YOPC   C1B15975  18.394   3.939   6.474 -0.2707 -0.0545 -0.0116
 1095YOPC   C2B15976  18.643   3.896   6.893  0.0685  0.0367 -0.1119
 1095YOPC   D3B15977  18.483   3.625   7.186 -0.2370 -0.0199  0.0365
 1095YOPC   C4B15978  18.150   3.407   7.397  0.1388 -0.2199  0.1552
 1096YOPC   NC315979  14.390   7.125   5.637 -0.2342 -0.2497  0.1143
 1096YOPC   PO415980  14.427   6.782   5.590  0.0323 -0.0766 -0.0643
 1096YOPC   GL115981  14.390   6.831   6.082  0.3707 -0.0485 -0.2695
 1096YOPC   GL215982  14.546   6.660   6.191 -0.0967 -0.4779 -0.1638
 1096YOPC   C1A15983  13.943   6.861   6.367 -0.0945  0.0334  0.3224
 1096YOPC   D2A15984  13.697   6.562   6.599 -0.2444  0.0944  0.1246
 1096YOPC   C3A15985  13.646   6.483   7.106 -0.0735  0.0139  0.0718
 1096YOPC   C4A15986  13.576   6.386   7.545 -0.1803  0.1526  0.2973
 1096YOPC   C1B15987  14.462   6.643   6.599  0.1079  0.2323 -0.0674
 1096YOPC   C2B15988  14.206   6.686   7.022 -0.0196 -0.1974  0.2884
 1096YOPC   D3B15989  14.259   6.870   7.529 -0.1599 -0.2218 -0.2370
 1096YOPC   C4B15990  14.044   6.696   7.805 -0.0775  0.1450  0.1371
 1097YOPC   NC315991   6.631  12.326   5.239  0.1829 -0.2854  0.2750
 1097YOPC   PO415992   6.475  11.904   5.266  0.0691  0.0755 -0.0456
 1097YOPC   GL115993   6.251  11.837   5.709  0.0863 -0.1831  0.0977
 1097YOPC   GL215994   6.398  11.968   5.936  0.1272 -0.2362  0.2028
 1097YOPC   C1A15995   5.953  11.674   5.938 -0.0889 -0.0646  0.0476
 1097YOPC   D2A15996   6.235  11.437   6.207  0.1524  0.1696  0.0955
 1097YOPC   C3A15997   6.256  11.251   6.605 -0.2394 -0.3369 -0.1353
 1097YOPC   C4A15998   6.447  11.345   6.960 -0.1027  0.1254 -0.2083
 1097YOPC   C1B15999   6.549  12.148   6.375  0.1306 -0.1662 -0.3267
 1097YOPC   C2B16000   6.523  12.412   6.739  0.0443 -0.1718  0.0103
 1097YOPC   D3B16001   6.604  12.335   7.179 -0.1053  0.0289 -0.2806
 1097YOPC   C4B16002   6.844  12.510   7.588  0.0851  0.2708  0.0492
 1098YOPC   NC316003   0.607   6.449   5.534 -0.0351  0.1240 -0.0509
 1098YOPC   PO416004   0.502   6.834   5.554 -0.2815  0.3503 -0.2808
 1098YOPC   GL116005   0.778   6.722   5.886 -0.0747  0.0519  0.1331
 1098YOPC   GL216006   0.837   7.065   5.988 -0.3240 -0.1607  0.1968
 1098YOPC   C1A16007   0.805   6.588   6.258 -0.1193  0.3210 -0.0840
 1098YOPC   D2A16008   0.883   6.317   6.570 -0.0731  0.2686 -0.0751
 1098YOPC   C3A16009   0.852   6.477   7.020  0.1487  0.0043 -0.0263
 1098YOPC   C4A16010   0.843   6.541   7.457 -0.2760  0.2117  0.0849
 1098YOPC   C1B16011   0.842   7.126   6.424  0.1927 -0.0274  0.0509
 1098YOPC   C2B16012   0.942   7.155   6.853  0.0575 -0.0944  0.2661
 1098YOPC   D3B16013   0.646   7.173   7.165  0.0798 -0.1748  0.1157
 1098YOPC   C4B16014   0.466   7.354   7.519 -0.0067 -0.2012  0.2039
 1099YOPC   NC316015   9.202   4.985   5.343  0.4054 -0.0531 -0.3506
 1099YOPC   PO416016   9.681   5.019   5.411  0.0998 -0.1165 -0.0039
 1099YOPC   GL116017   9.451   5.108   5.747 -0.3074 -0.0194 -0.1166
 1099YOPC   GL216018   9.641   5.127   6.003  0.1521 -0.1125  0.1586
 1099YOPC   C1A16019   9.068   5.126   6.057  0.3555 -0.1604  0.1261
 1099YOPC   D2A16020   8.687   5.142   6.162  0.1477 -0.0644  0.1630
 1099YOPC   C3A16021   8.291   4.873   6.200  0.0012  0.4407  0.0317
 1099YOPC   C4A16022   7.945   4.836   5.876  0.0385  0.1232 -0.0086
 1099YOPC   C1B16023   9.460   4.978   6.365  0.0313 -0.1165  0.0523
 1099YOPC   C2B16024   9.439   5.137   6.871 -0.1085 -0.0115 -0.0954
 1099YOPC   D3B16025   9.002   5.059   7.078 -0.0761 -0.2075 -0.1987
 1099YOPC   C4B16026   8.831   5.174   7.491  0.1657 -0.2887  0.2168
 1100YOPC   NC316027   5.825  12.492   5.126  0.0206 -0.1112  0.3451
 1100YOPC   PO416028   6.254  12.644   5.028  0.0225 -0.0813 -0.2537
 1100YOPC   GL116029   6.465  12.736   5.459 -0.0789 -0.1054  0.1312
 1100YOPC   GL216030   6.510  12.467   5.712 -0.0756 -0.1120 -0.0269
 1100YOPC   C1A16031   6.602  13.021   5.822  0.1650  0.0015  0.3110
 1100YOPC   D2A16032   6.660  13.274   6.150  0.0151  0.2456 -0.1599
 1100YOPC   C3A16033   7.096  13.526   6.258 -0.1118 -0.0999 -0.0227
 1100YOPC   C4A16034   7.245  13.615   6.590 -0.2619 -0.1604  0.0208
 1100YOPC   C1B16035   6.881  12.323   6.024  0.1300  0.1387  0.3268
 1100YOPC   C2B16036   7.060  12.385   6.338  0.2663  0.0570  0.2822
 1100YOPC   D3B16037   6.976  12.376   6.742 -0.0934 -0.1797  0.1393
 1100YOPC   C4B16038   7.171  12.486   7.083  0.0843 -0.3784  0.0475
 1101YOPC   NC316039   2.756   5.860   5.777  0.0529 -0.0389 -0.1002
 1101YOPC   PO416040   3.222   5.923   5.837  0.0291 -0.1448 -0.3362
 1101YOPC   GL116041   3.088   5.755   6.192 -0.0398 -0.1110 -0.2304
 1101YOPC   GL216042   2.873   5.518   6.130  0.2969 -0.1947 -0.1159
 1101YOPC   C1A16043   3.011   5.781   6.650 -0.2529 -0.2982 -0.1849
 1101YOPC   D2A16044   2.938   6.009   7.091  0.3472  0.1303 -0.2439
 1101YOPC   C3A16045   3.127   5.694   7.406  0.3610 -0.2887 -0.3634
 1101YOPC   C4A16046   2.904   5.325   7.441 -0.0959  0.0076 -0.1475
 1101YOPC   C1B16047   2.729   5.380   6.528 -0.0463 -0.2704 -0.2686
 1101YOPC   C2B16048   2.640   5.418   6.967 -0.5964  0.0500  0.1093
 1101YOPC   D3B16049   2.492   5.050   7.288  0.1037 -0.1321  0.3398
 1101YOPC   C4B16050   2.251   5.111   7.541 -0.2087 -0.0252 -0.0782
 1102YOPC   NC316051  16.843  10.638   5.442 -0.4070 -0.0831 -0.0254
 1102YOPC   PO416052  17.012  10.234   5.563 -0.1283  0.2796 -0.2165
 1102YOPC   GL116053  17.075  10.524   5.901 -0.0848  0.0352 -0.0849
 1102YOPC   GL216054  17.311  10.797   5.943  0.0780  0.1021 -0.1194
 1102YOPC   C1A16055  16.897  10.589   6.309 -0.0158  0.2290  0.1299
 1102YOPC   D2A16056  16.952  10.798   6.718  0.0546  0.1332 -0.2220
 1102YOPC   C3A16057  16.564  10.817   7.053 -0.1831 -0.0262  0.0483
 1102YOPC   C4A16058  16.301  11.011   7.338  0.0211  0.0551 -0.0240
 1102YOPC   C1B16059  17.247  10.983   6.265  0.4654 -0.1142  0.3701
 1102YOPC   C2B16060  17.395  11.154   6.627 -0.0373 -0.0461  0.1904
 1102YOPC   D3B16061  17.402  10.965   6.979  0.0165 -0.1681  0.0393
 1102YOPC   C4B16062  17.622  10.853   7.381 -0.0344  0.0166  0.1370
 1103YOPC   NC316063  13.365   9.092   5.465 -0.0391 -0.4666 -0.1375
 1103YOPC   PO416064  13.742   8.809   5.552  0.2978  0.1888 -0.2996
 1103YOPC   GL116065  13.859   8.829   6.008 -0.0726 -0.1174  0.1604
 1103YOPC   GL216066  14.120   8.731   5.917  0.0493 -0.1476  0.0264
 1103YOPC   C1A16067  13.895   8.938   6.460  0.1193  0.0657  0.2259
 1103YOPC   D2A16068  13.819   8.968   6.976  0.1232 -0.2660 -0.0238
 1103YOPC   C3A16069  13.810   8.945   7.447  0.0365  0.1308 -0.0640
 1103YOPC   C4A16070  14.190   8.826   7.783 -0.1052  0.1355 -0.3492
 1103YOPC   C1B16071  14.305   8.728   6.212 -0.0396  0.3797  0.0069
 1103YOPC   C2B16072  14.627   8.549   6.260 -0.0695  0.1001 -0.1350
 1103YOPC   D3B16073  14.975   8.597   6.118  0.0316 -0.0193 -0.1491
 1103YOPC   C4B16074  15.338   8.829   5.925  0.0285 -0.0740 -0.1402
 1104YOPC   NC316075  18.473  12.357   5.435  0.0026  0.1345  0.2618
 1104YOPC   PO416076  18.706  11.932   5.517 -0.0303  0.1251  0.0608
 1104YOPC   GL116077  18.669  12.191   5.909  0.0071  0.0140  0.1071
 1104YOPC   GL216078  18.888  12.323   6.000  0.0050  0.1328 -0.1358
 1104YOPC   C1A16079  18.585  12.070   6.278  0.0938 -0.0285  0.0501
 1104YOPC   D2A16080  18.647  11.730   6.472 -0.2024  0.0014 -0.1234
 1104YOPC   C3A16081  18.359  11.489   6.583  0.2280  0.0049  0.1392
 1104YOPC   C4A16082  18.216  11.133   6.704  0.0206 -0.0102 -0.0068
 1104YOPC   C1B16083  18.786  12.630   6.231 -0.0097 -0.2572 -0.2527
 1104YOPC   C2B16084  18.454  12.556   6.516  0.1231  0.0994  0.1032
 1104YOPC   D3B16085  18.503  12.855   6.626  0.3203  0.0732 -0.4395
 1104YOPC   C4B16086  18.347  13.175   6.899  0.0655  0.1627 -0.0603
 1105YOPC   NC316087   5.499   9.744   4.813 -0.0065  0.0323 -0.0271
 1105YOPC   PO416088   5.657   9.505   5.115 -0.5175  0.1776 -0.1101
 1105YOPC   GL116089   5.546   9.736   5.482 -0.0016  0.2027 -0.2174
 1105YOPC   GL216090   5.794   9.902   5.488  0.0410  0.0935  0.1566
 1105YOPC   C1A16091   5.250   9.685   5.826 -0.0374  0.0235  0.0450
 1105YOPC   D2A16092   5.212   9.663   6.356  0.1813  0.0983  0.0444
 1105YOPC   C3A16093   5.567   9.575   6.750 -0.1856  0.2573 -0.4551
 1105YOPC   C4A16094   5.906   9.658   7.059 -0.0086  0.0424 -0.2249
 1105YOPC   C1B16095   5.703  10.033   5.888  0.1783 -0.2094  0.2537
 1105YOPC   C2B16096   5.630   9.876   6.386  0.0392  0.3513 -0.1136
 1105YOPC   D3B16097   5.715  10.076   6.842  0.0873  0.5736 -0.0286
 1105YOPC   C4B16098   5.518  10.349   6.907 -0.1317 -0.2054 -0.3227
 1106YOPC   NC316099   1.686   0.817   5.379 -0.1239 -0.1234 -0.3228
 1106YOPC   PO416100   2.083   0.661   5.555  0.3581  0.0598 -0.0557
 1106YOPC   GL116101   2.233   0.352   5.829 -0.1235  0.2782 -0.0337
 1106YOPC   GL216102   1.970   0.189   5.947 -0.1470 -0.1327 -0.1252
 1106YOPC   C1A16103   2.406   0.227   6.299  0.2303 -0.0394  0.1493
 1106YOPC   D2A16104   2.369   0.151   6.689 -0.2568 -0.2608  0.1774
 1106YOPC   C3A16105   2.473   0.071   7.194 -0.0391  0.2379 -0.1243
 1106YOPC   C4A16106   2.501   0.022   7.612  0.0799  0.1228 -0.0488
 1106YOPC   C1B16107   1.951   0.325   6.383  0.1793 -0.1084 -0.1740
 1106YOPC   C2B16108   1.745   0.512   6.813  0.0289  0.2380 -0.0723
 1106YOPC   D3B16109   1.821   0.907   6.902  0.1222 -0.3999 -0.1743
 1106YOPC   C4B16110   1.572   1.189   6.719  0.1123 -0.1078  0.1920
 1107YOPC   NC316111  12.673   2.429   5.953  0.1952 -0.2617  0.0058
 1107YOPC   PO416112  12.239   2.484   6.133  0.2107  0.0548 -0.2565
 1107YOPC   GL116113  12.472   2.628   6.479  0.0297  0.0672 -0.0856
 1107YOPC   GL216114  12.584   2.388   6.543  0.1688 -0.0072  0.2695
 1107YOPC   C1A16115  12.585   2.900   6.797  0.4304 -0.2109  0.2874
 1107YOPC   D2A16116  12.862   3.068   7.149  0.3019  0.0768  0.0233
 1107YOPC   C3A16117  12.733   3.544   7.299  0.2567  0.0741 -0.0001
 1107YOPC   C4A16118  12.500   3.812   7.683 -0.1374 -0.2899 -0.0397
 1107YOPC   C1B16119  12.409   2.192   6.746  0.3638 -0.4205 -0.1175
 1107YOPC   C2B16120  12.672   1.986   7.067 -0.0272  0.2007 -0.3124
 1107YOPC   D3B16121  12.466   1.634   7.152 -0.3199 -0.2298  0.1775
 1107YOPC   C4B16122  12.102   1.360   7.315 -0.3531  0.0968 -0.1020
 1108YOPC   NC316123   9.706  13.053   5.855 -0.3734  0.2121 -0.1226
 1108YOPC   PO416124   9.377  12.963   5.922  0.1166  0.0019 -0.0919
 1108YOPC   GL116125   9.216  12.718   6.150  0.0713 -0.2446  0.1411
 1108YOPC   GL216126   9.348  12.372   6.195  0.0412 -0.2346 -0.1194
 1108YOPC   C1A16127   9.003  12.766   6.523  0.2775  0.2846 -0.3314
 1108YOPC   D2A16128   8.836  12.481   6.975 -0.4829 -0.4228  0.0698
 1108YOPC   C3A16129   9.184  12.438   7.310 -0.0413  0.0344 -0.1444
 1108YOPC   C4A16130   9.663  12.276   7.340 -0.2059 -0.0654  0.3657
 1108YOPC   C1B16131   9.638  12.344   6.598 -0.0295  0.1990 -0.3697
 1108YOPC   C2B16132   9.594  11.978   6.808  0.0360 -0.1498 -0.2856
 1108YOPC   D3B16133   9.896  11.875   7.045 -0.2083  0.1118  0.4147
 1108YOPC   C4B16134  10.420  11.900   7.123  0.0520  0.0251 -0.2331
 1109YOPC   NC316135   3.004  15.991   4.649 -0.0902 -0.3809 -0.0134
 1109YOPC   PO416136   3.194  15.905   5.004  0.1536  0.1947  0.0212
 1109YOPC   GL116137   3.158  15.510   5.325 -0.0147  0.0403  0.4630
 1109YOPC   GL216138   2.926  15.517   5.576 -0.1906 -0.2578  0.0503
 1109YOPC   C1A16139   3.205  15.155   5.578  0.0180  0.3187 -0.0102
 1109YOPC   D2A16140   2.841  15.094   5.838 -0.0459 -0.1899 -0.1325
 1109YOPC   C3A16141   2.832  15.221   6.282 -0.0689 -0.0047  0.3048
 1109YOPC   C4A16142   3.086  15.316   6.655 -0.1861  0.1105 -0.1661
 1109YOPC   C1B16143   3.153  15.482   5.988 -0.0504  0.1936  0.0403
 1109YOPC   C2B16144   3.340  15.561   6.347 -0.1246  0.1498 -0.0343
 1109YOPC   D3B16145   3.445  15.949   6.581 -0.0069  0.1235  0.1370
 1109YOPC   C4B16146   3.552  16.390   6.491 -0.0893  0.0735 -0.1435
 1110YOPC   NC316147   0.281   8.176   5.767  0.3078  0.0491 -0.0079
 1110YOPC   PO416148  -0.147   8.179   5.897 -0.2725 -0.0239 -0.2571
 1110YOPC   GL116149  -0.369   8.034   6.253  0.1801 -0.0639 -0.0937
 1110YOPC   GL216150  -0.682   8.203   6.338  0.3462  0.1220 -0.0064
 1110YOPC   C1A16151  -0.518   7.872   6.710 -0.4260 -0.0756 -0.0105
 1110YOPC   D2A16152  -0.426   7.830   7.137  0.0455  0.0956 -0.0876
 1110YOPC   C3A16153  -0.701   7.579   7.344 -0.4441 -0.4819 -0.2059
 1110YOPC   C4A16154  -1.078   7.550   7.602 -0.0092  0.3404 -0.1399
 1110YOPC   C1B16155  -0.752   8.252   6.849  0.2152 -0.0133  0.1048
 1110YOPC   C2B16156  -0.703   8.298   7.304  0.0389  0.2256 -0.1670
 1110YOPC   D3B16157  -0.782   8.112   7.719  0.0565  0.0781  0.0531
 1110YOPC   C4B16158  -0.692   7.633   7.868 -0.1869  0.0423  0.2216
 1111YOPC   NC316159   0.749  13.090   5.375  0.1338 -0.1243  0.4740
 1111YOPC   PO416160   1.194  13.109   5.496  0.0241  0.0937 -0.2920
 1111YOPC   GL116161   0.996  12.977   5.963 -0.2064  0.4037  0.0189
 1111YOPC   GL216162   0.918  12.630   6.061  0.2647  0.0760  0.1812
 1111YOPC   C1A16163   0.689  13.114   6.131  0.0356 -0.0707 -0.0239
 1111YOPC   D2A16164   0.495  13.330   6.362 -0.0071 -0.0507  0.0847
 1111YOPC   C3A16165   0.495  13.186   6.934  0.2212 -0.0905  0.4998
 1111YOPC   C4A16166   0.650  12.971   7.177 -0.1787  0.0557 -0.0378
 1111YOPC   C1B16167   0.622  12.280   6.394  0.0503 -0.3002 -0.2064
 1111YOPC   C2B16168   0.651  12.035   6.740 -0.3229 -0.0086 -0.1614
 1111YOPC   D3B16169   0.406  12.123   6.998 -0.3978 -0.2051 -0.0939
 1111YOPC   C4B16170   0.097  12.080   7.297  0.3773  0.0143 -0.3010
 1112YOPC   NC316171  18.601  11.352   5.510  0.2869 -0.1097  0.0507
 1112YOPC   PO416172  18.154  11.230   5.506  0.1408  0.0415 -0.0561
 1112YOPC   GL116173  18.257  11.008   5.884  0.0750 -0.2801  0.0155
 1112YOPC   GL216174  18.217  11.266   6.060 -0.2564  0.1532 -0.1184
 1112YOPC   C1A16175  18.201  10.743   6.285 -0.3808  0.2616  0.2671
 1112YOPC   D2A16176  18.479  10.492   6.587 -0.1802 -0.1370 -0.0495
 1112YOPC   C3A16177  18.576  10.706   6.761 -0.1608  0.2822 -0.1454
 1112YOPC   C4A16178  18.673  10.722   7.264 -0.3484 -0.0375 -0.1986
 1112YOPC   C1B16179  18.187  11.704   6.169  0.0218  0.1389 -0.0599
 1112YOPC   C2B16180  18.166  11.944   6.547 -0.0257 -0.1112 -0.2387
 1112YOPC   D3B16181  18.364  12.094   6.936 -0.1319  0.1122 -0.2468
 1112YOPC   C4B16182  18.434  12.243   7.475  0.1624 -0.1240  0.0936
 1113YOPC   NC316183   6.499  17.141   5.518 -0.1876  0.2782 -0.2708
 1113YOPC   PO416184   6.643  16.645   5.648  0.1652  0.0765 -0.1491
 1113YOPC   GL116185   6.582  16.860   6.017 -0.3898  0.1548  0.2589
 1113YOPC   GL216186   6.779  17.096   5.942  0.2279 -0.0501  0.0184
 1113YOPC   C1A16187   6.430  16.850   6.486  0.1518  0.0023  0.1824
 1113YOPC   D2A16188   6.162  16.650   6.633  0.2000  0.2036 -0.0623
 1113YOPC   C3A16189   5.990  16.746   6.963  0.0230 -0.1208 -0.1630
 1113YOPC   C4A16190   5.871  16.593   7.422  0.0041 -0.2565 -0.0071
 1113YOPC   C1B16191   6.852  17.291   6.336 -0.1096 -0.0116 -0.0761
 1113YOPC   C2B16192   6.651  17.319   6.711  0.0554 -0.1164  0.0949
 1113YOPC   D3B16193   6.678  16.955   7.076  0.0194 -0.1630 -0.1053
 1113YOPC   C4B16194   6.744  17.027   7.520  0.1439  0.1164 -0.0684
 1114YOPC   NC316195   1.813   9.933   5.771 -0.0039 -0.1761 -0.0308
 1114YOPC   PO416196   1.534   9.595   5.806  0.0072  0.1099  0.0995
 1114YOPC   GL116197   1.700   9.797   6.257  0.0470 -0.2138  0.3606
 1114YOPC   GL216198   1.745  10.106   6.236  0.0694  0.0775 -0.0718
 1114YOPC   C1A16199   1.425   9.681   6.610 -0.0321 -0.1284  0.0472
 1114YOPC   D2A16200   1.436   9.650   7.015 -0.1200 -0.0935 -0.1230
 1114YOPC   C3A16201   1.726   9.659   7.311 -0.1574 -0.1992  0.2170
 1114YOPC   C4A16202   1.990  10.026   7.549 -0.1498  0.0207 -0.1396
 1114YOPC   C1B16203   1.513  10.288   6.584 -0.5164 -0.3421 -0.0026
 1114YOPC   C2B16204   1.350  10.346   6.913  0.0019  0.2382  0.0444
 1114YOPC   D3B16205   1.199  10.549   7.186 -0.0694 -0.1068  0.2593
 1114YOPC   C4B16206   1.326  10.998   7.309 -0.3752  0.1093 -0.3521
 1115YOPC   NC316207  15.689   9.622   5.512 -0.0919  0.0838  0.0274
 1115YOPC   PO416208  15.851   9.194   5.324 -0.1884  0.2150  0.0936
 1115YOPC   GL116209  15.736   9.111   5.645  0.0796  0.0602  0.4518
 1115YOPC   GL216210  15.624   9.278   5.893 -0.1128 -0.1739 -0.0042
 1115YOPC   C1A16211  15.876   8.767   5.908 -0.3832 -0.0928  0.2221
 1115YOPC   D2A16212  15.594   8.568   6.241  0.2255  0.2250 -0.0240
 1115YOPC   C3A16213  15.264   8.722   6.590 -0.2200  0.4347  0.1556
 1115YOPC   C4A16214  15.404   8.789   6.983 -0.3133 -0.0133  0.3924
 1115YOPC   C1B16215  15.561   9.205   6.238  0.2477 -0.1109 -0.0946
 1115YOPC   C2B16216  15.324   9.183   6.583  0.1899 -0.1354  0.0655
 1115YOPC   D3B16217  15.624   9.267   6.872 -0.0885  0.4074  0.3674
 1115YOPC   C4B16218  16.013   9.416   7.067 -0.2635  0.0792  0.1906
 1116YOPC   NC316219  12.488   3.277   5.586  0.2519  0.3660 -0.0789
 1116YOPC   PO416220  12.869   3.295   5.883  0.0858  0.0187  0.1825
 1116YOPC   GL116221  12.850   3.057   6.325 -0.2775 -0.3316  0.2136
 1116YOPC   GL216222  12.995   2.826   6.070  0.4367  0.1482  0.0836
 1116YOPC   C1A16223  13.055   3.094   6.629  0.0581 -0.1262  0.0528
 1116YOPC   D2A16224  12.964   3.499   6.886 -0.1677  0.4360  0.1137
 1116YOPC   C3A16225  13.213   3.701   7.271 -0.1458 -0.0257 -0.0394
 1116YOPC   C4A16226  13.418   3.711   7.634 -0.1328 -0.0741  0.0727
 1116YOPC   C1B16227  13.394   2.779   6.370  0.2435  0.1909 -0.0213
 1116YOPC   C2B16228  13.600   2.602   6.686 -0.1926 -0.2154  0.1577
 1116YOPC   D3B16229  13.784   2.528   7.116 -0.1884  0.0748 -0.1172
 1116YOPC   C4B16230  13.665   2.253   7.536  0.0750 -0.4413 -0.4002
 1117YOPC   NC316231  13.042  15.584   5.247 -0.2569  0.0284  0.0117
 1117YOPC   PO416232  13.306  15.367   5.435 -0.2425  0.0380 -0.0350
 1117YOPC   GL116233  13.386  15.585   5.855  0.2597 -0.0383 -0.2337
 1117YOPC   GL216234  13.684  15.784   5.952 -0.1853 -0.2651  0.2562
 1117YOPC   C1A16235  13.370  15.592   6.340 -0.1379 -0.1833 -0.4107
 1117YOPC   D2A16236  13.093  15.531   6.543  0.2528 -0.2748  0.1353
 1117YOPC   C3A16237  13.075  15.702   6.899 -0.0773 -0.0217 -0.1829
 1117YOPC   C4A16238  12.686  15.725   7.177  0.0349  0.2623 -0.1421
 1117YOPC   C1B16239  13.717  16.005   6.344 -0.1340 -0.1806  0.1528
 1117YOPC   C2B16240  13.706  16.323   6.582 -0.0109 -0.0974 -0.0450
 1117YOPC   D3B16241  13.898  16.423   6.969  0.0979 -0.3919  0.0875
 1117YOPC   C4B16242  13.675  16.531   7.347 -0.1479  0.2607 -0.2614
 1118YOPC   NC316243   4.455   7.042   5.502 -0.0309  0.0937 -0.0575
 1118YOPC   PO416244   4.067   6.970   5.573  0.1624  0.3400 -0.0301
 1118YOPC   GL116245   4.282   6.799   5.970 -0.0341 -0.1278  0.1475
 1118YOPC   GL216246   4.474   6.434   5.985  0.0031  0.1278  0.4323
 1118YOPC   C1A16247   4.184   6.590   6.373  0.0432  0.2448 -0.2159
 1118YOPC   D2A16248   4.088   6.641   6.858 -0.2996 -0.1893  0.0349
 1118YOPC   C3A16249   3.884   6.365   7.094 -0.1413  0.1538 -0.0609
 1118YOPC   C4A16250   3.915   6.264   7.518  0.0850 -0.1232  0.0722
 1118YOPC   C1B16251   4.657   6.642   6.369 -0.0250 -0.1482  0.1179
 1118YOPC   C2B16252   4.619   6.614   6.774 -0.1843  0.1562 -0.2696
 1118YOPC   D3B16253   4.859   6.718   7.131 -0.0745  0.0942  0.0040
 1118YOPC   C4B16254   5.056   6.928   7.493  0.0812  0.2331  0.0996
 1119YOPC   NC316255  10.644   1.088   5.414  0.2212  0.1655  0.1409
 1119YOPC   PO416256  10.544   1.466   5.579 -0.2257 -0.0469  0.1720
 1119YOPC   GL116257  10.409   1.672   5.907 -0.0652 -0.0751  0.0064
 1119YOPC   GL216258  10.580   1.574   6.165  0.0894 -0.1356  0.1212
 1119YOPC   C1A16259  10.119   1.579   6.332 -0.2890 -0.1509 -0.0983
 1119YOPC   D2A16260  10.120   1.678   6.735  0.0996  0.2045 -0.2401
 1119YOPC   C3A16261  10.400   1.868   7.053  0.0189 -0.1341 -0.1105
 1119YOPC   C4A16262  10.545   2.147   7.399  0.1590  0.2879  0.0168
 1119YOPC   C1B16263  10.628   1.623   6.635 -0.0404  0.0365  0.1888
 1119YOPC   C2B16264  10.623   1.463   7.070  0.1091  0.1464 -0.0920
 1119YOPC   D3B16265  10.979   1.187   7.328 -0.1674  0.3889  0.2422
 1119YOPC   C4B16266  11.078   0.972   7.593 -0.0666 -0.0481 -0.2010
 1120YOPC   NC316267  10.532   3.350   5.956 -0.1089  0.0808 -0.0971
 1120YOPC   PO416268  10.830   3.682   6.093 -0.3475 -0.1209  0.0622
 1120YOPC   GL116269  10.814   3.629   6.563 -0.0107 -0.1274 -0.1960
 1120YOPC   GL216270  11.126   3.537   6.547 -0.1458 -0.0366  0.2335
 1120YOPC   C1A16271  10.630   3.717   6.975 -0.2521  0.2635 -0.1534
 1120YOPC   D2A16272  10.527   3.474   7.382 -0.2106  0.1279  0.0560
 1120YOPC   C3A16273  10.659   3.177   7.821 -0.2255  0.1299  0.1413
 1120YOPC   C4A16274  10.911   3.102   8.198  0.0060  0.1380  0.0615
 1120YOPC   C1B16275  11.097   3.463   6.997  0.2193 -0.3299  0.2784
 1120YOPC   C2B16276  11.062   3.752   7.254 -0.0853 -0.0877 -0.1539
 1120YOPC   D3B16277  11.305   3.774   7.623 -0.2091  0.4298  0.1288
 1120YOPC   C4B16278  11.566   3.874   7.905 -0.0468 -0.1696 -0.2869
 1121YOPC   NC316279  10.716   9.571   6.098 -0.0053  0.2427  0.0284
 1121YOPC   PO416280  10.980   9.886   5.993  0.1606 -0.0915  0.0411
 1121YOPC   GL116281  10.848   9.977   6.401  0.2692 -0.2720 -0.0917
 1121YOPC   GL216282  10.910   9.679   6.543 -0.0746  0.1289 -0.1115
 1121YOPC   C1A16283  10.834   9.988   6.905 -0.1734  0.3470  0.0649
 1121YOPC   D2A16284  10.790   9.698   7.189  0.1919  0.1043  0.1359
 1121YOPC   C3A16285  10.410   9.469   7.215  0.3276 -0.2415  0.3128
 1121YOPC   C4A16286  10.243   9.198   7.508 -0.0641  0.5397  0.1906
 1121YOPC   C1B16287  10.478   9.553   6.687  0.1718 -0.2017  0.2962
 1121YOPC   C2B16288  10.021   9.539   6.595  0.0244  0.1260 -0.0189
 1121YOPC   D3B16289   9.804   9.885   6.776 -0.1775 -0.1895 -0.0213
 1121YOPC   C4B16290   9.817   9.988   7.109 -0.0461  0.1288 -0.0078
 1122YOPC   NC316291   0.609  16.276   4.691 -0.2289  0.1574 -0.0284
 1122YOPC   PO416292   0.583  16.457   5.107 -0.3050 -0.0501 -0.0058
 1122YOPC   GL116293   0.418  16.486   5.501  0.2421  0.2101 -0.0126
 1122YOPC   GL216294   0.190  16.235   5.638  0.0134  0.2096  0.1212
 1122YOPC   C1A16295   0.435  16.646   5.886 -0.1445  0.1833 -0.2001
 1122YOPC   D2A16296   0.551  16.626   6.264 -0.0205 -0.0992  0.0664
 1122YOPC   C3A16297   0.948  16.526   6.291  0.0112  0.0750  0.1473
 1122YOPC   C4A16298   1.099  16.596   6.694  0.0964  0.1103 -0.0334
 1122YOPC   C1B16299   0.426  16.086   6.004  0.0718  0.0891  0.4750
 1122YOPC   C2B16300   0.604  16.128   6.350 -0.0712 -0.0517 -0.1030
 1122YOPC   D3B16301   0.633  16.444   6.724 -0.2063  0.1234  0.1056
 1122YOPC   C4B16302   0.508  16.746   7.096  0.1098 -0.0590 -0.0549
 1123YOPC   NC316303  15.893  15.777   5.112  0.3095  0.1970  0.1306
 1123YOPC   PO416304  16.351  16.019   5.224  0.1313  0.0494  0.0954
 1123YOPC   GL116305  16.214  15.957   5.604 -0.0400 -0.2137  0.3896
 1123YOPC   GL216306  16.269  16.242   5.829 -0.0178  0.0190 -0.1876
 1123YOPC   C1A16307  16.514  15.830   6.047  0.1166 -0.4555  0.1843
 1123YOPC   D2A16308  16.741  15.699   6.449  0.4334 -0.3587 -0.0193
 1123YOPC   C3A16309  17.008  15.937   6.625 -0.3084 -0.1186  0.2246
 1123YOPC   C4A16310  17.104  15.920   7.080 -0.5693  0.0279  0.0717
 1123YOPC   C1B16311  16.016  15.975   6.024  0.4860 -0.2812  0.0733
 1123YOPC   C2B16312  16.099  15.847   6.372  0.2134  0.3183 -0.2451
 1123YOPC   D3B16313  15.905  15.772   6.750 -0.0778  0.2348  0.2176
 1123YOPC   C4B16314  15.800  15.882   7.189  0.1684  0.1559  0.5379
 1124YOPC   NC316315  16.938  14.944   5.279 -0.0983  0.0934 -0.0284
 1124YOPC   PO416316  16.607  15.141   5.540 -0.0695 -0.1231 -0.0377
 1124YOPC   GL116317  16.553  14.968   5.967 -0.0372  0.0435  0.0803
 1124YOPC   GL216318  16.405  14.726   5.908  0.0329  0.1318  0.1209
 1124YOPC   C1A16319  16.602  15.094   6.385  0.0353 -0.1035  0.1776
 1124YOPC   D2A16320  16.639  14.942   6.852 -0.1613  0.0551 -0.0897
 1124YOPC   C3A16321  16.902  15.012   7.233 -0.1110 -0.0070  0.0844
 1124YOPC   C4A16322  17.200  15.120   7.492 -0.0793  0.1425  0.3513
 1124YOPC   C1B16323  16.448  14.566   6.316 -0.0200 -0.1065 -0.0803
 1124YOPC   C2B16324  16.558  14.509   6.645  0.2850  0.0834  0.0050
 1124YOPC   D3B16325  16.968  14.604   6.815 -0.2944 -0.1164  0.3511
 1124YOPC   C4B16326  17.302  14.891   6.962  0.0880  0.0091 -0.1452
 1125YOPC   NC316327   4.218   8.832   5.107  0.1637  0.0377 -0.2266
 1125YOPC   PO416328   4.045   9.040   5.486 -0.0580  0.1520 -0.1291
 1125YOPC   GL116329   4.215   8.922   5.830  0.1828 -0.1463 -0.4110
 1125YOPC   GL216330   4.462   9.107   5.760 -0.0994 -0.1942 -0.0336
 1125YOPC   C1A16331   4.215   8.632   6.120 -0.1336  0.0001  0.0336
 1125YOPC   D2A16332   4.435   8.451   6.487 -0.4384 -0.1405  0.2882
 1125YOPC   C3A16333   4.814   8.679   6.726 -0.2764 -0.2145  0.2035
 1125YOPC   C4A16334   5.240   8.937   6.903 -0.0438  0.2863  0.1899
 1125YOPC   C1B16335   4.540   9.105   6.238 -0.0976  0.1682 -0.0532
 1125YOPC   C2B16336   4.328   8.924   6.568 -0.1363 -0.1623 -0.2673
 1125YOPC   D3B16337   4.325   8.890   6.965  0.1825  0.0269  0.0104
 1125YOPC   C4B16338   4.225   8.894   7.353  0.1122 -0.1169 -0.0760
 1126YOPC   NC316339  12.713   7.976   5.846 -0.0066 -0.2883  0.1351
 1126YOPC   PO416340  12.493   8.136   6.043  0.1049  0.1232 -0.0337
 1126YOPC   GL116341  12.361   8.115   6.400  0.2148 -0.0317  0.0262
 1126YOPC   GL216342  12.086   7.855   6.546 -0.3842  0.0218  0.0160
 1126YOPC   C1A16343  12.458   8.102   6.854 -0.2498  0.0011  0.0177
 1126YOPC   D2A16344  12.414   8.279   7.176  0.1625 -0.0024  0.5620
 1126YOPC   C3A16345  12.782   8.346   7.314  0.0658 -0.0240 -0.3972
 1126YOPC   C4A16346  13.092   8.461   7.675 -0.0871  0.0329  0.1839
 1126YOPC   C1B16347  11.952   8.097   6.814  0.0576 -0.0178  0.1583
 1126YOPC   C2B16348  11.697   8.083   7.127  0.1159  0.4010  0.0574
 1126YOPC   D3B16349  11.710   7.859   7.448  0.2625 -0.2883  0.1561
 1126YOPC   C4B16350  11.702   7.903   7.895  0.1437 -0.1519  0.2292
 1127YOPC   NC316351   7.739  13.733   5.398 -0.0705  0.0907  0.0387
 1127YOPC   PO416352   8.012  13.584   5.583  0.0195 -0.0308 -0.1060
 1127YOPC   GL116353   7.949  13.478   6.027  0.0976  0.0312  0.0247
 1127YOPC   GL216354   7.663  13.198   6.015  0.2177 -0.0541 -0.3481
 1127YOPC   C1A16355   7.842  13.528   6.452  0.3884  0.0857 -0.2161
 1127YOPC   D2A16356   7.694  13.682   6.903 -0.1769 -0.1139  0.1573
 1127YOPC   C3A16357   7.736  14.028   7.115  0.1576  0.2647  0.2728
 1127YOPC   C4A16358   7.625  14.297   7.501 -0.0231 -0.0614  0.0341
 1127YOPC   C1B16359   7.405  13.208   6.398  0.0359 -0.1274 -0.1433
 1127YOPC   C2B16360   7.322  13.299   6.918 -0.1589  0.1278  0.1026
 1127YOPC   D3B16361   7.317  12.960   7.177 -0.4025 -0.3074 -0.1390
 1127YOPC   C4B16362   7.341  12.636   7.530  0.0275  0.3745  0.0087
 1128YOPC   NC316363   9.154  12.351   5.739 -0.2504  0.2250  0.4932
 1128YOPC   PO416364   9.445  12.066   5.591  0.1609 -0.1745 -0.2933
 1128YOPC   GL116365   9.332  11.895   5.938  0.1322 -0.0088  0.1660
 1128YOPC   GL216366   9.318  11.634   5.964  0.2609 -0.4628  0.1119
 1128YOPC   C1A16367   9.160  11.904   6.406 -0.0186  0.0349  0.0365
 1128YOPC   D2A16368   9.171  12.187   6.656  0.1355  0.0339 -0.3878
 1128YOPC   C3A16369   9.152  12.006   7.042  0.0646  0.2859 -0.0945
 1128YOPC   C4A16370   8.951  12.007   7.415 -0.0378 -0.1164 -0.2063
 1128YOPC   C1B16371   9.194  11.448   6.255  0.3318 -0.0537 -0.2024
 1128YOPC   C2B16372   9.302  11.520   6.629 -0.0588 -0.0184  0.1973
 1128YOPC   D3B16373   8.958  11.615   6.751 -0.3121  0.3012 -0.0849
 1128YOPC   C4B16374   8.668  11.471   6.560  0.0972 -0.1217 -0.0421
 1129YOPC   NC316375  14.115  13.627   5.205  0.0931  0.0865 -0.0953
 1129YOPC   PO416376  14.339  13.898   5.377 -0.0681  0.2784 -0.2854
 1129YOPC   GL116377  14.286  13.946   5.787 -0.0845  0.0945  0.0386
 1129YOPC   GL216378  14.043  13.723   5.777  0.0954  0.0866  0.0376
 1129YOPC   C1A16379  14.152  14.035   6.216 -0.0208 -0.1351 -0.0066
 1129YOPC   D2A16380  14.191  13.908   6.589 -0.1298 -0.2398 -0.3568
 1129YOPC   C3A16381  13.799  13.750   6.755  0.0380 -0.0126 -0.0096
 1129YOPC   C4A16382  13.718  13.816   7.105  0.0303  0.1418  0.0928
 1129YOPC   C1B16383  13.800  13.652   6.190 -0.2269 -0.1741  0.1071
 1129YOPC   C2B16384  13.431  13.541   6.472  0.2524 -0.3150  0.1240
 1129YOPC   D3B16385  13.626  13.223   6.787 -0.2330 -0.3023  0.3758
 1129YOPC   C4B16386  13.587  12.928   7.127 -0.3157 -0.1697  0.3051
 1130YOPC   NC316387  16.863  12.079   5.321  0.1593  0.0659 -0.1453
 1130YOPC   PO416388  16.799  11.695   5.185 -0.0839 -0.3209  0.1151
 1130YOPC   GL116389  16.774  11.582   5.589  0.1117 -0.1427 -0.3834
 1130YOPC   GL216390  17.012  11.724   5.687  0.0082  0.1186  0.1711
 1130YOPC   C1A16391  16.728  11.280   5.908  0.0022 -0.0366  0.1680
 1130YOPC   D2A16392  16.735  10.861   5.965 -0.0432 -0.1720 -0.0468
 1130YOPC   C3A16393  16.375  10.628   6.165 -0.0906  0.2033 -0.0636
 1130YOPC   C4A16394  15.989  10.627   6.239  0.2137  0.0795  0.1212
 1130YOPC   C1B16395  16.780  11.821   6.078  0.0026 -0.2288  0.0203
 1130YOPC   C2B16396  16.852  11.973   6.506  0.1789  0.0555 -0.2928
 1130YOPC   D3B16397  16.816  11.715   6.976 -0.2008 -0.0160 -0.1384
 1130YOPC   C4B16398  16.793  11.443   7.318 -0.0432 -0.1705  0.1667
 1131YOPC   NC316399   9.160   1.355   5.745 -0.0467  0.0798  0.1311
 1131YOPC   PO416400   9.315   0.907   5.581  0.2026  0.0857  0.2444
 1131YOPC   GL116401   9.585   1.144   5.921  0.0273  0.0612 -0.1230
 1131YOPC   GL216402   9.273   1.207   6.192 -0.1072  0.0493  0.1828
 1131YOPC   C1A16403   9.886   1.123   6.243 -0.1283 -0.1527 -0.3260
 1131YOPC   D2A16404  10.050   0.705   6.400  0.2811  0.0989 -0.2161
 1131YOPC   C3A16405   9.896   0.433   6.722  0.0949 -0.0246 -0.1662
 1131YOPC   C4A16406  10.038   0.104   7.050 -0.1574  0.0292  0.0614
 1131YOPC   C1B16407   9.473   1.010   6.561  0.1655 -0.0513 -0.1940
 1131YOPC   C2B16408   9.801   0.937   6.767  0.0703  0.0425 -0.0092
 1131YOPC   D3B16409  10.094   0.778   7.077 -0.0947 -0.2510  0.0667
 1131YOPC   C4B16410  10.505   0.938   7.248  0.0125 -0.1901 -0.0439
 1132YOPC   NC316411   6.784   3.751   5.601  0.0489  0.1363 -0.0373
 1132YOPC   PO416412   6.784   3.363   5.638  0.3162  0.0470 -0.0164
 1132YOPC   GL116413   6.850   3.363   6.105  0.0777  0.1169  0.0735
 1132YOPC   GL216414   6.826   3.610   6.141  0.2895 -0.1497  0.2383
 1132YOPC   C1A16415   6.657   3.121   6.465 -0.1603  0.0411 -0.0785
 1132YOPC   D2A16416   6.661   2.796   6.765  0.1450  0.1130 -0.3206
 1132YOPC   C3A16417   6.203   2.665   6.971 -0.0142  0.2636 -0.2000
 1132YOPC   C4A16418   5.769   2.616   6.923  0.1282 -0.0497  0.0158
 1132YOPC   C1B16419   6.927   3.539   6.610 -0.0724 -0.0615 -0.0659
 1132YOPC   C2B16420   7.086   3.743   6.956 -0.1171  0.1079 -0.3217
 1132YOPC   D3B16421   7.292   3.629   7.287 -0.0269  0.0834 -0.2372
 1132YOPC   C4B16422   7.645   3.491   7.475  0.3200  0.2461  0.3320
 1133YOPC   NC316423   1.134  11.810   5.427 -0.0125 -0.0763  0.0052
 1133YOPC   PO416424   1.374  11.377   5.350  0.2336  0.2351  0.0089
 1133YOPC   GL116425   1.348  11.531   5.825  0.0874 -0.0702 -0.1864
 1133YOPC   GL216426   1.038  11.369   6.073  0.1243 -0.0705 -0.0015
 1133YOPC   C1A16427   1.491  11.590   6.208  0.0285  0.1982 -0.0357
 1133YOPC   D2A16428   1.393  11.706   6.613  0.5685 -0.0452  0.1191
 1133YOPC   C3A16429   1.635  11.727   6.937  0.0180 -0.3791  0.1247
 1133YOPC   C4A16430   1.797  11.781   7.301 -0.2266 -0.0014  0.3660
 1133YOPC   C1B16431   1.225  11.255   6.442 -0.3865 -0.3513  0.0657
 1133YOPC   C2B16432   1.638  11.196   6.679 -0.3020  0.0314 -0.0902
 1133YOPC   D3B16433   1.735  11.196   7.159 -0.1507 -0.1983 -0.0689
 1133YOPC   C4B16434   1.729  11.367   7.614  0.2021 -0.0943  0.1099
 1134YOPC   NC316435   6.989  11.075   5.406  0.2464 -0.0344  0.1159
 1134YOPC   PO416436   7.260  10.693   5.539  0.0984 -0.0659  0.2862
 1134YOPC   GL116437   7.550  10.639   5.908  0.1322  0.0388  0.1205
 1134YOPC   GL216438   7.730  10.990   5.913 -0.4700  0.3080 -0.0768
 1134YOPC   C1A16439   7.603  10.705   6.362  0.3499  0.0614 -0.0123
 1134YOPC   D2A16440   7.539  10.454   6.816 -0.0963  0.0722 -0.3223
 1134YOPC   C3A16441   7.128  10.357   7.037 -0.0177 -0.1740  0.0825
 1134YOPC   C4A16442   7.060  10.608   7.394  0.1759 -0.0878  0.0311
 1134YOPC   C1B16443   7.956  11.023   6.345  0.2916  0.0234 -0.2540
 1134YOPC   C2B16444   7.939  11.042   6.746  0.1104 -0.3562 -0.0551
 1134YOPC   D3B16445   7.781  10.829   7.078  0.0033  0.1078 -0.1203
 1134YOPC   C4B16446   7.553  10.603   7.418  0.0149 -0.1202  0.0227
 1135YOPC   NC316447  10.120   6.076   5.944 -0.1088  0.0068 -0.0822
 1135YOPC   PO416448   9.759   6.037   5.775  0.1107 -0.0138  0.3634
 1135YOPC   GL116449   9.767   5.738   6.090 -0.0721 -0.1401  0.0718
 1135YOPC   GL216450   9.976   5.801   6.331 -0.1703 -0.0181  0.0143
 1135YOPC   C1A16451   9.427   5.521   6.359 -0.0334 -0.0596 -0.1134
 1135YOPC   D2A16452   9.062   5.259   6.539  0.0715 -0.1666 -0.1699
 1135YOPC   C3A16453   8.702   5.230   6.671 -0.1284  0.3372  0.1188
 1135YOPC   C4A16454   8.684   5.403   7.084 -0.2654 -0.0135 -0.1359
 1135YOPC   C1B16455   9.873   6.003   6.742 -0.0488 -0.1279 -0.2140
 1135YOPC   C2B16456   9.869   5.912   7.270  0.4502 -0.2857  0.1405
 1135YOPC   D3B16457   9.538   5.714   7.505 -0.0090  0.0524  0.2520
 1135YOPC   C4B16458   9.493   5.428   7.884 -0.1421 -0.1927 -0.3942
 1136YOPC   NC316459  12.489  17.770   5.494 -0.3096  0.1389  0.0372
 1136YOPC   PO416460  12.522  18.168   5.742  0.0547 -0.1007  0.1360
 1136YOPC   GL116461  12.835  18.063   6.055  0.0056  0.2900 -0.4379
 1136YOPC   GL216462  13.089  18.393   6.154  0.0469 -0.1306 -0.2031
 1136YOPC   C1A16463  12.905  17.896   6.466  0.1794  0.1740 -0.3534
 1136YOPC   D2A16464  12.816  17.800   6.807  0.1527 -0.1827  0.2354
 1136YOPC   C3A16465  12.437  17.857   7.173  0.2376 -0.0520  0.1415
 1136YOPC   C4A16466  12.325  17.857   7.558 -0.1843  0.0154 -0.3163
 1136YOPC   C1B16467  13.204  18.218   6.578  0.1559  0.0577  0.0825
 1136YOPC   C2B16468  13.331  18.096   6.952  0.2866  0.0157  0.3533
 1136YOPC   D3B16469  13.712  17.956   7.016  0.1691  0.0878  0.1825
 1136YOPC   C4B16470  13.948  17.443   7.020  0.3145 -0.1657 -0.0792
 1137YOPC   NC316471  10.673   8.425   5.941 -0.2289 -0.0454 -0.0576
 1137YOPC   PO416472  11.084   8.195   6.054 -0.2263  0.2548 -0.1861
 1137YOPC   GL116473  10.840   7.987   6.347 -0.2148  0.0186 -0.0242
 1137YOPC   GL216474  10.525   8.025   6.189 -0.1573  0.2448  0.0511
 1137YOPC   C1A16475  10.536   8.035   6.722 -0.0428  0.3032 -0.0499
 1137YOPC   D2A16476  10.424   7.891   7.241 -0.4164 -0.3399  0.0186
 1137YOPC   C3A16477  10.723   8.011   7.520 -0.2168 -0.0772  0.4049
 1137YOPC   C4A16478  11.063   8.405   7.401  0.0994 -0.0515  0.1462
 1137YOPC   C1B16479  10.320   7.693   6.480 -0.1768 -0.3777  0.0275
 1137YOPC   C2B16480  10.503   7.508   6.789  0.0118 -0.1090  0.2625
 1137YOPC   D3B16481  10.361   7.406   7.255  0.2469  0.1839 -0.0730
 1137YOPC   C4B16482  10.438   7.530   7.630 -0.2343  0.0103 -0.2577
 1138YOPC   NC316483   4.027  16.509   5.163  0.1040 -0.0017  0.1565
 1138YOPC   PO416484   4.082  16.078   5.233  0.1026 -0.0060 -0.0999
 1138YOPC   GL116485   4.258  16.060   5.704  0.2547 -0.0724  0.1165
 1138YOPC   GL216486   4.588  15.957   5.785 -0.0387 -0.0058  0.4876
 1138YOPC   C1A16487   4.160  16.233   5.973  0.0053  0.1065  0.3021
 1138YOPC   D2A16488   4.032  16.295   6.330 -0.0134 -0.3395 -0.1147
 1138YOPC   C3A16489   4.014  16.622   6.594 -0.1195 -0.0562 -0.1461
 1138YOPC   C4A16490   3.900  16.999   6.604 -0.1467  0.1357  0.3471
 1138YOPC   C1B16491   4.573  15.891   6.213  0.0003 -0.0792 -0.2237
 1138YOPC   C2B16492   4.427  16.021   6.541 -0.1691 -0.0023  0.0477
 1138YOPC   D3B16493   4.228  16.349   6.918  0.1049  0.2519 -0.1873
 1138YOPC   C4B16494   4.427  16.472   7.315  0.0293 -0.3397  0.1775
 1139YOPC   NC316495  10.520  16.521   5.203  0.2043 -0.1317 -0.0295
 1139YOPC   PO416496  10.635  16.465   5.502 -0.2911  0.2819  0.1307
 1139YOPC   GL116497  10.510  16.558   5.825 -0.2550 -0.0280  0.0942
 1139YOPC   GL216498  10.222  16.481   5.844  0.3398  0.1671  0.0662
 1139YOPC   C1A16499  10.460  16.791   6.099  0.1447 -0.1876  0.0513
 1139YOPC   D2A16500  10.471  16.703   6.513  0.0965 -0.0217  0.1851
 1139YOPC   C3A16501  10.639  16.623   6.846 -0.2983  0.0921 -0.3258
 1139YOPC   C4A16502  10.682  16.550   7.251 -0.1667  0.2369 -0.1360
 1139YOPC   C1B16503  10.129  16.463   6.264 -0.1983  0.1768 -0.0173
 1139YOPC   C2B16504  10.051  16.507   6.684  0.1015 -0.0110  0.2038
 1139YOPC   D3B16505  10.302  16.249   6.987 -0.1638  0.1638  0.4664
 1139YOPC   C4B16506  10.452  16.132   7.260  0.1330 -0.1500 -0.0553
 1140YOPC   NC316507   5.377   5.446   5.139 -0.0464  0.0585 -0.2355
 1140YOPC   PO416508   5.756   5.159   5.256  0.2258 -0.1771  0.0491
 1140YOPC   GL116509   5.891   5.159   5.744 -0.0174 -0.3384 -0.1542
 1140YOPC   GL216510   6.166   4.884   5.843 -0.0717 -0.2221 -0.2315
 1140YOPC   C1A16511   5.797   5.076   6.158  0.3776 -0.4065 -0.0012
 1140YOPC   D2A16512   5.972   5.079   6.521  0.0553 -0.1933 -0.1222
 1140YOPC   C3A16513   5.969   5.339   6.914 -0.0739  0.0811 -0.2393
 1140YOPC   C4A16514   6.090   5.715   7.043  0.2231  0.3216  0.1108
 1140YOPC   C1B16515   6.410   4.962   6.245  0.3960  0.1388  0.2549
 1140YOPC   C2B16516   6.547   4.987   6.625  0.1643  0.0353 -0.3062
 1140YOPC   D3B16517   6.248   4.864   6.874 -0.0335 -0.1509 -0.0559
 1140YOPC   C4B16518   5.794   4.885   7.089  0.1976 -0.0017  0.2110
 1141YOPC   NC316519   5.000   7.169   5.545  0.4010  0.0660  0.0392
 1141YOPC   PO416520   4.606   7.548   5.521 -0.0224  0.0279  0.2168
 1141YOPC   GL116521   4.614   7.813   5.976  0.1825 -0.1748 -0.1687
 1141YOPC   GL216522   4.566   8.234   6.012  0.4975  0.0048  0.4033
 1141YOPC   C1A16523   4.699   7.859   6.427  0.1272 -0.3472  0.0622
 1141YOPC   D2A16524   5.104   7.884   6.502  0.0723 -0.0988 -0.0869
 1141YOPC   C3A16525   5.220   8.223   6.746 -0.1445 -0.0570  0.0391
 1141YOPC   C4A16526   5.094   8.473   7.102 -0.0790 -0.2700 -0.2112
 1141YOPC   C1B16527   4.268   8.108   6.103 -0.1650  0.0450 -0.0471
 1141YOPC   C2B16528   4.126   7.943   6.419 -0.0489 -0.0146  0.4882
 1141YOPC   D3B16529   3.786   8.046   6.622 -0.0199 -0.3018  0.0318
 1141YOPC   C4B16530   3.637   8.410   6.914 -0.0194  0.0824 -0.4456
 1142YOPC   NC316531  14.390   0.700   5.504 -0.1870 -0.3183 -0.2980
 1142YOPC   PO416532  14.022   1.119   5.522 -0.2421  0.0639 -0.2867
 1142YOPC   GL116533  13.832   1.265   5.895 -0.0643 -0.0291 -0.1889
 1142YOPC   GL216534  13.547   1.291   5.886 -0.1814 -0.3451 -0.0026
 1142YOPC   C1A16535  14.077   1.323   6.225 -0.2093  0.2238 -0.0934
 1142YOPC   D2A16536  13.955   1.484   6.668  0.0471  0.3185 -0.0730
 1142YOPC   C3A16537  13.751   1.391   7.107 -0.1135  0.1660 -0.0692
 1142YOPC   C4A16538  13.532   1.584   7.423 -0.2445 -0.1759 -0.0807
 1142YOPC   C1B16539  13.489   1.116   6.260  0.1578 -0.1548  0.1764
 1142YOPC   C2B16540  13.614   1.047   6.607 -0.1254  0.1621  0.0134
 1142YOPC   D3B16541  13.453   0.684   6.942 -0.3524  0.0381  0.0945
 1142YOPC   C4B16542  13.543   0.518   7.428 -0.1366 -0.0459  0.2203
 1143YOPC   NC316543  14.538   5.836   5.093 -0.1622 -0.4823  0.2166
 1143YOPC   PO416544  14.525   5.678   5.362 -0.1950  0.1701 -0.1073
 1143YOPC   GL116545  14.654   5.625   5.803  0.1155 -0.0094  0.2084
 1143YOPC   GL216546  14.869   5.965   5.913  0.1669 -0.0902 -0.0912
 1143YOPC   C1A16547  14.445   5.580   6.237  0.2723 -0.0063  0.0259
 1143YOPC   D2A16548  14.547   5.310   6.560  0.2061  0.1114  0.2235
 1143YOPC   C3A16549  14.621   5.447   6.932  0.1929 -0.0565  0.0190
 1143YOPC   C4A16550  14.774   5.850   7.171  0.1182  0.0592  0.2507
 1143YOPC   C1B16551  14.739   6.064   6.294  0.1757  0.0212 -0.2362
 1143YOPC   C2B16552  14.721   6.252   6.781  0.0985 -0.0462  0.0583
 1143YOPC   D3B16553  14.455   6.240   7.122 -0.1789  0.3418 -0.1332
 1143YOPC   C4B16554  14.090   6.387   7.447  0.1107 -0.1166  0.2217
 1144YOPC   NC316555   8.390  15.606   4.931  0.2342  0.0821  0.1754
 1144YOPC   PO416556   8.426  15.606   5.419 -0.1422  0.0088 -0.1396
 1144YOPC   GL116557   8.383  15.565   5.896  0.0002 -0.1256  0.0999
 1144YOPC   GL216558   8.283  15.958   5.949  0.1074 -0.3422 -0.2255
 1144YOPC   C1A16559   8.037  15.475   6.220 -0.2889  0.1702  0.1932
 1144YOPC   D2A16560   8.133  15.284   6.569 -0.0440 -0.0823 -0.2829
 1144YOPC   C3A16561   7.940  15.494   6.853  0.0539 -0.4577  0.2994
 1144YOPC   C4A16562   8.181  15.667   7.232 -0.1685 -0.3125 -0.3128
 1144YOPC   C1B16563   8.430  15.765   6.333  0.0062 -0.2630 -0.2841
 1144YOPC   C2B16564   8.348  15.747   6.790 -0.4004  0.0303  0.0433
 1144YOPC   D3B16565   8.666  15.629   7.041 -0.1728 -0.3072 -0.0151
 1144YOPC   C4B16566   8.941  15.607   7.276  0.0646 -0.2526  0.3208
 1145YOPC   NC316567  12.197  12.274   5.334  0.1250  0.2278 -0.0113
 1145YOPC   PO416568  12.271  11.833   5.566  0.3663  0.1063  0.0562
 1145YOPC   GL116569  12.546  11.734   5.962 -0.2185  0.3189 -0.0531
 1145YOPC   GL216570  12.791  11.908   6.045  0.0228  0.0036 -0.1350
 1145YOPC   C1A16571  12.559  11.671   6.389  0.0106  0.2327  0.2497
 1145YOPC   D2A16572  12.723  11.820   6.803  0.0671  0.1524 -0.0760
 1145YOPC   C3A16573  12.816  12.237   6.850 -0.1313  0.2316 -0.0242
 1145YOPC   C4A16574  12.942  12.597   6.775 -0.2134  0.0363  0.1491
 1145YOPC   C1B16575  12.682  12.122   6.388 -0.1598  0.3564  0.1150
 1145YOPC   C2B16576  12.559  12.521   6.503 -0.2507  0.2101 -0.1437
 1145YOPC   D3B16577  12.436  12.598   6.947 -0.3093  0.2970 -0.0882
 1145YOPC   C4B16578  12.085  12.601   7.304  0.1907  0.0208 -0.5438
 1146ERGO   ROH16579  13.196   0.688   5.932 -0.0520  0.0507  0.0930
 1146ERGO    R116580  13.107   0.707   6.200  0.1130  0.1869  0.1394
 1146ERGO    R216581  12.947   0.514   6.318 -0.0986  0.4149  0.2256
 1146ERGO    R316582  13.144   0.512   6.506 -0.0020  0.1434  0.1278
 1146ERGO    R416583  12.912   0.397   6.641 -0.0941  0.4209  0.2288
 1146ERGO    R516584  13.032   0.565   6.710  0.1595  0.2663  0.1909
 1146ERGO    C116585  13.075   0.328   7.006 -0.0009  0.1694  0.1388
 1146ERGO    C216586  13.089   0.209   7.331  0.0855 -0.2774  0.3510
 1147ERGO   ROH16587   2.220  12.394   5.784  0.0104 -0.1578  0.0620
 1147ERGO    R116588   2.135  12.362   6.052 -0.0450 -0.0755  0.0553
 1147ERGO    R216589   2.211  12.146   6.208 -0.0582 -0.0184  0.1463
 1147ERGO    R316590   2.294  12.340   6.379 -0.1124  0.0486  0.0965
 1147ERGO    R416591   2.237  12.110   6.550  0.3530 -0.0581  0.1153
 1147ERGO    R516592   2.157  12.311   6.573  0.1286 -0.1596  0.2393
 1147ERGO    C116593   2.330  12.271   6.910  0.5415 -0.0184  0.0504
 1147ERGO    C216594   2.503  12.282   7.223  0.1331 -0.1751  0.2128
 1148ERGO   ROH16595   3.448   1.682   5.607 -0.2202 -0.0737 -0.1034
 1148ERGO    R116596   3.498   1.645   5.883 -0.0736  0.0298 -0.1133
 1148ERGO    R216597   3.612   1.840   6.042 -0.0075  0.1029 -0.2364
 1148ERGO    R316598   3.391   1.799   6.195  0.0703  0.1339 -0.1173
 1148ERGO    R416599   3.591   1.906   6.380  0.2290 -0.0695 -0.1868
 1148ERGO    R516600   3.477   1.722   6.404  0.1559 -0.0186 -0.2137
 1148ERGO    C116601   3.372   1.906   6.721  0.4398 -0.1408 -0.0461
 1148ERGO    C216602   3.418   2.044   7.110 -0.0945  0.0087 -0.0027
 1149ERGO   ROH16603   4.959  14.775   5.737 -0.3370  0.0992 -0.0464
 1149ERGO    R116604   5.121  14.830   5.962 -0.1600  0.2845 -0.2165
 1149ERGO    R216605   5.104  15.067   6.103 -0.4457  0.1757 -0.0768
 1149ERGO    R316606   5.068  14.901   6.315  0.1377 -0.0129 -0.1031
 1149ERGO    R416607   5.178  15.147   6.431 -0.3868  0.2588 -0.1087
 1149ERGO    R516608   5.255  14.945   6.458  0.1599  0.4219 -0.2373
 1149ERGO    C116609   5.186  15.038   6.821  0.1952  0.1301 -0.1520
 1149ERGO    C216610   5.030  15.261   7.055 -0.2752  0.0651  0.4322
 1150ERGO   ROH16611  15.975   9.756   7.843 -0.0383 -0.2783 -0.0966
 1150ERGO    R116612  15.989   9.777   7.561  0.0584 -0.2196 -0.0875
 1150ERGO    R216613  15.931  10.011   7.425 -0.1101 -0.2535 -0.0714
 1150ERGO    R316614  16.179   9.972   7.319 -0.0278  0.0016  0.0202
 1150ERGO    R416615  16.045  10.153   7.132 -0.1803 -0.1909 -0.0688
 1150ERGO    R516616  16.142   9.964   7.083  0.0541 -0.0981  0.0078
 1150ERGO    C116617  16.344  10.200   6.861 -0.1440  0.0852  0.0188
 1150ERGO    C216618  16.502  10.412   6.612  0.1327 -0.3149  0.2900
 1151ERGO   ROH16619   9.042  14.206   6.123  0.1593 -0.3753 -0.0846
 1151ERGO    R116620   8.964  14.191   6.395  0.1186 -0.3337 -0.0941
 1151ERGO    R216621   9.064  14.000   6.569  0.2884 -0.1497  0.0153
 1151ERGO    R316622   9.127  14.218   6.719  0.0261 -0.0091 -0.0712
 1151ERGO    R416623   9.088  14.004   6.914  0.3141  0.0128  0.0127
 1151ERGO    R516624   8.991  14.199   6.914  0.0664 -0.1077 -0.0533
 1151ERGO    C116625   9.161  14.211   7.255  0.0829  0.2393 -0.0701
 1151ERGO    C216626   9.019  14.472   7.387 -0.1951 -0.0082 -0.3087
 1152ERGO   ROH16627   1.238   6.858   6.292 -0.0608 -0.1957  0.0316
 1152ERGO    R116628   1.170   6.753   6.547  0.0141 -0.1628  0.0649
 1152ERGO    R216629   1.342   6.592   6.692  0.1155 -0.0210  0.1011
 1152ERGO    R316630   1.301   6.778   6.886  0.0179  0.0091  0.0525
 1152ERGO    R416631   1.520   6.612   6.987 -0.0796 -0.0263  0.2213
 1152ERGO    R516632   1.334   6.659   7.090 -0.1448  0.0219  0.0901
 1152ERGO    C116633   1.585   6.799   7.341 -0.2848 -0.0012  0.2456
 1152ERGO    C216634   1.899   6.941   7.366  0.1228 -0.1069 -0.3070
 1153ERGO   ROH16635   1.250  11.980   5.978 -0.0104  0.1492 -0.0902
 1153ERGO    R116636   1.283  12.090   6.236 -0.0360  0.0949 -0.0633
 1153ERGO    R216637   1.134  12.304   6.326  0.0199  0.1372 -0.0668
 1153ERGO    R316638   1.076  12.136   6.532 -0.0965  0.1234 -0.1102
 1153ERGO    R416639   1.061  12.406   6.648 -0.2381  0.1163 -0.1169
 1153ERGO    R516640   1.180  12.239   6.723 -0.2579  0.1416 -0.0316
 1153ERGO    C116641   0.964  12.308   7.029 -0.4976  0.0911 -0.1869
 1153ERGO    C216642   0.871  12.465   7.348  0.1322 -0.0363 -0.3232
 1154ERGO   ROH16643   8.026  14.287   6.260 -0.1006  0.1675 -0.0109
 1154ERGO    R116644   8.089  14.407   6.508 -0.2073  0.2483 -0.0232
 1154ERGO    R216645   7.898  14.460   6.701 -0.2332 -0.0360  0.0262
 1154ERGO    R316646   8.065  14.316   6.860  0.0178  0.1981 -0.0177
 1154ERGO    R416647   7.920  14.491   7.044 -0.2513 -0.0495  0.0291
 1154ERGO    R516648   8.136  14.472   7.028 -0.2100  0.2951 -0.0006
 1154ERGO    C116649   8.090  14.374   7.394 -0.0263  0.1624 -0.0105
 1154ERGO    C216650   8.047  14.048   7.681 -0.3546 -0.3403 -0.2717
 1155ERGO   ROH16651   5.986   0.292   6.054 -0.3328 -0.1765 -0.0403
 1155ERGO    R116652   6.085   0.448   6.269 -0.1832 -0.2066 -0.0867
 1155ERGO    R216653   6.003   0.708   6.314 -0.0835 -0.1810 -0.0463
 1155ERGO    R316654   5.947   0.612   6.563  0.0058 -0.1655 -0.0200
 1155ERGO    R416655   5.989   0.900   6.601 -0.1457 -0.1364 -0.0792
 1155ERGO    R516656   6.089   0.739   6.708 -0.0419 -0.0614 -0.0643
 1155ERGO    C116657   5.928   0.923   7.001 -0.0982 -0.0958 -0.0737
 1155ERGO    C216658   5.826   0.962   7.279  0.3030  0.1824 -0.0378
 1156ERGO   ROH16659   9.465   7.996   6.311  0.0917  0.0626 -0.1340
 1156ERGO    R116660   9.613   8.031   6.550  0.0110  0.0582 -0.0801
 1156ERGO    R216661   9.563   8.239   6.727 -0.0548  0.0616 -0.0808
 1156ERGO    R316662   9.541   8.036   6.906 -0.1204  0.0458 -0.1104
 1156ERGO    R416663   9.627   8.264   7.066 -0.0270 -0.0451 -0.0797
 1156ERGO    R516664   9.721   8.069   7.058 -0.1120 -0.0659 -0.1154
 1156ERGO    C116665   9.643   8.088   7.431 -0.0726 -0.1220 -0.1069
 1156ERGO    C216666   9.425   8.046   7.715  0.0154 -0.2235  0.1335
 1157ERGO   ROH16667  16.961  15.814   5.804 -0.1576 -0.0910 -0.0971
 1157ERGO    R116668  17.090  15.877   6.048 -0.2345 -0.1862 -0.0307
 1157ERGO    R216669  17.191  15.683   6.217  0.0110 -0.2454 -0.2363
 1157ERGO    R316670  17.420  15.827   6.193 -0.1669  0.0727 -0.0914
 1157ERGO    R416671  17.449  15.684   6.447 -0.0290 -0.0774 -0.1912
 1157ERGO    R516672  17.470  15.899   6.416 -0.3004 -0.0244 -0.0299
 1157ERGO    C116673  17.815  15.820   6.557 -0.2194  0.3190 -0.0288
 1157ERGO    C216674  18.071  15.675   6.707 -0.0806  0.2091 -0.1078
 1158ERGO   ROH16675   2.223  10.472   6.039  0.2131  0.1876  0.0516
 1158ERGO    R116676   2.126  10.387   6.291 -0.0590  0.3032 -0.0094
 1158ERGO    R216677   2.293  10.300   6.493 -0.3008 -0.0717  0.0457
 1158ERGO    R316678   2.164  10.491   6.638 -0.0036  0.1462  0.0311
 1158ERGO    R416679   2.267  10.302   6.837 -0.4451 -0.0916  0.0348
 1158ERGO    R516680   2.060  10.370   6.816 -0.3116  0.3049 -0.0377
 1158ERGO    C116681   2.130  10.482   7.174 -0.2502  0.1013  0.0148
 1158ERGO    C216682   2.294  10.520   7.543 -0.0997 -0.1656  0.1374
 1159ERGO   ROH16683   7.498  13.741   5.805  0.1860 -0.0110  0.0209
 1159ERGO    R116684   7.490  13.793   6.083  0.2270 -0.0105  0.0206
 1159ERGO    R216685   7.692  13.927   6.215  0.1331  0.1972 -0.0579
 1159ERGO    R316686   7.488  14.088   6.296 -0.0020 -0.0034  0.0152
 1159ERGO    R416687   7.680  14.092   6.519  0.2033  0.3665 -0.1442
 1159ERGO    R516688   7.467  14.044   6.531  0.2616  0.1059  0.0687
 1159ERGO    C116689   7.481  14.339   6.772  0.1173  0.2766 -0.1260
 1159ERGO    C216690   7.389  14.414   7.011  0.0662  0.1299 -0.2390
 1160ERGO   ROH16691   7.822   7.393   5.918  0.1611  0.3678 -0.0994
 1160ERGO    R116692   7.766   7.587   6.116 -0.2007  0.0826  0.0913
 1160ERGO    R216693   7.588   7.541   6.323 -0.0277 -0.5009  0.1375
 1160ERGO    R316694   7.800   7.612   6.478 -0.1096 -0.1565  0.0999
 1160ERGO    R416695   7.567   7.637   6.654 -0.1083 -0.5941  0.1595
 1160ERGO    R516696   7.717   7.791   6.614 -0.3851 -0.3240  0.1518
 1160ERGO    C116697   7.753   7.760   6.993 -0.2322 -0.3251  0.1370
 1160ERGO    C216698   7.685   7.865   7.369 -0.0209  0.3405 -0.0239
 1161ERGO   ROH16699  16.371   5.624   6.683  0.0123 -0.0041  0.0045
 1161ERGO    R116700  16.291   5.851   6.833 -0.1178 -0.0518  0.0080
 1161ERGO    R216701  16.121   5.833   7.050  0.0405 -0.1798  0.1223
 1161ERGO    R316702  16.322   5.964   7.178 -0.0055  0.0516 -0.0348
 1161ERGO    R416703  16.090   5.993   7.355  0.1326 -0.3768  0.2373
 1161ERGO    R516704  16.215   6.154   7.277 -0.1819 -0.1494  0.1741
 1161ERGO    C116705  16.260   6.209   7.652  0.1430 -0.2743  0.1569
 1161ERGO    C216706  16.214   6.118   7.946 -0.0432  0.0567 -0.0162
 1162ERGO   ROH16707  11.683   8.072   6.246 -0.3646 -0.3121  0.0589
 1162ERGO    R116708  11.590   8.172   6.494 -0.2855 -0.1190  0.0128
 1162ERGO    R216709  11.324   8.234   6.539 -0.2770 -0.1214  0.0601
 1162ERGO    R316710  11.353   8.065   6.750 -0.1742  0.0583  0.1931
 1162ERGO    R416711  11.079   8.166   6.772 -0.2362 -0.0856  0.1140
 1162ERGO    R516712  11.232   8.171   6.927 -0.2363  0.1265  0.1121
 1162ERGO    C116713  10.963   7.967   7.106 -0.1160  0.1040  0.2703
 1162ERGO    C216714  10.876   7.563   7.156 -0.1104 -0.1874 -0.2352
 1163ERGO   ROH16715   8.027  17.073   5.999 -0.0826 -0.0601 -0.0409
 1163ERGO    R116716   7.843  17.121   6.208 -0.0668  0.0881 -0.0605
 1163ERGO    R216717   7.750  16.921   6.375 -0.2052  0.1708 -0.0364
 1163ERGO    R316718   7.839  17.087   6.571 -0.1129  0.1448 -0.0556
 1163ERGO    R416719   7.722  16.860   6.714  0.1344  0.0321 -0.0285
 1163ERGO    R516720   7.674  17.071   6.743  0.0508 -0.0030  0.0914
 1163ERGO    C116721   7.789  16.981   7.095  0.4188 -0.0728 -0.0419
 1163ERGO    C216722   7.843  17.081   7.459  0.0343 -0.2211  0.2039
 1164ERGO   ROH16723   9.797  12.076   6.111  0.1381  0.0854 -0.0993
 1164ERGO    R116724   9.714  11.846   6.254  0.1535  0.0501 -0.1451
 1164ERGO    R216725   9.868  11.616   6.270  0.2107  0.0855 -0.1175
 1164ERGO    R316726   9.838  11.653   6.537  0.1186  0.0584 -0.1252
 1164ERGO    R416727   9.959  11.389   6.514 -0.0171 -0.0011 -0.1120
 1164ERGO    R516728   9.778  11.438   6.621 -0.0335  0.0800 -0.1825
 1164ERGO    C116729   9.984  11.292   6.907 -0.2360 -0.0770 -0.1161
 1164ERGO    C216730  10.340  11.237   7.122 -0.3603  0.1560  0.0641
 1165ERGO   ROH16731  13.163   0.050   5.894  0.0297 -0.3840 -0.0834
 1165ERGO    R116732  13.155   0.109   6.171 -0.0787 -0.2172 -0.1202
 1165ERGO    R216733  12.972  -0.008   6.343 -0.1122 -0.1525 -0.1121
 1165ERGO    R316734  13.195  -0.077   6.482 -0.1454 -0.0201  0.0084
 1165ERGO    R416735  12.976  -0.103   6.675 -0.2464 -0.2038 -0.1248
 1165ERGO    R516736  13.159   0.013   6.701 -0.3398 -0.0796  0.0031
 1165ERGO    C116737  13.188  -0.223   6.999 -0.3557 -0.1093 -0.0191
 1165ERGO    C216738  13.302  -0.350   7.281  0.1012  0.2223  0.1005
 1166ERGO   ROH16739  11.982   7.233   6.235  0.1326  0.1585 -0.2170
 1166ERGO    R116740  11.985   7.271   6.515  0.1574  0.2128 -0.2243
 1166ERGO    R216741  11.980   7.061   6.695 -0.1806  0.2515 -0.1798
 1166ERGO    R316742  12.203   7.181   6.793 -0.0060 -0.0613 -0.1822
 1166ERGO    R416743  12.132   6.980   6.994 -0.5181  0.2947  0.0087
 1166ERGO    R516744  12.165   7.192   7.029 -0.1344  0.2783 -0.2153
 1166ERGO    C116745  12.431   7.046   7.260 -0.5508  0.0263  0.1163
 1166ERGO    C216746  12.685   6.890   7.551  0.0743 -0.1169 -0.0676
 1167ERGO   ROH16747  16.248  16.954   5.837  0.1059  0.0260 -0.0539
 1167ERGO    R116748  16.255  16.832   6.093  0.3155  0.1329 -0.0063
 1167ERGO    R216749  16.137  16.587   6.144  0.0193  0.3270  0.2840
 1167ERGO    R316750  16.386  16.523   6.234  0.0725 -0.0030 -0.0736
 1167ERGO    R416751  16.204  16.352   6.388  0.0381  0.3707  0.3208
 1167ERGO    R516752  16.356  16.486   6.469  0.3836  0.1902  0.0018
 1167ERGO    C116753  16.477  16.154   6.614  0.0995  0.0866  0.0064
 1167ERGO    C216754  16.432  15.916   6.839  0.3190 -0.0434 -0.1730
 1168ERGO   ROH16755  17.448   2.003   6.128 -0.0690 -0.0225 -0.0080
 1168ERGO    R116756  17.435   2.125   6.383 -0.0221  0.0936 -0.0605
 1168ERGO    R216757  17.385   1.982   6.614 -0.0746  0.2125  0.0014
 1168ERGO    R316758  17.615   2.100   6.698 -0.0301  0.1633 -0.0497
 1168ERGO    R416759  17.483   2.011   6.944 -0.0402  0.2715 -0.0137
 1168ERGO    R516760  17.554   2.213   6.900  0.0202  0.2385 -0.0750
 1168ERGO    C116761  17.756   2.139   7.215  0.0214  0.2597 -0.0705
 1168ERGO    C216762  18.019   2.129   7.509 -0.3796  0.0481  0.0274
 1169ERGO   ROH16763   8.404  17.091   6.253 -0.2061  0.0611  0.1551
 1169ERGO    R116764   8.245  16.966   6.452 -0.1231 -0.1371  0.1011
 1169ERGO    R216765   8.298  16.712   6.547  0.1983 -0.0550  0.1647
 1169ERGO    R316766   8.296  16.837   6.789 -0.0890 -0.0133  0.1430
 1169ERGO    R416767   8.219  16.561   6.848  0.3766 -0.1420  0.1682
 1169ERGO    R516768   8.110  16.741   6.904  0.0438 -0.3198  0.1069
 1169ERGO    C116769   8.172  16.591   7.250  0.2107 -0.1533  0.1499
 1169ERGO    C216770   8.089  16.594   7.579  0.1779  0.1473 -0.0493
 1170ERGO   ROH16771  15.365   5.953   6.114  0.1788 -0.0141 -0.0476
 1170ERGO    R116772  15.357   5.966   6.397 -0.0350 -0.0388 -0.0515
 1170ERGO    R216773  15.406   6.199   6.537  0.0930 -0.1061  0.0076
 1170ERGO    R316774  15.164   6.144   6.649 -0.0562  0.1311 -0.1839
 1170ERGO    R416775  15.318   6.271   6.863 -0.0129 -0.2044  0.0026
 1170ERGO    R516776  15.216   6.078   6.873 -0.2750 -0.0879 -0.1881
 1170ERGO    C116777  15.041   6.261   7.159 -0.2145 -0.0390 -0.1802
 1170ERGO    C216778  14.920   6.243   7.463 -0.1283  0.0424  0.0270
 1171ERGO   ROH16779   1.937   7.302   6.109 -0.0942  0.0616 -0.0130
 1171ERGO    R116780   1.957   7.364   6.384 -0.1022  0.0033  0.0010
 1171ERGO    R216781   2.032   7.614   6.475  0.0657 -0.0643  0.0544
 1171ERGO    R316782   1.800   7.596   6.616  0.0237  0.0851  0.0054
 1171ERGO    R416783   1.975   7.762   6.782  0.0778  0.0128  0.0196
 1171ERGO    R516784   1.869   7.582   6.844 -0.0362  0.0803  0.0230
 1171ERGO    C116785   1.723   7.832   7.092  0.0454  0.1980 -0.0468
 1171ERGO    C216786   1.550   7.871   7.332  0.2685  0.1581 -0.1626
 1172ERGO   ROH16787  13.702  10.381   6.274  0.2799 -0.2078 -0.1409
 1172ERGO    R116788  13.780  10.315   6.537  0.0992 -0.0974 -0.0576
 1172ERGO    R216789  14.042  10.256   6.605  0.0613 -0.0225  0.1572
 1172ERGO    R316790  14.005  10.452   6.788 -0.1109  0.0356  0.0624
 1172ERGO    R416791  14.225  10.291   6.895 -0.1887  0.0718  0.3062
 1172ERGO    R516792  14.041  10.345   6.999 -0.2882  0.0982  0.1305
 1172ERGO    C116793  14.297  10.497   7.237 -0.4960  0.1813  0.3039
 1172ERGO    C216794  14.643  10.637   7.324 -0.0500  0.1015  0.1250
 1173ERGO   ROH16795  14.933   7.180   6.227  0.2976  0.0605 -0.0516
 1173ERGO    R116796  14.910   7.144   6.507  0.0283  0.0726 -0.0700
 1173ERGO    R216797  15.123   7.069   6.666 -0.1580 -0.0634  0.1188
 1173ERGO    R316798  15.056   7.292   6.805 -0.1396 -0.0224  0.0623
 1173ERGO    R416799  15.201   7.126   6.997  0.0328  0.1028  0.0474
 1173ERGO    R516800  15.003   7.213   7.024  0.0205  0.0544  0.1319
 1173ERGO    C116801  15.183   7.370   7.321  0.1609  0.2382 -0.0473
 1173ERGO    C216802  15.368   7.598   7.525 -0.1558 -0.0259 -0.1253
 1174ERGO   ROH16803   8.137  13.001   6.153 -0.1808  0.2060 -0.3376
 1174ERGO    R116804   7.984  12.960   6.388 -0.0840  0.0356 -0.3032
 1174ERGO    R216805   8.101  12.918   6.636  0.0186  0.0713 -0.3465
 1174ERGO    R316806   7.944  13.127   6.709 -0.1253 -0.0660 -0.2547
 1174ERGO    R416807   8.026  13.004   6.962 -0.0298 -0.1137 -0.3069
 1174ERGO    R516808   7.822  13.047   6.899 -0.0636 -0.2294 -0.2815
 1174ERGO    C116809   7.835  13.251   7.220 -0.1932 -0.3503 -0.1976
 1174ERGO    C216810   7.947  13.582   7.457  0.2296  0.1303  0.0460
 1175ERGO   ROH16811  18.821   4.141   6.124  0.0430 -0.1432  0.0503
 1175ERGO    R116812  18.968   4.254   6.338  0.1761 -0.1927 -0.0140
 1175ERGO    R216813  18.855   4.309   6.584  0.2593  0.0036 -0.0177
 1175ERGO    R316814  19.060   4.156   6.676  0.1371 -0.1469  0.0103
 1175ERGO    R416815  18.958   4.295   6.913  0.2224 -0.0492 -0.0081
 1175ERGO    R516816  19.165   4.292   6.843  0.2277 -0.2120  0.0082
 1175ERGO    C116817  19.212   4.145   7.192  0.0861 -0.2213  0.0239
 1175ERGO    C216818  19.271   3.961   7.501 -0.3326 -0.0690  0.0277
 1176ERGO   ROH16819  16.579   2.765   6.230  0.2878  0.0049  0.0246
 1176ERGO    R116820  16.483   2.682   6.483  0.2486  0.1342  0.0531
 1176ERGO    R216821  16.498   2.419   6.569 -0.0876  0.1071  0.0447
 1176ERGO    R316822  16.624   2.531   6.782  0.1352 -0.0661  0.0072
 1176ERGO    R416823  16.520   2.276   6.882 -0.0218 -0.0092 -0.0127
 1176ERGO    R516824  16.486   2.473   6.970  0.1970 -0.0073  0.0704
 1176ERGO    C116825  16.651   2.297   7.265  0.2257 -0.2395 -0.0814
 1176ERGO    C216826  16.722   2.135   7.555 -0.1789  0.1041  0.0472
 1177ERGO   ROH16827   8.023   5.943   6.101  0.1042  0.0776  0.0002
 1177ERGO    R116828   7.804   5.870   6.265  0.0231  0.1392 -0.0788
 1177ERGO    R216829   7.798   5.634   6.408 -0.0991  0.1366 -0.0850
 1177ERGO    R316830   7.751   5.800   6.618 -0.1233  0.1470 -0.0990
 1177ERGO    R416831   7.644   5.540   6.703 -0.1425  0.1546 -0.1023
 1177ERGO    R516832   7.538   5.730   6.702 -0.1364  0.1572 -0.1253
 1177ERGO    C116833   7.510   5.641   7.072 -0.1904  0.1747 -0.1256
 1177ERGO    C216834   7.374   5.373   7.283  0.0818 -0.0950  0.1450
 1178ERGO   ROH16835  13.006   3.075   7.995  0.0641 -0.1136 -0.0606
 1178ERGO    R116836  12.865   2.832   8.029  0.2059 -0.2046 -0.1169
 1178ERGO    R216837  12.619   2.785   7.912  0.0521 -0.1675  0.1852
 1178ERGO    R316838  12.744   2.564   7.814 -0.0003 -0.0195 -0.2355
 1178ERGO    R416839  12.459   2.501   7.797 -0.0068 -0.1270  0.1657
 1178ERGO    R516840  12.613   2.381   7.894  0.2089 -0.1570 -0.1971
 1178ERGO    C116841  12.483   2.128   7.639 -0.0902  0.0354 -0.2406
 1178ERGO    C216842  12.373   1.996   7.504  0.1515 -0.2805  0.1769
 1179ERGO   ROH16843  16.826  17.278   6.083  0.2376 -0.1131 -0.1410
 1179ERGO    R116844  16.995  17.356   6.296  0.2021  0.0302 -0.1642
 1179ERGO    R216845  17.164  17.574   6.280 -0.1044  0.2748 -0.1268
 1179ERGO    R316846  17.036  17.649   6.508 -0.1348 -0.0004 -0.0501
 1179ERGO    R416847  17.318  17.711   6.557 -0.1821  0.2529 -0.0725
 1179ERGO    R516848  17.188  17.590   6.683 -0.0358  0.0378 -0.1203
 1179ERGO    C116849  17.287  17.861   6.933 -0.2557 -0.0183  0.0312
 1179ERGO    C216850  17.274  17.957   7.312  0.2105 -0.2805  0.0576
 1180ERGO   ROH16851   1.757   8.943   6.229 -0.0836  0.1973 -0.0509
 1180ERGO    R116852   1.748   8.815   6.482 -0.1570  0.2243 -0.0399
 1180ERGO    R216853   1.976   8.728   6.613 -0.2148 -0.0341 -0.1094
 1180ERGO    R316854   1.877   8.880   6.816  0.0251  0.0994 -0.0825
 1180ERGO    R416855   2.036   8.674   6.948 -0.2174 -0.1226 -0.1218
 1180ERGO    R516856   1.828   8.723   6.989 -0.1513  0.1552 -0.0759
 1180ERGO    C116857   1.979   8.784   7.334  0.0062 -0.0487 -0.1038
 1180ERGO    C216858   2.160   8.814   7.591 -0.0727 -0.1741  0.2703
 1181ERGO   ROH16859   7.505  12.725   6.031 -0.0541  0.1081  0.2204
 1181ERGO    R116860   7.481  12.647   6.302  0.1980 -0.1905  0.1625
 1181ERGO    R216861   7.690  12.533   6.443  0.5407  0.2314  0.0240
 1181ERGO    R316862   7.640  12.736   6.618  0.0313 -0.0312  0.2020
 1181ERGO    R416863   7.738  12.516   6.785  0.7041  0.0993 -0.0043
 1181ERGO    R516864   7.552  12.627   6.812  0.3945 -0.4324  0.1519
 1181ERGO    C116865   7.719  12.696   7.148  0.3209 -0.2240  0.1464
 1181ERGO    C216866   7.848  12.815   7.448  0.2066  0.0877  0.0097
 1182ERGO   ROH16867   6.617   5.754   5.879 -0.2542 -0.0107  0.1180
 1182ERGO    R116868   6.619   5.689   6.155 -0.2126 -0.1209  0.0933
 1182ERGO    R216869   6.717   5.449   6.250 -0.0322 -0.0915  0.0008
 1182ERGO    R316870   6.871   5.610   6.406 -0.1570 -0.0338  0.0637
 1182ERGO    R416871   6.854   5.357   6.553  0.1508 -0.1445 -0.0983
 1182ERGO    R516872   6.806   5.555   6.630 -0.0348 -0.2477  0.0453
 1182ERGO    C116873   7.078   5.454   6.877  0.1402 -0.1212 -0.0971
 1182ERGO    C216874   7.108   5.084   6.985  0.2988  0.2595 -0.1622
 1183ERGO   ROH16875   2.690  16.989   5.790  0.0923  0.1540  0.0446
 1183ERGO    R116876   2.792  16.966   6.053  0.0051  0.1237  0.0745
 1183ERGO    R216877   2.667  17.079   6.271 -0.0831  0.0653  0.0441
 1183ERGO    R316878   2.680  16.826   6.369 -0.0786  0.0528  0.0165
 1183ERGO    R416879   2.698  16.999   6.606 -0.0523  0.0439  0.0376
 1183ERGO    R516880   2.837  16.840   6.550 -0.0549  0.0406  0.0055
 1183ERGO    C116881   2.728  16.715   6.893 -0.0302  0.0195  0.0078
 1183ERGO    C216882   2.655  16.483   7.118  0.1219  0.2833  0.0244
 1184ERGO   ROH16883   5.010  17.587   5.750 -0.1568  0.0175 -0.1037
 1184ERGO    R116884   5.195  17.580   5.964 -0.1485  0.1332 -0.1058
 1184ERGO    R216885   5.193  17.767   6.168 -0.3790  0.0313 -0.0087
 1184ERGO    R316886   5.179  17.546   6.326 -0.1136 -0.0717 -0.1230
 1184ERGO    R416887   5.285  17.756   6.501 -0.1501 -0.0977 -0.0739
 1184ERGO    R516888   5.373  17.560   6.466 -0.0309 -0.0138 -0.2445
 1184ERGO    C116889   5.324  17.542   6.844  0.2324 -0.2696 -0.2193
 1184ERGO    C216890   5.381  17.608   7.227  0.1556  0.1475 -0.2647
 1185ERGO   ROH16891  10.561   4.022   6.390 -0.0376 -0.1906  0.1550
 1185ERGO    R116892  10.722   4.173   6.567 -0.0271 -0.0647  0.0389
 1185ERGO    R216893  10.652   4.217   6.831  0.0661 -0.0121  0.0519
 1185ERGO    R316894  10.899   4.114   6.880  0.1333  0.1130 -0.0150
 1185ERGO    R416895  10.840   4.282   7.114 -0.0443 -0.1796  0.1657
 1185ERGO    R516896  11.017   4.293   6.987 -0.0216  0.0911  0.2071
 1185ERGO    C116897  11.181   4.223   7.325 -0.0454 -0.1596  0.1693
 1185ERGO    C216898  11.118   4.240   7.554  0.1589  0.1724 -0.3651
 1186ERGO   ROH16899  12.668  17.031   5.803  0.1571  0.0659 -0.0309
 1186ERGO    R116900  12.625  17.097   6.075  0.1400 -0.0888  0.0046
 1186ERGO    R216901  12.383  17.055   6.202  0.0760  0.0105 -0.0876
 1186ERGO    R316902  12.537  16.918   6.379 -0.0761 -0.2319 -0.1381
 1186ERGO    R416903  12.306  17.008   6.536  0.2058  0.3354 -0.0080
 1186ERGO    R516904  12.516  17.040   6.584  0.3237 -0.0783 -0.1768
 1186ERGO    C116905  12.406  16.851   6.896  0.1386  0.2969 -0.0090
 1186ERGO    C216906  12.313  16.805   7.151  0.0706 -0.0049 -0.1454
 1187ERGO   ROH16907   3.331  10.457   6.160  0.0992  0.0645  0.0498
 1187ERGO    R116908   3.241  10.377   6.416 -0.0073  0.0724  0.0158
 1187ERGO    R216909   2.988  10.435   6.510 -0.0724  0.0167 -0.1170
 1187ERGO    R316910   2.976  10.166   6.548 -0.0178  0.0179 -0.0924
 1187ERGO    R416911   2.746  10.273   6.696 -0.0798 -0.0261 -0.1638
 1187ERGO    R516912   2.902  10.142   6.775 -0.0701  0.0209 -0.1108
 1187ERGO    C116913   2.594   9.926   6.841 -0.0329 -0.0500 -0.1678
 1187ERGO    C216914   2.229   9.863   7.160  0.0973 -0.0351  0.2476
 1188ERGO   ROH16915   5.120   3.887   6.156  0.0403 -0.1641  0.0369
 1188ERGO    R116916   5.179   3.738   6.390 -0.0546 -0.1851  0.0491
 1188ERGO    R216917   5.150   3.841   6.645 -0.0685 -0.1741  0.0479
 1188ERGO    R316918   4.996   3.620   6.681 -0.1525 -0.1214  0.0126
 1188ERGO    R416919   4.998   3.752   6.942 -0.0884 -0.1804  0.0350
 1188ERGO    R516920   5.051   3.545   6.902 -0.1727 -0.1893 -0.0087
 1188ERGO    C116921   4.766   3.493   7.150 -0.1788 -0.1346 -0.0056
 1188ERGO    C216922   4.566   3.535   7.335  0.0430 -0.0176 -0.3384
 1189ERGO   ROH16923  16.944   2.882   5.962  0.0958 -0.0316 -0.0951
 1189ERGO    R116924  17.017   2.930   6.231  0.0305 -0.0127 -0.0813
 1189ERGO    R216925  16.860   3.078   6.404 -0.0646 -0.0956 -0.1003
 1189ERGO    R316926  16.878   2.856   6.559  0.0131 -0.0942 -0.1060
 1189ERGO    R416927  16.820   3.074   6.747 -0.1246 -0.1247 -0.1069
 1189ERGO    R516928  16.985   2.932   6.760 -0.0576 -0.0485 -0.0831
 1189ERGO    C116929  16.814   2.863   7.093 -0.0869 -0.1405 -0.1162
 1189ERGO    C216930  16.473   2.806   7.322  0.1291 -0.1524  0.0185
 1190ERGO   ROH16931  15.208   0.917   5.951 -0.1157 -0.1597 -0.1010
 1190ERGO    R116932  15.041   0.970   6.174 -0.0795 -0.2260 -0.0573
 1190ERGO    R216933  14.846   1.165   6.171  0.0694 -0.0669  0.1090
 1190ERGO    R316934  14.685   0.959   6.246 -0.0907 -0.0127 -0.0785
 1190ERGO    R416935  14.588   1.190   6.399  0.1007 -0.0791  0.1451
 1190ERGO    R516936  14.647   0.997   6.480 -0.0491 -0.2043 -0.0408
 1190ERGO    C116937  14.286   1.012   6.603 -0.0314 -0.0353 -0.0098
 1190ERGO    C216938  14.121   1.085   6.894 -0.1588 -0.0962  0.1087
 1191ERGO   ROH16939   7.159  10.273   5.798  0.1766  0.0412  0.0727
 1191ERGO    R116940   7.200  10.378   6.058  0.2077  0.1269  0.0343
 1191ERGO    R216941   7.150  10.642   6.122 -0.0484  0.0879  0.0197
 1191ERGO    R316942   6.995  10.533   6.316  0.1775 -0.0580  0.1216
 1191ERGO    R416943   7.081  10.791   6.426 -0.0593  0.0558  0.0325
 1191ERGO    R516944   7.103  10.595   6.521  0.2129  0.0965  0.0540
 1191ERGO    C116945   6.895  10.774   6.786  0.1463 -0.0999  0.1357
 1191ERGO    C216946   6.798  10.973   7.065 -0.1446 -0.5548  0.0178
 1192ERGO   ROH16947  16.053   0.033   5.972 -0.2531 -0.3330  0.1422
 1192ERGO    R116948  16.200  -0.021   6.208 -0.1463 -0.2378  0.0995
 1192ERGO    R216949  16.146   0.104   6.449 -0.0406 -0.1432  0.0783
 1192ERGO    R316950  16.128  -0.152   6.540  0.0023 -0.1081  0.1832
 1192ERGO    R416951  16.092   0.016   6.779  0.0365 -0.0210  0.1232
 1192ERGO    R516952  16.236  -0.146   6.754  0.0446 -0.0154  0.1575
 1192ERGO    C116953  16.044  -0.275   7.057  0.1219  0.0832  0.2478
 1192ERGO    C216954  15.797  -0.063   7.353 -0.0094  0.1237  0.2785
 1193ERGO   ROH16955   9.933   2.846   6.332  0.1150  0.0459 -0.1504
 1193ERGO    R116956  10.022   2.960   6.575  0.1982 -0.0253 -0.1478
 1193ERGO    R216957   9.899   2.909   6.817  0.1787  0.0379 -0.1496
 1193ERGO    R316958  10.150   2.838   6.893  0.1374 -0.1232 -0.1588
 1193ERGO    R416959  10.051   3.006   7.112  0.3195  0.1222 -0.2481
 1193ERGO    R516960  10.237   3.033   7.002  0.3240 -0.1120 -0.3141
 1193ERGO    C116961  10.375   2.995   7.355  0.3627  0.0200 -0.3140
 1193ERGO    C216962  10.523   2.784   7.576 -0.2799  0.2037 -0.2827
 1194ERGO   ROH16963  16.103  17.161   7.082 -0.1863 -0.0492  0.0520
 1194ERGO    R116964  16.246  16.945   7.197 -0.1006 -0.0933 -0.1364
 1194ERGO    R216965  16.202  16.859   7.456  0.1669 -0.1204 -0.1058
 1194ERGO    R316966  16.164  16.619   7.336 -0.0078 -0.1016 -0.0949
 1194ERGO    R416967  16.193  16.555   7.620 -0.0731 -0.0997 -0.0747
 1194ERGO    R516968  16.307  16.468   7.456 -0.1219 -0.1995 -0.0680
 1194ERGO    C116969  16.152  16.152   7.601 -0.3765 -0.0699 -0.0464
 1194ERGO    C216970  16.007  15.850   7.755 -0.1915 -0.0733 -0.1747
 1195ERGO   ROH16971  18.734  16.684   5.677 -0.1169  0.0128  0.0672
 1195ERGO    R116972  18.769  16.652   5.956 -0.3805 -0.1423  0.0868
 1195ERGO    R216973  18.665  16.436   6.094 -0.1549 -0.4551 -0.2017
 1195ERGO    R316974  18.923  16.406   6.176 -0.1815 -0.0417  0.0595
 1195ERGO    R416975  18.763  16.272   6.382 -0.1698 -0.3826 -0.1563
 1195ERGO    R516976  18.912  16.428   6.414 -0.4667 -0.1368  0.0555
 1195ERGO    C116977  19.062  16.148   6.627 -0.2037  0.0476  0.1153
 1195ERGO    C216978  19.205  15.843   6.786  0.0011 -0.0283  0.2019
 1196ERGO   ROH16979   4.623   4.985   5.816  0.2001  0.0565 -0.0042
 1196ERGO    R116980   4.579   4.909   6.085 -0.0520 -0.0483 -0.0713
 1196ERGO    R216981   4.725   5.013   6.295 -0.0034 -0.3886  0.0743
 1196ERGO    R316982   4.480   5.074   6.393  0.0285 -0.0892 -0.0244
 1196ERGO    R416983   4.658   5.086   6.626 -0.0868 -0.5285  0.0887
 1196ERGO    R516984   4.474   4.970   6.609 -0.2550 -0.2404 -0.1025
 1196ERGO    C116985   4.388   5.187   6.911 -0.1054 -0.3290  0.0044
 1196ERGO    C216986   4.291   5.481   7.073  0.0520  0.1021 -0.2680
 1197ERGO   ROH16987   3.319   8.393   5.980  0.1885  0.0368 -0.1204
 1197ERGO    R116988   3.198   8.295   6.216  0.1363  0.1104 -0.1158
 1197ERGO    R216989   3.312   8.096   6.371  0.0115  0.0231 -0.1294
 1197ERGO    R316990   3.283   8.279   6.570  0.1512  0.0390 -0.1234
 1197ERGO    R416991   3.314   8.022   6.708  0.0052  0.0232 -0.1297
 1197ERGO    R516992   3.152   8.166   6.736  0.1011  0.1233 -0.1083
 1197ERGO    C116993   3.288   8.151   7.092  0.1325  0.0382 -0.1243
 1197ERGO    C216994   3.223   8.055   7.398  0.1145 -0.1663 -0.1052
 1198ERGO   ROH16995   5.463   1.249   5.829  0.0267 -0.2372 -0.0080
 1198ERGO    R116996   5.374   1.294   6.094  0.1992 -0.2646  0.0562
 1198ERGO    R216997   5.107   1.328   6.158  0.2753  0.2342  0.1598
 1198ERGO    R316998   5.157   1.126   6.333 -0.0807 -0.0182 -0.0190
 1198ERGO    R416999   4.933   1.274   6.452  0.2510  0.3462  0.1659
 1198ERGO    R517000   5.122   1.224   6.549  0.1853 -0.1203  0.0729
 1198ERGO    C117001   4.879   1.053   6.787 -0.0974  0.1745  0.0016
 1198ERGO    C217002   4.823   0.897   7.164  0.3015 -0.1464  0.0822
 1199ERGO   ROH17003   2.479   2.181   5.861 -0.1862  0.3269 -0.1790
 1199ERGO    R117004   2.427   2.310   6.107 -0.0190  0.2630 -0.1107
 1199ERGO    R217005   2.368   2.172   6.339  0.0932  0.2096 -0.1245
 1199ERGO    R317006   2.576   2.315   6.440  0.1729  0.1436 -0.1895
 1199ERGO    R417007   2.439   2.206   6.675  0.0012  0.4307 -0.1251
 1199ERGO    R517008   2.488   2.415   6.639  0.1707  0.3784 -0.2944
 1199ERGO    C117009   2.676   2.360   6.966  0.0225  0.4974 -0.1865
 1199ERGO    C217010   2.787   2.160   7.231  0.2028  0.2257 -0.0754
 1200ERGO   ROH17011   4.767   2.434   6.187 -0.2517 -0.1238 -0.0151
 1200ERGO    R117012   4.780   2.428   6.470 -0.2005 -0.1281 -0.0163
 1200ERGO    R217013   4.919   2.615   6.617  0.0239 -0.2580 -0.0454
 1200ERGO    R317014   4.681   2.645   6.745  0.0740 -0.0150 -0.0068
 1200ERGO    R417015   4.865   2.552   6.953 -0.0015 -0.1990 -0.0394
 1200ERGO    R517016   4.673   2.463   6.900 -0.0951 -0.0006 -0.0063
 1200ERGO    C117017   4.609   2.543   7.267  0.0307  0.0635  0.0004
 1200ERGO    C217018   4.817   2.775   7.525 -0.0134  0.0110  0.0652
 1201ERGO   ROH17019  12.028  11.439   5.935 -0.1945  0.0042 -0.1035
 1201ERGO    R117020  12.131  11.519   6.186 -0.2620  0.0066 -0.0762
 1201ERGO    R217021  11.976  11.526   6.415 -0.2749 -0.1783 -0.0779
 1201ERGO    R317022  12.174  11.368   6.514 -0.1587 -0.0604 -0.1199
 1201ERGO    R417023  12.002  11.426   6.745 -0.1423 -0.1560 -0.0813
 1201ERGO    R517024  12.217  11.457   6.732 -0.1621 -0.0294 -0.1313
 1201ERGO    C117025  12.203  11.219   7.030  0.0441 -0.0323 -0.1228
 1201ERGO    C217026  12.096  11.100   7.391  0.2221 -0.1270 -0.0357
 1202ERGO   ROH17027  13.607   7.949   5.941 -0.1371 -0.1984 -0.1112
 1202ERGO    R117028  13.671   7.881   6.208  0.0089 -0.2176 -0.1498
 1202ERGO    R217029  13.584   8.030   6.424  0.2758 -0.1284 -0.0980
 1202ERGO    R317030  13.488   7.791   6.509  0.1586 -0.0495 -0.0058
 1202ERGO    R417031  13.610   7.910   6.747  0.0965  0.0379 -0.0200
 1202ERGO    R517032  13.651   7.712   6.665  0.0646 -0.0210  0.1070
 1202ERGO    C117033  13.534   7.615   7.015 -0.1181  0.2087  0.1121
 1202ERGO    C217034  13.385   7.287   7.375 -0.4319  0.0493 -0.0771
 1203ERGO   ROH17035   7.134   6.502   6.240 -0.1004  0.1861  0.0995
 1203ERGO    R117036   7.086   6.593   6.503 -0.2109  0.0752  0.1185
 1203ERGO    R217037   6.895   6.479   6.668 -0.0636 -0.2023  0.1027
 1203ERGO    R317038   7.105   6.454   6.839 -0.0228  0.0327  0.0909
 1203ERGO    R417039   6.878   6.336   6.982  0.0633  0.0188  0.2131
 1203ERGO    R517040   7.010   6.493   7.055 -0.0072  0.1423  0.0777
 1203ERGO    C117041   7.065   6.229   7.326  0.1754  0.3682  0.2662
 1203ERGO    C217042   7.176   6.186   7.703  0.4036  0.0475  0.1940
 1204ERGO   ROH17043   2.835  15.936   5.806  0.0698  0.0242  0.0462
 1204ERGO    R117044   2.786  15.964   6.083  0.0990  0.0889  0.0441
 1204ERGO    R217045   2.795  15.750   6.258 -0.0152  0.1102  0.0683
 1204ERGO    R317046   2.972  15.908   6.391  0.0800  0.0248  0.0462
 1204ERGO    R417047   2.870  15.723   6.594 -0.0818  0.1380  0.0862
 1204ERGO    R517048   2.872  15.940   6.606  0.0676  0.1478  0.0282
 1204ERGO    C117049   3.080  15.855   6.915 -0.0313  0.0739  0.0758
 1204ERGO    C217050   3.207  15.690   7.168 -0.1839  0.5816  0.1569
 1205ERGO   ROH17051  16.723  13.286   5.864 -0.2345  0.0709 -0.0028
 1205ERGO    R117052  16.653  13.364   6.127 -0.3195  0.0040 -0.0037
 1205ERGO    R217053  16.483  13.216   6.287 -0.1948 -0.1571 -0.0112
 1205ERGO    R317054  16.691  13.228   6.462 -0.2092  0.0297 -0.0060
 1205ERGO    R417055  16.453  13.191   6.630 -0.1932 -0.0241 -0.0015
 1205ERGO    R517056  16.603  13.348   6.650 -0.2794  0.0631 -0.0625
 1205ERGO    C117057  16.630  13.187   6.995 -0.2060  0.2286  0.0089
 1205ERGO    C217058  16.473  13.048   7.293 -0.4377 -0.0440  0.0500
 1206ERGO   ROH17059   0.990   4.070   6.048  0.0277  0.0015  0.0301
 1206ERGO    R117060   0.993   4.019   6.327  0.0736  0.0696  0.0422
 1206ERGO    R217061   0.917   3.776   6.434 -0.0630  0.1492  0.1240
 1206ERGO    R317062   1.162   3.789   6.552 -0.0198  0.0086  0.0518
 1206ERGO    R417063   1.003   3.614   6.727 -0.0212 -0.0476  0.0044
 1206ERGO    R517064   1.114   3.792   6.787  0.0535 -0.1116  0.0717
 1206ERGO    C117065   1.283   3.532   7.008  0.0437 -0.2943 -0.1330
 1206ERGO    C217066   1.534   3.304   7.109 -0.0862  0.0440 -0.6488
 1207ERGO   ROH17067   3.286   0.073   5.826 -0.0418 -0.1870 -0.1371
 1207ERGO    R117068   3.137   0.036   6.064  0.1009 -0.1326 -0.0367
 1207ERGO    R217069   3.255  -0.009   6.309  0.2571  0.1232 -0.0581
 1207ERGO    R317070   3.105   0.204   6.385  0.1398  0.0695 -0.1379
 1207ERGO    R417071   3.093   0.021   6.613  0.0559  0.0591 -0.1578
 1207ERGO    R517072   2.923   0.109   6.508  0.0941  0.0081 -0.2564
 1207ERGO    C117073   2.858   0.238   6.861 -0.1715 -0.0288 -0.2909
 1207ERGO    C217074   2.824   0.445   7.172  0.1218  0.1285 -0.2573
 1208ERGO   ROH17075  17.717  13.480   5.839  0.2531  0.2324 -0.0338
 1208ERGO    R117076  17.759  13.449   6.117 -0.0031  0.3694  0.0227
 1208ERGO    R217077  17.989  13.336   6.221 -0.3055 -0.0517  0.2697
 1208ERGO    R317078  17.999  13.568   6.363  0.0980  0.0573  0.0774
 1208ERGO    R417079  18.100  13.366   6.547 -0.1487  0.0670  0.2082
 1208ERGO    R517080  17.938  13.506   6.585  0.0795  0.3440  0.1521
 1208ERGO    C117081  18.174  13.600   6.869  0.3214  0.2385 -0.0081
 1208ERGO    C217082  18.346  13.529   7.210  0.0930 -0.0490  0.0804
 1209ERGO   ROH17083  14.469   3.939   6.198  0.2380  0.0676  0.0986
 1209ERGO    R117084  14.496   3.998   6.473  0.1037 -0.0316  0.1343
 1209ERGO    R217085  14.312   4.150   6.612  0.0901  0.0070  0.0771
 1209ERGO    R317086  14.306   3.935   6.777 -0.1024 -0.0430  0.0040
 1209ERGO    R417087  14.141   4.137   6.912  0.1229  0.0794  0.0984
 1209ERGO    R517088  14.310   4.029   6.997  0.0275 -0.1216  0.0346
 1209ERGO    C117089  14.036   3.926   7.242 -0.0387  0.0745  0.0422
 1209ERGO    C217090  13.819   3.630   7.379 -0.0303  0.0132  0.4398
 1210ERGO   ROH17091   2.481  13.001   5.590  0.1268  0.0518  0.1589
 1210ERGO    R117092   2.219  13.016   5.695  0.1243  0.1469  0.1412
 1210ERGO    R217093   2.115  12.824   5.866 -0.0234  0.0829 -0.0126
 1210ERGO    R317094   2.068  13.039   6.026  0.1072 -0.0027  0.1431
 1210ERGO    R417095   1.865  12.843   6.103 -0.1347  0.1414 -0.1342
 1210ERGO    R517096   1.830  13.049   6.043  0.1089  0.2278  0.0205
 1210ERGO    C117097   1.674  13.056   6.391 -0.0768  0.0952 -0.0588
 1210ERGO    C217098   1.444  13.061   6.748  0.1232 -0.3339  0.0091
 1211ERGO   ROH17099   1.453  13.264   5.924 -0.0234 -0.2374 -0.0135
 1211ERGO    R117100   1.322  13.233   6.173 -0.0101 -0.0336  0.0225
 1211ERGO    R217101   1.337  13.422   6.374  0.0532  0.1089 -0.1017
 1211ERGO    R317102   1.066  13.410   6.361  0.0514  0.1632 -0.0828
 1211ERGO    R417103   1.123  13.504   6.633  0.0644  0.3383 -0.1642
 1211ERGO    R517104   0.999  13.334   6.578  0.0292  0.3363 -0.0359
 1211ERGO    C117105   0.744  13.541   6.771  0.0692  0.5228 -0.1829
 1211ERGO    C217106   0.572  13.643   7.011  0.2688 -0.2770 -0.0704
 1212ERGO   ROH17107  18.054   9.684   6.330 -0.1023 -0.2291 -0.1928
 1212ERGO    R117108  17.937   9.707   6.587 -0.0201 -0.1300 -0.1637
 1212ERGO    R217109  17.726   9.548   6.669 -0.0499 -0.0388 -0.0664
 1212ERGO    R317110  17.892   9.491   6.876 -0.0103 -0.0479 -0.1000
 1212ERGO    R417111  17.627   9.515   6.998 -0.0200 -0.2340 -0.0753
 1212ERGO    R517112  17.808   9.621   7.058 -0.0686 -0.1688 -0.0376
 1212ERGO    C117113  17.725   9.442   7.385  0.0344 -0.3562 -0.1120
 1212ERGO    C217114  17.823   9.276   7.691 -0.0605  0.2361  0.0602
 1213ERGO   ROH17115  11.226   4.017   6.549 -0.0374  0.1300  0.0460
 1213ERGO    R117116  11.310   3.971   6.815  0.0584  0.1283  0.0150
 1213ERGO    R217117  11.573   3.924   6.882  0.0962  0.2611 -0.0651
 1213ERGO    R317118  11.533   4.130   7.054  0.0351  0.2054 -0.0106
 1213ERGO    R417119  11.753   3.976   7.173  0.0152  0.1584  0.0047
 1213ERGO    R517120  11.567   4.034   7.271 -0.0258  0.1228 -0.0295
 1213ERGO    C117121  11.820   4.201   7.503 -0.0892  0.0464  0.0964
 1213ERGO    C217122  12.079   4.112   7.743 -0.0292  0.4119 -0.0218
 1214ERGO   ROH17123   3.526   3.883   5.799 -0.0884  0.0532 -0.1922
 1214ERGO    R117124   3.349   3.971   6.000 -0.0251  0.1445 -0.1768
 1214ERGO    R217125   3.281   3.815   6.217 -0.2181  0.1118 -0.2624
 1214ERGO    R317126   3.364   4.032   6.359 -0.0125 -0.0396 -0.1445
 1214ERGO    R417127   3.130   3.933   6.505 -0.1185  0.1064 -0.2065
 1214ERGO    R517128   3.161   4.137   6.432  0.0812  0.1184 -0.1000
 1214ERGO    C117129   3.120   4.206   6.805  0.1325 -0.0390 -0.0634
 1214ERGO    C217130   3.185   4.275   7.067  0.3968 -0.1666 -0.2165
 1215ERGO   ROH17131  10.357   6.269   6.330  0.0123 -0.1806  0.0667
 1215ERGO    R117132  10.246   6.203   6.582 -0.1088  0.0450  0.0745
 1215ERGO    R217133  10.395   6.205   6.815 -0.1315 -0.0866  0.0888
 1215ERGO    R317134  10.198   6.371   6.901  0.0800  0.2103  0.0187
 1215ERGO    R417135  10.340   6.292   7.145 -0.2633 -0.2048  0.0998
 1215ERGO    R517136  10.126   6.276   7.109 -0.2715  0.1954 -0.1016
 1215ERGO    C117137  10.124   6.499   7.418 -0.1416  0.0051  0.0404
 1215ERGO    C217138  10.262   6.843   7.570 -0.3818  0.2591  0.0166
 1216ERGO   ROH17139  11.595  18.651   5.866 -0.2502 -0.0549 -0.0369
 1216ERGO    R117140  11.584  18.710   6.142 -0.0739 -0.0452 -0.0311
 1216ERGO    R217141  11.349  18.773   6.272  0.0323  0.1213  0.0889
 1216ERGO    R317142  11.423  18.569   6.437 -0.0283  0.0715  0.0477
 1216ERGO    R417143  11.252  18.740   6.603  0.0801  0.1145  0.1017
 1216ERGO    R517144  11.454  18.673   6.650  0.0534  0.0234  0.0548
 1216ERGO    C117145  11.265  18.529   6.949  0.0511  0.0642  0.0705
 1216ERGO    C217146  11.310  18.446   7.228 -0.2397 -0.4664 -0.0813
 1217ERGO   ROH17147  14.150  15.494   6.208 -0.1206  0.2964 -0.0875
 1217ERGO    R117148  13.910  15.545   6.349 -0.1503  0.0813 -0.0548
 1217ERGO    R217149  13.773  15.349   6.488  0.0971 -0.0224  0.0492
 1217ERGO    R317150  13.796  15.525   6.694 -0.0519  0.0819 -0.0221
 1217ERGO    R417151  13.574  15.352   6.771  0.1080 -0.0911  0.0572
 1217ERGO    R517152  13.571  15.569   6.761 -0.0896 -0.0957 -0.0292
 1217ERGO    C117153  13.480  15.519   7.128 -0.0256 -0.0334 -0.0050
 1217ERGO    C217154  13.246  15.641   7.438  0.1502  0.0163  0.0461
 1218ERGO   ROH17155   4.248  13.833   6.258 -0.1607  0.0973  0.1126
 1218ERGO    R117156   4.198  13.893   6.530 -0.1324 -0.0364  0.1479
 1218ERGO    R217157   4.199  13.700   6.728  0.0873 -0.1039  0.0825
 1218ERGO    R317158   4.380  13.866   6.844 -0.0172  0.0091  0.0865
 1218ERGO    R417159   4.266  13.712   7.067  0.0215 -0.0175  0.0929
 1218ERGO    R517160   4.278  13.929   7.052 -0.0879 -0.0110  0.0599
 1218ERGO    C117161   4.475  13.874   7.373 -0.1150  0.1388  0.1027
 1218ERGO    C217162   4.669  13.874   7.716 -0.2681  0.1228 -0.1330
 1219ERGO   ROH17163   3.071  11.390   5.910 -0.1588  0.1263  0.1500
 1219ERGO    R117164   3.085  11.554   6.140 -0.2791 -0.0018  0.2484
 1219ERGO    R217165   2.962  11.487   6.379  0.0092 -0.3814  0.2916
 1219ERGO    R317166   3.212  11.523   6.480  0.0275 -0.0100  0.1390
 1219ERGO    R417167   3.032  11.588   6.702  0.0460 -0.4256  0.2991
 1219ERGO    R517168   3.192  11.713   6.623 -0.2088 -0.1062  0.2491
 1219ERGO    C117169   3.308  11.679   6.985  0.0847 -0.1027  0.1603
 1219ERGO    C217170   3.265  11.632   7.269 -0.0576 -0.2360 -0.1104
 1220ERGO   ROH17171   5.502  11.205   8.025  0.0425  0.0687 -0.1370
 1220ERGO    R117172   5.553  11.446   7.887 -0.0520  0.0697 -0.1717
 1220ERGO    R217173   5.726  11.461   7.672  0.1241  0.1501 -0.0296
 1220ERGO    R317174   5.510  11.571   7.548  0.1293 -0.0822 -0.2519
 1220ERGO    R417175   5.743  11.687   7.411  0.1526  0.2266  0.0389
 1220ERGO    R517176   5.577  11.797   7.502 -0.0869  0.0104 -0.1244
 1220ERGO    C117177   5.551  11.922   7.143  0.1739  0.0531 -0.1300
 1220ERGO    C217178   5.622  12.077   6.866  0.1442 -0.3762 -0.3919
 1221ERGO   ROH17179   2.872  13.975   5.978 -0.0156 -0.1897  0.0848
 1221ERGO    R117180   2.875  14.113   6.225  0.0881 -0.0155 -0.0112
 1221ERGO    R217181   2.697  14.057   6.429  0.0072  0.2997  0.0127
 1221ERGO    R317182   2.924  14.027   6.575 -0.0361  0.1820  0.0560
 1221ERGO    R417183   2.708  14.024   6.773 -0.0859  0.0564 -0.0055
 1221ERGO    R517184   2.884  14.152   6.775 -0.0797  0.0426  0.1340
 1221ERGO    C117185   2.929  13.976   7.110 -0.1807 -0.1958  0.0244
 1221ERGO    C217186   3.035  13.889   7.398 -0.0514 -0.1010  0.1045
 1222ERGO   ROH17187   8.475   0.574   6.002 -0.0847 -0.1746 -0.0193
 1222ERGO    R117188   8.400   0.557   6.274  0.0808 -0.0796  0.0331
 1222ERGO    R217189   8.467   0.752   6.459  0.0562  0.0644 -0.1083
 1222ERGO    R317190   8.199   0.754   6.505  0.0802 -0.0906  0.0420
 1222ERGO    R417191   8.317   0.877   6.744  0.1323  0.1822 -0.1190
 1222ERGO    R517192   8.179   0.708   6.740  0.2479  0.0781  0.0921
 1222ERGO    C117193   7.978   0.950   6.954  0.1991  0.1052  0.0159
 1222ERGO    C217194   7.752   1.132   7.254  0.0565 -0.0726  0.1837
 1223ERGO   ROH17195   8.377   0.058   6.255 -0.0261 -0.1785 -0.0538
 1223ERGO    R117196   8.403   0.140   6.525 -0.0498 -0.1146 -0.0717
 1223ERGO    R217197   8.649   0.188   6.643 -0.0442 -0.3738  0.0184
 1223ERGO    R317198   8.537   0.428   6.702  0.2225 -0.2104 -0.1130
 1223ERGO    R417199   8.703   0.365   6.935 -0.0676 -0.4214  0.0530
 1223ERGO    R517200   8.492   0.417   6.937 -0.0103 -0.1328 -0.1476
 1223ERGO    C117201   8.629   0.694   7.160  0.1690 -0.2957 -0.0502
 1223ERGO    C217202   8.826   0.928   7.301 -0.0512  0.1105  0.0587
 1224ERGO   ROH17203  17.327   8.677   6.234 -0.1146  0.2032 -0.2448
 1224ERGO    R117204  17.230   8.595   6.487  0.0957  0.0735 -0.2041
 1224ERGO    R217205  17.392   8.580   6.711  0.2238  0.2212 -0.2859
 1224ERGO    R317206  17.202   8.741   6.819  0.1041  0.0105 -0.1752
 1224ERGO    R417207  17.322   8.603   7.048  0.5205  0.2685 -0.2253
 1224ERGO    R517208  17.110   8.612   6.999  0.4528 -0.0432 -0.0262
 1224ERGO    C117209  17.103   8.768   7.347  0.5807  0.0981 -0.0861
 1224ERGO    C217210  17.028   8.695   7.687  0.2356  0.1296 -0.1854
 1225ERGO   ROH17211   8.517   3.199   6.079  0.0529 -0.2141  0.0762
 1225ERGO    R117212   8.604   3.132   6.340  0.0015 -0.1185  0.1182
 1225ERGO    R217213   8.763   3.300   6.491  0.0184 -0.0891  0.0641
 1225ERGO    R317214   8.565   3.269   6.675 -0.0121  0.0389  0.0542
 1225ERGO    R417215   8.800   3.349   6.831  0.0610 -0.1846  0.0734
 1225ERGO    R517216   8.675   3.173   6.865 -0.0885 -0.0916  0.0370
 1225ERGO    C117217   8.636   3.348   7.202  0.0571 -0.1202  0.0694
 1225ERGO    C217218   8.667   3.375   7.524  0.1707 -0.2588 -0.0750
 1226ERGO   ROH17219  17.547  11.722   5.789 -0.1953 -0.1221 -0.0473
 1226ERGO    R117220  17.714  11.640   6.002 -0.1812 -0.1057 -0.0526
 1226ERGO    R217221  17.697  11.750   6.254 -0.1381 -0.0599 -0.0720
 1226ERGO    R317222  17.670  11.490   6.330 -0.1604 -0.0430 -0.0203
 1226ERGO    R417223  17.768  11.628   6.570 -0.1424 -0.0000 -0.0475
 1226ERGO    R517224  17.855  11.451   6.477 -0.1591 -0.0286 -0.0152
 1226ERGO    C117225  17.783  11.314   6.825 -0.1660  0.0507  0.0154
 1226ERGO    C217226  17.753  11.324   7.168  0.1538  0.2124  0.1435
 1227ERGO   ROH17227  18.442   1.820   6.378  0.0924  0.0437 -0.0021
 1227ERGO    R117228  18.322   1.658   6.576  0.0514 -0.0132 -0.0744
 1227ERGO    R217229  18.400   1.397   6.624  0.2528  0.0770  0.0727
 1227ERGO    R317230  18.429   1.487   6.879 -0.0812  0.1728  0.0827
 1227ERGO    R417231  18.420   1.195   6.903  0.4105  0.1418  0.1108
 1227ERGO    R517232  18.295   1.338   7.009  0.0777 -0.0507  0.0057
 1227ERGO    C117233  18.458   1.160   7.305  0.1886  0.2695  0.1423
 1227ERGO    C217234  18.482   1.130   7.610 -0.4678 -0.0396 -0.1273
 1228ERGO   ROH17235  18.169   3.585   6.255 -0.0989 -0.1858 -0.0810
 1228ERGO    R117236  18.252   3.395   6.448  0.0309 -0.0798 -0.0306
 1228ERGO    R217237  18.424   3.458   6.655  0.0504  0.0727 -0.0918
 1228ERGO    R317238  18.224   3.355   6.808  0.1308  0.0369 -0.0097
 1228ERGO    R417239  18.465   3.219   6.901  0.1953  0.0988 -0.0896
 1228ERGO    R517240  18.280   3.125   6.834  0.1925  0.0521 -0.0138
 1228ERGO    C117241  18.301   2.983   7.188  0.3554  0.0804 -0.0111
 1228ERGO    C217242  18.225   2.789   7.408  0.1973 -0.2189  0.3118
 1229ERGO   ROH17243  11.366  10.096   6.284 -0.1819 -0.1276  0.0418
 1229ERGO    R117244  11.463  10.093   6.550 -0.1672 -0.0862  0.0365
 1229ERGO    R217245  11.315  10.186   6.764 -0.1796 -0.1122  0.0367
 1229ERGO    R317246  11.365   9.939   6.866 -0.1097 -0.0924  0.0521
 1229ERGO    R417247  11.302  10.106   7.099 -0.2599 -0.1170  0.0332
 1229ERGO    R517248  11.480   9.983   7.071 -0.1965 -0.0427  0.0925
 1229ERGO    C117249  11.342   9.827   7.391 -0.2411 -0.1013  0.0456
 1229ERGO    C217250  11.107   9.857   7.576 -0.1515  0.2382 -0.2058
 1230ERGO   ROH17251   3.425  17.851   5.628  0.0679 -0.0613 -0.0729
 1230ERGO    R117252   3.555  18.043   5.790  0.0903 -0.0047 -0.1573
 1230ERGO    R217253   3.571  18.020   6.065  0.1071  0.1037 -0.1512
 1230ERGO    R317254   3.837  18.047   6.020  0.1062  0.0721 -0.1758
 1230ERGO    R417255   3.808  18.069   6.312  0.1219  0.1197 -0.1689
 1230ERGO    R517256   3.908  18.211   6.180  0.1277  0.0934 -0.2018
 1230ERGO    C117257   4.196  18.123   6.413  0.1296  0.0994 -0.2023
 1230ERGO    C217258   4.324  18.127   6.766 -0.0075 -0.4522  0.0887
 1231ERGO   ROH17259   5.867   4.481   5.852 -0.0457  0.0977 -0.0770
 1231ERGO    R117260   5.925   4.517   6.127  0.0050 -0.1065 -0.0595
 1231ERGO    R217261   5.743   4.627   6.304  0.1468  0.0441 -0.0088
 1231ERGO    R317262   5.790   4.398   6.443 -0.1455 -0.0849 -0.1136
 1231ERGO    R417263   5.743   4.601   6.649  0.3384 -0.0526 -0.0143
 1231ERGO    R517264   5.915   4.469   6.634  0.1121 -0.3487 -0.1740
 1231ERGO    C117265   5.787   4.371   6.980  0.1755 -0.2300 -0.1160
 1231ERGO    C217266   5.680   4.450   7.299  0.0214 -0.0892 -0.0117
 1232ERGO   ROH17267   1.674  18.678   5.844  0.0604  0.2851 -0.1407
 1232ERGO    R117268   1.717  18.546   6.091 -0.0772  0.2625 -0.1274
 1232ERGO    R217269   1.849  18.665   6.302 -0.0091  0.1703 -0.1149
 1232ERGO    R317270   1.624  18.598   6.439 -0.0834  0.3564 -0.1434
 1232ERGO    R417271   1.776  18.768   6.624  0.1346  0.0587 -0.0453
 1232ERGO    R517272   1.698  18.568   6.665 -0.1046  0.1245 -0.1662
 1232ERGO    C117273   1.521  18.765   6.939  0.1485  0.1684 -0.0316
 1232ERGO    C217274   1.463  18.871   7.280  0.2347 -0.1810 -0.0171
 1233ERGO   ROH17275   6.600   5.244   5.863  0.1488 -0.0072  0.3556
 1233ERGO    R117276   6.339   5.352   5.877  0.1521  0.0797 -0.0932
 1233ERGO    R217277   6.199   5.374   6.114 -0.3126 -0.0103 -0.3410
 1233ERGO    R317278   6.178   5.635   6.040 -0.0625  0.0408 -0.2367
 1233ERGO    R417279   5.929   5.578   6.184 -0.1121  0.2338 -0.2635
 1233ERGO    R517280   5.947   5.662   5.983 -0.0340  0.2940 -0.2241
 1233ERGO    C117281   5.751   5.941   6.154  0.2394  0.4239 -0.1204
 1233ERGO    C217282   5.552   6.215   6.449  0.0814  0.0911  0.0006
 1234ERGO   ROH17283   8.294  13.563   6.316  0.1672  0.2852  0.3503
 1234ERGO    R117284   8.347  13.303   6.416  0.1566  0.1918  0.1213
 1234ERGO    R217285   8.591  13.233   6.526  0.1349  0.1023  0.1153
 1234ERGO    R317286   8.438  13.157   6.737  0.0873 -0.1040  0.0094
 1234ERGO    R417287   8.710  13.072   6.808  0.0996 -0.0272  0.0567
 1234ERGO    R517288   8.531  12.947   6.806  0.1554 -0.1073 -0.0920
 1234ERGO    C117289   8.635  12.908   7.170  0.0343 -0.2962 -0.0770
 1234ERGO    C217290   8.779  12.758   7.380  0.1086 -0.1879  0.0895
 1235ERGO   ROH17291   7.110  18.821   5.929  0.0586  0.1053 -0.0405
 1235ERGO    R117292   6.998  18.752   6.180  0.0415  0.0324 -0.0681
 1235ERGO    R217293   7.135  18.603   6.368  0.0626  0.0555 -0.0673
 1235ERGO    R317294   7.077  18.814   6.530 -0.0378  0.0129 -0.0461
 1235ERGO    R417295   7.220  18.625   6.702  0.1380  0.1013 -0.0891
 1235ERGO    R517296   7.026  18.714   6.741  0.0855 -0.0311 -0.0344
 1235ERGO    C117297   7.216  18.836   7.049  0.0877  0.0880 -0.0820
 1235ERGO    C217298   7.333  18.759   7.179  0.2965 -0.0631  0.0069
 1236ERGO   ROH17299  15.586  12.449   6.472 -0.0236  0.3408 -0.0431
 1236ERGO    R117300  15.628  12.361   6.738 -0.0880 -0.1201 -0.1765
 1236ERGO    R217301  15.590  12.525   6.956  0.6369 -0.2296  0.0560
 1236ERGO    R317302  15.427  12.324   7.039  0.0195  0.1950 -0.0616
 1236ERGO    R417303  15.515  12.455   7.287  0.6596 -0.3550  0.0348
 1236ERGO    R517304  15.530  12.242   7.239 -0.0771 -0.3799 -0.2259
 1236ERGO    C117305  15.319  12.225   7.556  0.0931 -0.0296 -0.0880
 1236ERGO    C217306  15.304  12.228   7.910 -0.0796 -0.0792 -0.2332
 1237ERGO   ROH17307   3.963   7.246   5.975 -0.0520  0.1209  0.1505
 1237ERGO    R117308   3.870   7.161   6.228 -0.1564  0.1533  0.1224
 1237ERGO    R217309   4.038   7.055   6.421 -0.2910 -0.1526  0.0699
 1237ERGO    R317310   3.930   7.251   6.575 -0.0123 -0.0608  0.1571
 1237ERGO    R417311   4.100   7.098   6.758 -0.1006 -0.3040  0.0569
 1237ERGO    R517312   3.890   7.145   6.786 -0.0465 -0.0713  0.1510
 1237ERGO    C117313   4.035   7.307   7.100  0.2719 -0.3061  0.1311
 1237ERGO    C217314   4.035   7.574   7.382 -0.1158  0.1561  0.2207
 1238ERGO   ROH17315  15.738   7.902   6.110  0.0077 -0.1686 -0.0558
 1238ERGO    R117316  15.674   8.085   6.316 -0.0741 -0.1479 -0.0993
 1238ERGO    R217317  15.584   8.004   6.564 -0.0217 -0.1299 -0.0748
 1238ERGO    R317318  15.792   8.156   6.653 -0.0932 -0.0029 -0.1223
 1238ERGO    R417319  15.585   8.186   6.858 -0.0473 -0.1745 -0.0469
 1238ERGO    R517320  15.687   8.347   6.752 -0.1904 -0.0877 -0.0582
 1238ERGO    C117321  15.779   8.435   7.112 -0.1291 -0.0813 -0.0752
 1238ERGO    C217322  15.918   8.474   7.383 -0.0194  0.2978 -0.4111
 1239ERGO   ROH17323   8.750  15.186   5.717  0.1794  0.1505 -0.1295
 1239ERGO    R117324   8.912  15.310   5.913  0.1068  0.3829 -0.2120
 1239ERGO    R217325   8.924  15.585   5.946 -0.4152  0.4036 -0.0950
 1239ERGO    R317326   8.860  15.524   6.203 -0.0790  0.1443 -0.0657
 1239ERGO    R417327   8.939  15.805   6.212 -0.5654  0.2868  0.0117
 1239ERGO    R517328   9.019  15.644   6.334 -0.1683  0.3529 -0.1459
 1239ERGO    C117329   8.888  15.876   6.608 -0.3373 -0.0246  0.1015
 1239ERGO    C217330   8.996  16.034   6.907  0.1223 -0.1963  0.0883
 1240ERGO   ROH17331  18.629   8.522   6.251 -0.1451  0.0116 -0.0033
 1240ERGO    R117332  18.709   8.392   6.490 -0.2482 -0.1328 -0.0448
 1240ERGO    R217333  18.773   8.531   6.720  0.1083 -0.2388 -0.0702
 1240ERGO    R317334  18.587   8.367   6.832 -0.1268  0.0790  0.0151
 1240ERGO    R417335  18.781   8.419   7.047  0.1330 -0.3502 -0.1089
 1240ERGO    R517336  18.714   8.224   6.976 -0.2925 -0.2079 -0.1198
 1240ERGO    C117337  18.610   8.201   7.343 -0.0735 -0.1166 -0.0512
 1240ERGO    C217338  18.565   8.108   7.533 -0.1687  0.2685  0.2029
 1241ERGO   ROH17339   4.093  11.722   6.068 -0.1381  0.2465  0.0391
 1241ERGO    R117340   4.237  11.724   6.312 -0.1172  0.1384  0.0283
 1241ERGO    R217341   4.112  11.717   6.558 -0.0995  0.1203  0.0360
 1241ERGO    R317342   4.275  11.503   6.599 -0.1679  0.0551 -0.0285
 1241ERGO    R417343   4.168  11.566   6.864  0.2060  0.3020  0.0744
 1241ERGO    R517344   4.378  11.546   6.811  0.1310  0.1467 -0.1856
 1241ERGO    C117345   4.353  11.277   7.080  0.3197  0.3468  0.0361
 1241ERGO    C217346   4.342  11.107   7.315  0.0282  0.2091  0.2866
 1242ERGO   ROH17347  17.684  12.716   6.085 -0.2090  0.1087  0.2237
 1242ERGO    R117348  17.601  12.977   6.153 -0.2169  0.1041  0.2324
 1242ERGO    R217349  17.417  13.028   6.353 -0.0755  0.0993  0.3682
 1242ERGO    R317350  17.613  13.190   6.449 -0.0328  0.1668  0.1816
 1242ERGO    R417351  17.374  13.267   6.600  0.0349  0.2492  0.2443
 1242ERGO    R517352  17.504  13.400   6.486 -0.0200  0.1876  0.1034
 1242ERGO    C117353  17.534  13.558   6.832  0.1394  0.3997 -0.0030
 1242ERGO    C217354  17.372  13.911   7.058 -0.3715  0.0689 -0.1529
 1243ERGO   ROH17355  12.500  18.537   6.175 -0.0843  0.3104  0.0118
 1243ERGO    R117356  12.642  18.546   6.420  0.0177  0.2076 -0.0417
 1243ERGO    R217357  12.518  18.513   6.665  0.0999  0.2182  0.0028
 1243ERGO    R317358  12.706  18.319   6.698  0.0305  0.1316 -0.1070
 1243ERGO    R417359  12.627  18.392   6.970  0.1235  0.0685 -0.0643
 1243ERGO    R517360  12.830  18.388   6.890  0.1030  0.0147 -0.1118
 1243ERGO    C117361  12.867  18.140   7.178  0.0720 -0.1003 -0.2066
 1243ERGO    C217362  13.008  18.037   7.377  0.3077  0.0274  0.0234
 1244ERGO   ROH17363   5.256  13.747   5.863 -0.2183  0.0498  0.1009
 1244ERGO    R117364   5.178  13.815   6.126 -0.1790 -0.2697  0.1985
 1244ERGO    R217365   5.257  13.668   6.347  0.3452 -0.2048  0.0667
 1244ERGO    R317366   5.344  13.910   6.436 -0.1567 -0.0296  0.1143
 1244ERGO    R417367   5.300  13.752   6.679  0.3635 -0.2543  0.0767
 1244ERGO    R517368   5.217  13.949   6.635 -0.1285 -0.4156  0.2162
 1244ERGO    C117369   5.407  14.028   6.956 -0.0969 -0.1187  0.1271
 1244ERGO    C217370   5.503  14.055   7.282  0.1820  0.2004 -0.0668
 1245ERGO   ROH17371   6.095  18.090   5.940  0.1258 -0.2363 -0.2716
 1245ERGO    R117372   6.131  18.285   6.142  0.2514 -0.1250 -0.3997
 1245ERGO    R217373   5.978  18.290   6.372  0.0991  0.2592 -0.5041
 1245ERGO    R317374   6.221  18.287   6.495  0.0158  0.0255 -0.3370
 1245ERGO    R417375   6.031  18.349   6.709 -0.0711  0.2884 -0.4816
 1245ERGO    R517376   6.209  18.463   6.656  0.0940  0.0837 -0.3914
 1245ERGO    C117377   6.289  18.380   7.020 -0.2484  0.0859 -0.3116
 1245ERGO    C217378   6.431  18.400   7.366  0.3267  0.0247  0.0748
 1246ERGO   ROH17379  10.094  14.106   5.989 -0.3299 -0.0710  0.1468
 1246ERGO    R117380  10.064  14.000   6.250 -0.1707 -0.0315  0.1815
 1246ERGO    R217381  10.089  13.730   6.305 -0.1230 -0.0186  0.2085
 1246ERGO    R317382  10.272  13.818   6.487 -0.0215  0.0180  0.0913
 1246ERGO    R417383  10.152  13.580   6.610  0.0166  0.0601  0.2203
 1246ERGO    R517384  10.168  13.778   6.699  0.0800  0.0867  0.1570
 1246ERGO    C117385  10.360  13.574   6.958  0.1933  0.1403  0.1172
 1246ERGO    C217386  10.531  13.531   7.215  0.2187 -0.2228  0.1995
 1247ERGO   ROH17387   8.877  12.299   6.177 -0.1238 -0.2123 -0.1755
 1247ERGO    R117388   8.747  12.277   6.428 -0.2243 -0.0708 -0.2140
 1247ERGO    R217389   8.563  12.078   6.483 -0.0397 -0.2080 -0.0861
 1247ERGO    R317390   8.727  12.031   6.695 -0.0906  0.2016  0.0541
 1247ERGO    R417391   8.465  11.931   6.780  0.0394 -0.3366 -0.1231
 1247ERGO    R517392   8.590  12.074   6.887 -0.3386 -0.0298 -0.0621
 1247ERGO    C117393   8.561  11.801   7.152  0.0376 -0.0269 -0.0132
 1247ERGO    C217394   8.580  11.485   7.173  0.0902  0.0808  0.1841
 1248ERGO   ROH17395   5.624   1.671   6.006 -0.1454 -0.0274  0.1403
 1248ERGO    R117396   5.488   1.770   6.233 -0.2487 -0.0572  0.0913
 1248ERGO    R217397   5.371   1.604   6.421 -0.0391 -0.0896  0.1942
 1248ERGO    R317398   5.524   1.747   6.594 -0.1953  0.1951  0.1044
 1248ERGO    R417399   5.348   1.584   6.765  0.2399 -0.1882  0.2097
 1248ERGO    R517400   5.374   1.801   6.774 -0.1853 -0.1281  0.2176
 1248ERGO    C117401   5.478   1.707   7.129  0.2557  0.0217  0.1344
 1248ERGO    C217402   5.530   1.481   7.306  0.2095  0.0012 -0.2999
 1249ERGO   ROH17403   1.468   4.945   6.015  0.0459 -0.0710 -0.0524
 1249ERGO    R117404   1.281   5.005   6.219  0.0170 -0.0095 -0.0972
 1249ERGO    R217405   1.335   4.964   6.487 -0.1102 -0.1516 -0.0941
 1249ERGO    R317406   1.268   5.227   6.508  0.0772 -0.1082 -0.0173
 1249ERGO    R417407   1.217   5.115   6.775  0.0379 -0.1451 -0.0358
 1249ERGO    R517408   1.076   5.227   6.652  0.0966 -0.0128  0.0117
 1249ERGO    C117409   1.085   5.449   6.962  0.2999 -0.1005  0.0702
 1249ERGO    C217410   1.144   5.745   7.218 -0.0269 -0.0330  0.0682
 1250ERGO   ROH17411  10.228  14.718   5.956 -0.2868 -0.0154  0.0215
 1250ERGO    R117412  10.328  14.881   6.165 -0.1418  0.1030 -0.1383
 1250ERGO    R217413  10.411  14.777   6.408 -0.2349  0.2677 -0.0394
 1250ERGO    R317414  10.640  14.911   6.350 -0.1127  0.0104 -0.1689
 1250ERGO    R417415  10.667  14.838   6.632 -0.3348  0.5315  0.0075
 1250ERGO    R517416  10.687  15.037   6.547 -0.1570  0.3670 -0.3740
 1250ERGO    C117417  11.032  14.999   6.707 -0.2783  0.4437 -0.0867
 1250ERGO    C217418  11.293  15.148   6.912  0.2050 -0.0058 -0.0295
 1251ERGO   ROH17419  11.858  17.847   6.100 -0.0633  0.0135  0.0049
 1251ERGO    R117420  11.875  17.882   6.381 -0.0945  0.0623  0.0033
 1251ERGO    R217421  11.705  17.752   6.557 -0.1148  0.0799  0.0162
 1251ERGO    R317422  11.938  17.670   6.670 -0.1181  0.1087  0.0380
 1251ERGO    R417423  11.743  17.656   6.887 -0.0868  0.1872  0.0427
 1251ERGO    R517424  11.933  17.761   6.891 -0.0941  0.1730  0.0011
 1251ERGO    C117425  11.984  17.523   7.185 -0.0736  0.2766  0.0785
 1251ERGO    C217426  11.976  17.382   7.422  0.2202 -0.1012 -0.0537
 1252ERGO   ROH17427   3.342  16.917   5.719 -0.0808  0.2852 -0.0331
 1252ERGO    R117428   3.379  16.873   5.996  0.0709  0.2280 -0.0613
 1252ERGO    R217429   3.410  17.079   6.177  0.0065  0.1974 -0.0131
 1252ERGO    R317430   3.203  16.957   6.303  0.1448  0.0153  0.0408
 1252ERGO    R417431   3.392  17.023   6.518  0.1835  0.0946 -0.0197
 1252ERGO    R517432   3.307  16.827   6.476  0.3076  0.0443 -0.0348
 1252ERGO    C117433   3.187  16.875   6.834  0.4164 -0.1364  0.0271
 1252ERGO    C217434   3.265  16.957   7.081 -0.1349 -0.2569  0.1986
 1253ERGO   ROH17435   7.685  15.856   5.838  0.1248 -0.0755 -0.0200
 1253ERGO    R117436   7.584  15.898   6.099  0.1264 -0.0059 -0.0298
 1253ERGO    R217437   7.502  15.690   6.262 -0.0109  0.0455 -0.0266
 1253ERGO    R317438   7.677  15.801   6.437  0.0426 -0.0495 -0.0198
 1253ERGO    R417439   7.447  15.725   6.601 -0.1044  0.2992 -0.0665
 1253ERGO    R517440   7.539  15.922   6.591  0.1168  0.1907 -0.1414
 1253ERGO    C117441   7.579  15.851   6.963 -0.1085  0.3579 -0.0835
 1253ERGO    C217442   7.635  16.043   7.269 -0.3510 -0.0390 -0.0754
 1254ERGO   ROH17443  10.983  16.716   5.793 -0.0976 -0.0157  0.1322
 1254ERGO    R117444  11.006  16.764   6.071  0.0608 -0.0606  0.1276
 1254ERGO    R217445  10.887  16.602   6.261  0.0260  0.0078  0.1627
 1254ERGO    R317446  11.140  16.587   6.360  0.0597 -0.1879  0.0515
 1254ERGO    R417447  10.981  16.413   6.535 -0.0941  0.2589  0.3810
 1254ERGO    R517448  11.110  16.577   6.597  0.1602  0.1836  0.0871
 1254ERGO    C117449  11.272  16.289   6.787 -0.1323  0.2215  0.4039
 1254ERGO    C217450  11.337  15.971   6.985 -0.0083 -0.2492 -0.1281
 1255ERGO   ROH17451   8.348   4.090   5.813 -0.2542 -0.1165 -0.1268
 1255ERGO    R117452   8.309   4.271   6.028 -0.0873 -0.0259 -0.1714
 1255ERGO    R217453   8.058   4.355   6.107 -0.0181  0.0911 -0.0820
 1255ERGO    R317454   8.140   4.265   6.351  0.0642  0.1506 -0.0868
 1255ERGO    R417455   7.949   4.480   6.411 -0.0844  0.0221 -0.0768
 1255ERGO    R517456   8.153   4.463   6.485 -0.0637  0.1654 -0.0917
 1255ERGO    C117457   7.962   4.468   6.816 -0.0458  0.0377 -0.0783
 1255ERGO    C217458   7.736   4.517   7.052  0.0597  0.2545 -0.2199
 1256ERGO   ROH17459  10.753   5.399   6.402 -0.1140 -0.0648 -0.0367
 1256ERGO    R117460  10.690   5.383   6.677 -0.0294 -0.0779 -0.0182
 1256ERGO    R217461  10.789   5.183   6.841 -0.0148 -0.1100 -0.0688
 1256ERGO    R317462  10.874   5.393   6.991  0.0718 -0.1400 -0.0743
 1256ERGO    R417463  10.795   5.190   7.186 -0.0438 -0.0934 -0.0683
 1256ERGO    R517464  10.725   5.396   7.179  0.0542 -0.0589 -0.0875
 1256ERGO    C117465  10.877   5.390   7.529  0.0206 -0.1118 -0.0732
 1256ERGO    C217466  10.917   5.322   7.958  0.0662 -0.0372  0.0906
 1257ERGO   ROH17467  18.127   4.882   6.192  0.1729  0.1175 -0.2023
 1257ERGO    R117468  18.198   4.972   6.451 -0.0846  0.2214 -0.1675
 1257ERGO    R217469  18.010   5.014   6.650 -0.2261 -0.2756 -0.1963
 1257ERGO    R317470  18.170   4.845   6.791  0.1567  0.0639 -0.2015
 1257ERGO    R417471  17.973   4.939   6.986 -0.1346 -0.4319 -0.2182
 1257ERGO    R517472  18.190   4.947   7.007 -0.1352  0.0804 -0.1712
 1257ERGO    C117473  18.102   4.737   7.313  0.2781 -0.2041 -0.2356
 1257ERGO    C217474  18.309   4.438   7.512 -0.0153 -0.0171 -0.1909
 1258ERGO   ROH17475   5.271  10.900   5.917  0.0798 -0.0458 -0.0332
 1258ERGO    R117476   5.065  10.860   6.107  0.0274 -0.2078 -0.1227
 1258ERGO    R217477   4.933  10.619   6.133  0.2988 -0.3602 -0.0885
 1258ERGO    R317478   5.009  10.642   6.393  0.1420 -0.1523 -0.0584
 1258ERGO    R417479   4.812  10.424   6.391  0.2163 -0.2100 -0.0120
 1258ERGO    R517480   4.807  10.602   6.517  0.0879 -0.1246 -0.1425
 1258ERGO    C117481   4.813  10.332   6.786  0.0210  0.0724  0.0608
 1258ERGO    C217482   4.736  10.257   7.098 -0.0008  0.3207  0.1762
 1259ERGO   ROH17483   4.184  11.299   5.941 -0.0008  0.1616  0.1031
 1259ERGO    R117484   4.200  11.280   6.223 -0.0217  0.1051  0.1005
 1259ERGO    R217485   3.980  11.223   6.380 -0.0274  0.0406  0.0707
 1259ERGO    R317486   4.140  11.024   6.474 -0.0063  0.0438  0.0416
 1259ERGO    R417487   3.940  11.065   6.685 -0.1137 -0.1296 -0.0269
 1259ERGO    R517488   4.157  11.067   6.709 -0.1260 -0.0715  0.0722
 1259ERGO    C117489   4.067  10.786   6.951 -0.1442 -0.2256 -0.1109
 1259ERGO    C217490   4.277  10.486   7.149  0.1526 -0.1430 -0.0716
 1260ERGO   ROH17491   1.963  16.005   5.437  0.2254 -0.0898  0.0332
 1260ERGO    R117492   1.872  16.066   5.698  0.1208 -0.0099 -0.0216
 1260ERGO    R217493   1.609  16.030   5.775  0.1083 -0.0623 -0.0930
 1260ERGO    R317494   1.722  15.883   5.975  0.0901  0.0579  0.0073
 1260ERGO    R417495   1.475  15.991   6.091 -0.0819 -0.1193 -0.1788
 1260ERGO    R517496   1.677  16.009   6.174 -0.1492  0.0551 -0.0412
 1260ERGO    C117497   1.503  15.831   6.463 -0.2097 -0.0397 -0.1346
 1260ERGO    C217498   1.168  15.669   6.697 -0.2533  0.1728 -0.3633
 1261ERGO   ROH17499  14.278  11.783   6.159  0.0487 -0.1653 -0.0130
 1261ERGO    R117500  14.430  11.628   6.341  0.2056 -0.0810 -0.0695
 1261ERGO    R217501  14.686  11.697   6.417  0.1446  0.1449 -0.0502
 1261ERGO    R317502  14.583  11.677   6.668  0.1638 -0.0413 -0.0566
 1261ERGO    R417503  14.875  11.657   6.704  0.1715  0.1041 -0.0741
 1261ERGO    R517504  14.725  11.516   6.776  0.2551 -0.0162 -0.1416
 1261ERGO    C117505  14.888  11.616   7.106  0.2054 -0.0944 -0.0939
 1261ERGO    C217506  15.110  11.836   7.339 -0.1073 -0.0010  0.0577
 1262ERGO   ROH17507   2.563   1.229   5.903  0.0204  0.2082  0.1533
 1262ERGO    R117508   2.598   1.133   6.168  0.1652  0.1656  0.1230
 1262ERGO    R217509   2.600   1.301   6.387  0.0161  0.1114  0.1829
 1262ERGO    R317510   2.405   1.134   6.476  0.2052 -0.1293  0.1483
 1262ERGO    R417511   2.500   1.272   6.717 -0.0809  0.0514  0.1459
 1262ERGO    R517512   2.485   1.057   6.688  0.2200  0.0294  0.1936
 1262ERGO    C117513   2.259   1.099   6.992  0.0401 -0.2097  0.0919
 1262ERGO    C217514   2.175   1.043   7.298  0.1519  0.2818  0.3030
 1263ERGO   ROH17515   9.977  15.625   5.646  0.0790  0.1091 -0.0671
 1263ERGO    R117516  10.059  15.688   5.910 -0.0135  0.0400 -0.0204
 1263ERGO    R217517   9.992  15.926   6.033 -0.1045 -0.0148  0.0411
 1263ERGO    R317518   9.896  15.761   6.227 -0.1255 -0.1031 -0.0444
 1263ERGO    R417519   9.981  16.003   6.370  0.0018 -0.2301  0.0946
 1263ERGO    R517520  10.042  15.798   6.413 -0.0695 -0.2825 -0.0522
 1263ERGO    C117521   9.885  15.892   6.748  0.0439 -0.4383  0.0455
 1263ERGO    C217522   9.913  15.923   6.989 -0.1268  0.0125 -0.2781
 1264ERGO   ROH17523  11.909  16.497   5.625  0.0249  0.0700 -0.0972
 1264ERGO    R117524  11.904  16.379   5.882 -0.0175  0.0890 -0.0886
 1264ERGO    R217525  11.983  16.118   5.928 -0.1384  0.0524 -0.0748
 1264ERGO    R317526  12.146  16.234   6.112 -0.0734 -0.0118 -0.0928
 1264ERGO    R417527  12.087  15.968   6.222  0.0312 -0.0826 -0.2021
 1264ERGO    R517528  12.060  16.160   6.323  0.0417 -0.1398 -0.0893
 1264ERGO    C117529  12.301  15.990   6.565  0.1911 -0.2215 -0.2933
 1264ERGO    C217530  12.473  15.823   6.711  0.0948 -0.0360  0.0000
 1265ERGO   ROH17531   9.650   6.986   6.110  0.0046  0.1897  0.0036
 1265ERGO    R117532   9.618   6.887   6.373 -0.0924  0.0109 -0.0733
 1265ERGO    R217533   9.642   7.048   6.597  0.2901 -0.2252  0.0679
 1265ERGO    R317534   9.395   6.950   6.654  0.1142  0.1871  0.0543
 1265ERGO    R417535   9.507   7.024   6.914  0.3079 -0.1810  0.0790
 1265ERGO    R517536   9.425   6.830   6.859 -0.0608 -0.0008 -0.0282
 1265ERGO    C117537   9.197   6.917   7.152  0.1531  0.2318  0.0728
 1265ERGO    C217538   9.203   6.882   7.574 -0.1524 -0.0082  0.0871
 1266ERGO   ROH17539   6.015  15.435   5.838  0.3537  0.2188 -0.0336
 1266ERGO    R117540   6.062  15.595   6.067  0.2556  0.2568 -0.0395
 1266ERGO    R217541   5.860  15.732   6.197  0.1844  0.2017 -0.0917
 1266ERGO    R317542   5.954  15.598   6.415  0.1871  0.2546 -0.0603
 1266ERGO    R417543   5.743  15.772   6.520  0.0707  0.1572 -0.1271
 1266ERGO    R517544   5.948  15.760   6.591  0.0574  0.2594 -0.0672
 1266ERGO    C117545   5.763  15.670   6.912  0.0070  0.1807 -0.1182
 1266ERGO    C217546   5.697  15.727   7.244  0.2121  0.2366 -0.0115
 1267ERGO   ROH17547  18.527  14.126   5.690  0.1695  0.1847 -0.0911
 1267ERGO    R117548  18.598  14.103   5.963  0.0005  0.0820 -0.0556
 1267ERGO    R217549  18.807  14.245   6.075  0.0284 -0.0811  0.0868
 1267ERGO    R317550  18.616  14.324   6.251 -0.0147  0.0102  0.0037
 1267ERGO    R417551  18.861  14.303   6.411 -0.0712 -0.0762  0.1031
 1267ERGO    R517552  18.670  14.207   6.453 -0.1339 -0.0013  0.0366
 1267ERGO    C117553  18.713  14.411   6.773 -0.1694  0.0123  0.0346
 1267ERGO    C217554  18.816  14.459   7.091 -0.3146 -0.1477 -0.0986
 1268ERGO   ROH17555   6.973  16.537   5.955  0.1081 -0.1884 -0.0177
 1268ERGO    R117556   7.090  16.692   6.160  0.0751 -0.1513 -0.0277
 1268ERGO    R217557   6.947  16.782   6.379  0.0454 -0.1278 -0.0598
 1268ERGO    R317558   7.144  16.658   6.519  0.0370 -0.0936 -0.0157
 1268ERGO    R417559   7.063  16.882   6.689  0.0407 -0.0337 -0.0874
 1268ERGO    R517560   7.265  16.837   6.622  0.0423 -0.0638 -0.0690
 1268ERGO    C117561   7.316  16.824   7.000  0.0301  0.0534 -0.0621
 1268ERGO    C217562   7.372  17.027   7.353  0.2000 -0.3231  0.0344
 1269ERGO   ROH17563  14.271   9.791   6.041  0.1519  0.1235 -0.0254
 1269ERGO    R117564  14.416   9.800   6.284  0.0157  0.1333  0.0565
 1269ERGO    R217565  14.305   9.889   6.521 -0.1634  0.0006  0.0230
 1269ERGO    R317566  14.388   9.648   6.614 -0.0779  0.0205 -0.0019
 1269ERGO    R417567  14.413   9.827   6.843 -0.2194 -0.0059  0.0406
 1269ERGO    R517568  14.569   9.699   6.762 -0.1382  0.0784  0.0552
 1269ERGO    C117569  14.555   9.564   7.118 -0.1717  0.0089  0.0275
 1269ERGO    C217570  14.589   9.713   7.402 -0.1447  0.1380  0.1143
 1270ERGO   ROH17571   9.567   9.995   5.961 -0.0257  0.3532  0.0227
 1270ERGO    R117572   9.439   9.932   6.205 -0.1997  0.1842 -0.1081
 1270ERGO    R217573   9.483  10.075   6.438  0.0254 -0.2737  0.1516
 1270ERGO    R317574   9.212  10.099   6.436  0.0629  0.2417  0.1120
 1270ERGO    R417575   9.284  10.099   6.720 -0.0116 -0.4332  0.1395
 1270ERGO    R517576   9.139   9.969   6.623 -0.2369  0.0180 -0.1540
 1270ERGO    C117577   8.914  10.136   6.882  0.0021 -0.0423  0.0954
 1270ERGO    C217578   8.629  10.210   7.106  0.1534  0.1278  0.1505
 1271ERGO   ROH17579   3.479   6.169   6.292 -0.1303  0.1606 -0.0061
 1271ERGO    R117580   3.355   6.230   6.539 -0.0100  0.0214  0.0905
 1271ERGO    R217581   3.409   6.091   6.771  0.2518  0.0165  0.0278
 1271ERGO    R317582   3.463   6.338   6.869  0.1332  0.0392  0.0395
 1271ERGO    R417583   3.425   6.170   7.107  0.3120 -0.0204  0.0340
 1271ERGO    R517584   3.322   6.358   7.062  0.1809 -0.0738  0.0894
 1271ERGO    C117585   3.486   6.449   7.395  0.2357 -0.0206  0.0485
 1271ERGO    C217586   3.530   6.497   7.683  0.0422  0.2077 -0.1739
 1272ERGO   ROH17587   7.292  11.919   5.894  0.0736  0.1174  0.0791
 1272ERGO    R117588   7.123  11.849   6.109  0.0901  0.0909  0.0835
 1272ERGO    R217589   7.215  11.721   6.336  0.1134  0.0934  0.0756
 1272ERGO    R317590   7.097  11.931   6.463  0.0951  0.0756  0.0874
 1272ERGO    R417591   7.156  11.738   6.676 -0.0365 -0.0017  0.0552
 1272ERGO    R517592   6.962  11.829   6.633 -0.0005  0.0472 -0.0042
 1272ERGO    C117593   7.010  11.945   6.993 -0.1410 -0.0738  0.0545
 1272ERGO    C217594   7.075  12.073   7.294  0.1761 -0.1371 -0.1149
 1273ERGO   ROH17595   0.807   9.527   6.345  0.3275  0.0984  0.1670
 1273ERGO    R117596   0.955   9.430   6.566  0.1514 -0.2290  0.1468
 1273ERGO    R217597   0.981   9.572   6.801  0.4763 -0.2857  0.1433
 1273ERGO    R317598   0.887   9.342   6.912 -0.0008 -0.1027  0.1528
 1273ERGO    R417599   0.930   9.523   7.140  0.2194 -0.1124  0.1334
 1273ERGO    R517600   1.009   9.321   7.117 -0.1297 -0.2766  0.2201
 1273ERGO    C117601   0.811   9.279   7.440 -0.3782  0.1602  0.1365
 1273ERGO    C217602   0.886   9.176   7.715  0.0536  0.0264 -0.1348
 1274ERGO   ROH17603  14.685   7.900   5.913  0.1923  0.0373 -0.0990
 1274ERGO    R117604  14.706   8.071   6.138 -0.0936  0.0721 -0.0945
 1274ERGO    R217605  14.505   8.096   6.325 -0.1242 -0.3068 -0.0655
 1274ERGO    R317606  14.703   8.033   6.499  0.0215  0.0477 -0.0965
 1274ERGO    R417607  14.493   8.151   6.666 -0.0823 -0.1538 -0.0887
 1274ERGO    R517608  14.702   8.212   6.658 -0.1660  0.1256 -0.1857
 1274ERGO    C117609  14.673   8.124   7.028  0.0789  0.2681 -0.1314
 1274ERGO    C217610  14.693   8.132   7.358 -0.0894  0.1227  0.0370
 1275ERGO   ROH17611   3.257  13.235   5.885 -0.1817  0.1109  0.0045
 1275ERGO    R117612   3.215  13.407   6.107 -0.1002  0.0698  0.0518
 1275ERGO    R217613   2.993  13.571   6.128 -0.0709  0.0940  0.1445
 1275ERGO    R317614   2.964  13.445   6.367 -0.0262  0.0502  0.1277
 1275ERGO    R417615   2.748  13.642   6.361 -0.2099 -0.1416  0.0746
 1275ERGO    R517616   2.897  13.617   6.518 -0.2303 -0.0158  0.1190
 1275ERGO    C117617   2.578  13.565   6.722 -0.2489 -0.3198  0.0180
 1275ERGO    C217618   2.397  13.407   6.883  0.1249  0.2098 -0.3327
 1276ERGO   ROH17619  14.075  18.778   5.968  0.6675 -0.1704  0.1231
 1276ERGO    R117620  14.181  18.874   6.212  0.3517 -0.1387  0.2514
 1276ERGO    R217621  14.026  19.004   6.401  0.0765 -0.2426  0.0972
 1276ERGO    R317622  14.125  18.812   6.566  0.0005 -0.2037  0.1895
 1276ERGO    R417623  14.013  19.014   6.746  0.1895  0.0025  0.0960
 1276ERGO    R517624  14.215  18.934   6.751  0.1432 -0.1339  0.0814
 1276ERGO    C117625  14.099  18.840   7.102  0.1839  0.1816  0.1821
 1276ERGO    C217626  14.186  18.699   7.308 -0.3739  0.0465 -0.1662
 1277ERGO   ROH17627   4.493  13.522   5.899 -0.0471  0.0593 -0.0931
 1277ERGO    R117628   4.574  13.411   6.147  0.0516  0.0788 -0.1159
 1277ERGO    R217629   4.779  13.518   6.298 -0.0769  0.2641 -0.0680
 1277ERGO    R317630   4.589  13.522   6.493 -0.1026  0.0041 -0.0846
 1277ERGO    R417631   4.843  13.550   6.636 -0.1508  0.3244 -0.0592
 1277ERGO    R517632   4.688  13.402   6.675  0.0367  0.1186 -0.0842
 1277ERGO    C117633   4.703  13.572   7.016 -0.2180  0.1154 -0.0696
 1277ERGO    C217634   4.776  13.527   7.291  0.5501  0.1538 -0.1408
 1278ERGO   ROH17635  14.497  17.463   5.949 -0.0451  0.1277  0.0796
 1278ERGO    R117636  14.518  17.584   6.204  0.0998  0.1183  0.0731
 1278ERGO    R217637  14.342  17.529   6.410  0.0605  0.3037  0.0916
 1278ERGO    R317638  14.570  17.471   6.547  0.0172  0.0787  0.0726
 1278ERGO    R417639  14.362  17.490   6.753  0.0628  0.3465  0.0963
 1278ERGO    R517640  14.552  17.598   6.749  0.1832  0.1386  0.0511
 1278ERGO    C117641  14.588  17.413   7.081  0.0236  0.1599  0.0812
 1278ERGO    C217642  14.701  17.141   7.241 -0.0633  0.2606  0.0508
 1279ERGO   ROH17643   8.997   5.576   6.161 -0.1728 -0.0956  0.1827
 1279ERGO    R117644   8.973   5.754   6.380 -0.0373 -0.0735  0.1811
 1279ERGO    R217645   8.766   5.739   6.562 -0.0603  0.0978  0.1730
 1279ERGO    R317646   8.968   5.727   6.743 -0.0764 -0.0684  0.1807
 1279ERGO    R417647   8.738   5.831   6.894  0.0212  0.1922  0.1532
 1279ERGO    R517648   8.937   5.922   6.879  0.1136 -0.0084  0.1408
 1279ERGO    C117649   8.912   5.874   7.257  0.0534  0.0911  0.1489
 1279ERGO    C217650   9.133   5.975   7.504 -0.0950 -0.0480  0.0155
 1280ERGO   ROH17651   7.593  18.017   5.976  0.2910 -0.0960 -0.1060
 1280ERGO    R117652   7.701  18.161   6.195  0.1324  0.0625 -0.1274
 1280ERGO    R217653   7.543  18.277   6.390 -0.0037 -0.0682 -0.1447
 1280ERGO    R317654   7.700  18.132   6.558  0.1513  0.1204 -0.1254
 1280ERGO    R417655   7.557  18.318   6.732 -0.1390 -0.1129 -0.1345
 1280ERGO    R517656   7.773  18.290   6.722 -0.1035  0.1842 -0.0815
 1280ERGO    C117657   7.712  18.206   7.090 -0.0724  0.0381 -0.1105
 1280ERGO    C217658   7.653  18.089   7.383 -0.0484 -0.1294  0.1559
 1281ERGO   ROH17659   3.677   1.037   5.738  0.2300 -0.1913 -0.0833
 1281ERGO    R117660   3.678   1.187   5.978  0.1443 -0.0574 -0.1643
 1281ERGO    R217661   3.451   1.223   6.132  0.0904 -0.0035 -0.2388
 1281ERGO    R317662   3.609   1.124   6.330  0.0587  0.1202 -0.1514
 1281ERGO    R417663   3.437   1.319   6.464 -0.1133  0.0028 -0.2481
 1281ERGO    R517664   3.654   1.312   6.470 -0.1247  0.1460 -0.1413
 1281ERGO    C117665   3.577   1.282   6.842 -0.2618  0.1226 -0.1715
 1281ERGO    C217666   3.507   1.581   7.111  0.2764  0.1348  0.2244
 1282ERGO   ROH17667   2.314   5.591   5.977 -0.0162 -0.1658  0.0642
 1282ERGO    R117668   2.175   5.530   6.216  0.0531  0.0157  0.1531
 1282ERGO    R217669   2.262   5.338   6.394 -0.0256 -0.0236  0.1510
 1282ERGO    R317670   2.245   5.542   6.572  0.2540  0.0370  0.1139
 1282ERGO    R417671   2.166   5.306   6.724 -0.0702  0.1722  0.1581
 1282ERGO    R517672   2.053   5.491   6.705  0.1809  0.3252  0.1253
 1282ERGO    C117673   2.093   5.479   7.084  0.1663  0.3432  0.1273
 1282ERGO    C217674   2.316   5.558   7.333 -0.1975  0.1612  0.2501
 1283ERGO   ROH17675   0.142  10.217   6.471 -0.1071 -0.1753  0.0892
 1283ERGO    R117676   0.014  10.112   6.700 -0.0650 -0.1428  0.1290
 1283ERGO    R217677   0.127  10.122   6.952 -0.0403 -0.0612  0.1199
 1283ERGO    R317678  -0.109  10.241   7.017 -0.0537 -0.0853  0.1081
 1283ERGO    R417679  -0.001  10.147   7.272 -0.0255  0.0046  0.1203
 1283ERGO    R517680  -0.198  10.105   7.192 -0.0193 -0.0489  0.1490
 1283ERGO    C117681  -0.296  10.273   7.520 -0.0293  0.0201  0.1095
 1283ERGO    C217682  -0.273  10.272   7.914 -0.1534 -0.1621 -0.1041
 1284ERGO   ROH17683  12.630   5.496   6.180  0.0061  0.2817 -0.0396
 1284ERGO    R117684  12.789   5.543   6.410 -0.2152  0.1013  0.1523
 1284ERGO    R217685  12.753   5.405   6.647 -0.1368 -0.4287 -0.1428
 1284ERGO    R317686  13.017   5.351   6.618 -0.0143  0.0728 -0.0847
 1284ERGO    R417687  12.969   5.332   6.906 -0.2323 -0.6849 -0.1295
 1284ERGO    R517688  13.120   5.454   6.807 -0.3370 -0.1851  0.2573
 1284ERGO    C117689  13.343   5.239   7.030 -0.1730 -0.3632 -0.0671
 1284ERGO    C217690  13.623   5.121   7.101 -0.0466 -0.3242 -0.0457
 1285ERGO   ROH17691  13.856   3.010   6.003 -0.0638 -0.2255 -0.0383
 1285ERGO    R117692  13.833   2.968   6.282  0.0149 -0.3390 -0.0489
 1285ERGO    R217693  14.011   2.814   6.425  0.3332 -0.0091 -0.0847
 1285ERGO    R317694  14.033   3.038   6.578 -0.1274  0.0072 -0.0275
 1285ERGO    R417695  14.051   2.815   6.769  0.4688 -0.0308 -0.0990
 1285ERGO    R517696  13.914   2.984   6.779  0.0676 -0.3420  0.0077
 1285ERGO    C117697  14.095   3.026   7.112  0.1154 -0.0281 -0.0535
 1285ERGO    C217698  14.194   3.306   7.434  0.3818  0.2176 -0.0987
 1286ERGO   ROH17699  10.736   1.145   5.992 -0.0756 -0.1473 -0.1409
 1286ERGO    R117700  10.515   1.087   6.159 -0.0293 -0.0457 -0.0426
 1286ERGO    R217701  10.543   0.972   6.409  0.0261 -0.0931 -0.0689
 1286ERGO    R317702  10.400   1.189   6.489  0.1841 -0.0221  0.0260
 1286ERGO    R417703  10.408   1.015   6.724 -0.3057 -0.3353 -0.1724
 1286ERGO    R517704  10.230   1.099   6.631 -0.0989 -0.0087 -0.2903
 1286ERGO    C117705  10.195   1.244   6.983 -0.3505 -0.4097 -0.1434
 1286ERGO    C217706  10.090   1.460   7.244  0.0233 -0.2467 -0.2331
 1287ERGO   ROH17707  12.144  14.755   5.902 -0.0465  0.0183 -0.1438
 1287ERGO    R117708  12.145  14.904   6.142  0.0603 -0.0526 -0.1010
 1287ERGO    R217709  11.917  15.023   6.245  0.1555  0.1075 -0.0883
 1287ERGO    R317710  11.984  14.882   6.468  0.0165 -0.0090 -0.1175
 1287ERGO    R417711  11.825  15.106   6.567 -0.1722 -0.1277 -0.1152
 1287ERGO    R517712  12.023  15.049   6.635 -0.2000 -0.0891  0.0259
 1287ERGO    C117713  11.833  15.023   6.964 -0.4936 -0.3741 -0.1584
 1287ERGO    C217714  11.735  14.985   7.296  0.2026 -0.0764  0.0512
 1288ERGO   ROH17715   0.685   8.023   6.093  0.0935  0.2024  0.0092
 1288ERGO    R117716   0.850   8.129   6.298  0.0216  0.1858  0.0768
 1288ERGO    R217717   0.786   8.360   6.435 -0.0884  0.1085  0.1592
 1288ERGO    R317718   0.817   8.200   6.653 -0.0614  0.0340  0.1007
 1288ERGO    R417719   0.821   8.473   6.760  0.0053  0.0015  0.1862
 1288ERGO    R517720   0.972   8.319   6.793 -0.0100 -0.0328  0.1017
 1288ERGO    C117721   0.871   8.388   7.154  0.0853 -0.1306  0.1470
 1288ERGO    C217722   0.691   8.335   7.493 -0.0428 -0.0501 -0.4106
 1289ERGO   ROH17723   1.288  17.044   5.632 -0.0100 -0.0361 -0.2460
 1289ERGO    R117724   1.236  17.151   5.888 -0.0642 -0.0481 -0.2519
 1289ERGO    R217725   1.221  16.994   6.115  0.0274 -0.0416 -0.2416
 1289ERGO    R317726   1.408  17.168   6.209 -0.0665  0.0686 -0.2563
 1289ERGO    R417727   1.254  17.087   6.446  0.0541 -0.0926 -0.2299
 1289ERGO    R517728   1.293  17.292   6.379 -0.1068 -0.0492 -0.1963
 1289ERGO    C117729   1.449  17.305   6.727 -0.0186 -0.0191 -0.2368
 1289ERGO    C217730   1.617  17.417   7.006 -0.0410  0.3680  0.1000
 1290ERGO   ROH17731   4.721  12.428   6.050 -0.1628 -0.2934  0.0614
 1290ERGO    R117732   4.910  12.431   6.261 -0.1613 -0.0436  0.0571
 1290ERGO    R217733   4.839  12.480   6.523 -0.2494 -0.2980  0.0757
 1290ERGO    R317734   4.967  12.244   6.568  0.1953 -0.0882 -0.0292
 1290ERGO    R417735   4.932  12.362   6.835 -0.2813 -0.3723  0.0583
 1290ERGO    R517736   5.119  12.292   6.747 -0.0488  0.0796  0.1478
 1290ERGO    C117737   5.106  12.072   7.058  0.1176 -0.2185 -0.0503
 1290ERGO    C217738   5.127  11.735   7.282 -0.0884  0.0429 -0.0419
 1291ERGO   ROH17739   3.592  15.526   5.703  0.1008 -0.0668 -0.0259
 1291ERGO    R117740   3.704  15.558   5.960 -0.0439 -0.0373  0.0335
 1291ERGO    R217741   3.926  15.716   6.007 -0.0585 -0.0536  0.1351
 1291ERGO    R317742   3.764  15.835   6.190 -0.1483 -0.0083  0.0280
 1291ERGO    R417743   4.024  15.816   6.323 -0.2211 -0.0408  0.1831
 1291ERGO    R517744   3.833  15.743   6.400 -0.2829 -0.0034  0.0796
 1291ERGO    C117745   3.928  15.986   6.678 -0.4001  0.0092  0.1104
 1291ERGO    C217746   3.828  16.136   6.865  0.0634 -0.1122  0.2921
 1292ERGO   ROH17747  10.725   9.128   6.381 -0.1694 -0.0548 -0.0046
 1292ERGO    R117748  10.807   9.053   6.642 -0.0905 -0.0694 -0.0311
 1292ERGO    R217749  10.833   9.236   6.848  0.1638 -0.0428 -0.0697
 1292ERGO    R317750  10.665   9.066   6.976  0.0890  0.1122  0.0368
 1292ERGO    R417751  10.845   9.160   7.185  0.2879 -0.0599 -0.0793
 1292ERGO    R517752  10.803   8.953   7.136  0.0717 -0.0124 -0.0478
 1292ERGO    C117753  10.695   8.956   7.501  0.2897  0.0756  0.0151
 1292ERGO    C217754  10.567   8.834   7.789  0.3791 -0.1502  0.1845
 1293ERGO   ROH17755  12.613   8.565   6.268  0.2701 -0.1014 -0.0402
 1293ERGO    R117756  12.531   8.669   6.518  0.1057  0.0073 -0.1379
 1293ERGO    R217757  12.266   8.715   6.580  0.0474 -0.1755 -0.2527
 1293ERGO    R317758  12.322   8.559   6.795  0.1169  0.0253 -0.1211
 1293ERGO    R417759  12.091   8.720   6.878 -0.0307 -0.0819 -0.2991
 1293ERGO    R517760  12.281   8.700   6.984 -0.0371  0.1407 -0.2357
 1293ERGO    C117761  12.042   8.575   7.253 -0.0111  0.1611 -0.2025
 1293ERGO    C217762  11.939   8.635   7.576 -0.1763 -0.1239  0.0745
 1294ERGO   ROH17763  12.106  12.471   6.033 -0.1713  0.0212  0.0193
 1294ERGO    R117764  12.127  12.437   6.314 -0.0490 -0.0551  0.0015
 1294ERGO    R217765  12.098  12.646   6.492 -0.0265 -0.1128  0.0747
 1294ERGO    R317766  11.911  12.483   6.603  0.0570 -0.1897  0.1034
 1294ERGO    R417767  11.935  12.707   6.790 -0.0900 -0.1228  0.0417
 1294ERGO    R517768  11.953  12.495   6.838  0.0278 -0.0986  0.1035
 1294ERGO    C117769  11.663  12.590   7.068 -0.0487 -0.2007  0.0494
 1294ERGO    C217770  11.451  12.789   7.338  0.1966  0.0821  0.1633
 1295ERGO   ROH17771   5.654  12.219   5.586 -0.1150 -0.1826 -0.0718
 1295ERGO    R117772   5.836  12.132   5.785 -0.1875 -0.1971 -0.0130
 1295ERGO    R217773   5.982  12.308   5.940 -0.0474 -0.2117 -0.1346
 1295ERGO    R317774   5.871  12.169   6.145 -0.1587  0.0166 -0.0346
 1295ERGO    R417775   6.084  12.327   6.270  0.0358 -0.1244 -0.1641
 1295ERGO    R517776   6.056  12.111   6.285 -0.1856 -0.0951 -0.0372
 1295ERGO    C117777   6.039  12.207   6.654 -0.0203  0.1408 -0.0873
 1295ERGO    C217778   6.067  12.238   7.024 -0.1204  0.0896  0.0277
 1296ERGO   ROH17779  12.306   9.613   6.257 -0.0547 -0.1920 -0.1099
 1296ERGO    R117780  12.140   9.734   6.451  0.0152 -0.1592 -0.0706
 1296ERGO    R217781  11.917   9.608   6.555  0.0111 -0.1112 -0.0256
 1296ERGO    R317782  12.037   9.663   6.793  0.0738 -0.1431 -0.0492
 1296ERGO    R417783  11.764   9.581   6.864  0.1013 -0.1862  0.0136
 1296ERGO    R517784  11.864   9.765   6.924  0.0992 -0.1858  0.0197
 1296ERGO    C117785  11.787   9.617   7.266  0.2128 -0.2598  0.0144
 1296ERGO    C217786  11.692   9.455   7.464 -0.1187  0.1190 -0.1467
 1297ERGO   ROH17787  16.568   4.544   6.796  0.0394  0.1192  0.0231
 1297ERGO    R117788  16.640   4.301   6.924 -0.0032  0.0276 -0.1242
 1297ERGO    R217789  16.793   4.108   6.800  0.1074  0.1516 -0.1840
 1297ERGO    R317790  16.949   4.135   7.020 -0.0375  0.0016 -0.0600
 1297ERGO    R417791  17.059   3.902   6.880  0.0755  0.1175 -0.1650
 1297ERGO    R517792  16.996   3.910   7.089 -0.0606 -0.0457 -0.1981
 1297ERGO    C117793  17.360   3.808   7.134 -0.0791 -0.0432 -0.0375
 1297ERGO    C217794  17.621   3.920   7.342  0.3025  0.1024 -0.1855
 1298ERGO   ROH17795  11.458   1.973   6.294  0.0626 -0.0881  0.1405
 1298ERGO    R117796  11.450   2.188   6.478  0.0161 -0.1230  0.1807
 1298ERGO    R217797  11.264   2.392   6.461  0.1191 -0.0314  0.0768
 1298ERGO    R317798  11.212   2.322   6.719 -0.1149 -0.0677  0.0205
 1298ERGO    R417799  11.075   2.578   6.683  0.3211  0.1758  0.0780
 1298ERGO    R517800  11.218   2.528   6.840  0.1692 -0.1331  0.1197
 1298ERGO    C117801  10.916   2.620   7.054  0.2190  0.2623  0.0258
 1298ERGO    C217802  10.597   2.557   7.078 -0.0759  0.3920 -0.0033
 1299ERGO   ROH17803   4.579   1.465   6.146  0.2184  0.0842 -0.1213
 1299ERGO    R117804   4.450   1.486   6.397  0.1096  0.0074 -0.1700
 1299ERGO    R217805   4.495   1.308   6.604  0.1031  0.0086 -0.1691
 1299ERGO    R317806   4.551   1.534   6.743 -0.0482  0.0200 -0.1245
 1299ERGO    R417807   4.511   1.329   6.948  0.1157 -0.0563 -0.1655
 1299ERGO    R517808   4.410   1.521   6.937 -0.0250 -0.1243 -0.1153
 1299ERGO    C117809   4.573   1.553   7.280 -0.0190 -0.0834 -0.1216
 1299ERGO    C217810   4.608   1.644   7.590  0.4263 -0.2272 -0.1409
 1300ERGO   ROH17811   6.566  17.984   6.060  0.1437  0.1806 -0.1239
 1300ERGO    R117812   6.427  17.945   6.304  0.0661  0.2163 -0.1623
 1300ERGO    R217813   6.491  17.744   6.482 -0.1667  0.0687 -0.2398
 1300ERGO    R317814   6.508  17.950   6.658  0.0193 -0.0234 -0.1471
 1300ERGO    R417815   6.428  17.719   6.820 -0.1312 -0.0360 -0.2403
 1300ERGO    R517816   6.327  17.912   6.811  0.0148  0.0463 -0.1360
 1300ERGO    C117817   6.406  17.898   7.184  0.0640 -0.1833 -0.1535
 1300ERGO    C217818   6.420  17.919   7.559  0.2662  0.4145 -0.2200
 1301ERGO   ROH17819  10.619  14.963   5.862 -0.1450  0.0611 -0.0594
 1301ERGO    R117820  10.670  15.208   5.995 -0.0839  0.0103  0.0129
 1301ERGO    R217821  10.479  15.407   6.018 -0.0281  0.0643  0.0491
 1301ERGO    R317822  10.536  15.385   6.283 -0.0603 -0.0295  0.0475
 1301ERGO    R417823  10.401  15.644   6.257 -0.1005 -0.0453  0.1342
 1301ERGO    R517824  10.595  15.607   6.350 -0.1089 -0.0475  0.1447
 1301ERGO    C117825  10.408  15.761   6.645 -0.1728 -0.1973  0.1823
 1301ERGO    C217826  10.375  15.754   6.878  0.0867 -0.2486 -0.0486
 1302ERGO   ROH17827   0.361   9.353   6.303 -0.0077  0.1764  0.1383
 1302ERGO    R117828   0.470   9.296   6.558  0.0366  0.0482  0.0924
 1302ERGO    R217829   0.408   9.444   6.783  0.0941 -0.0483  0.1763
 1302ERGO    R317830   0.342   9.201   6.885  0.0892 -0.0893  0.0734
 1302ERGO    R417831   0.430   9.356   7.117  0.2328 -0.2368  0.1181
 1302ERGO    R517832   0.504   9.161   7.055  0.1608 -0.2195 -0.0250
 1302ERGO    C117833   0.380   9.077   7.406  0.3091 -0.3852 -0.0125
 1302ERGO    C217834   0.395   9.183   7.659  0.1337 -0.2082  0.0392
 1303ERGO   ROH17835   7.704   0.879   5.883  0.1252 -0.0596  0.0064
 1303ERGO    R117836   7.650   0.791   6.147  0.2545 -0.1085  0.0171
 1303ERGO    R217837   7.832   0.816   6.352  0.1842  0.2819  0.0349
 1303ERGO    R317838   7.626   0.943   6.477 -0.0786 -0.0777 -0.0166
 1303ERGO    R417839   7.733   0.758   6.679  0.5444  0.4490  0.1799
 1303ERGO    R517840   7.525   0.773   6.613  0.4445 -0.1787  0.2777
 1303ERGO    C117841   7.481   0.844   6.985  0.5074  0.2088  0.2160
 1303ERGO    C217842   7.312   0.934   7.334  0.2257 -0.1573 -0.0287
 1304ERGO   ROH17843   8.703  18.528   5.918 -0.0097  0.1187  0.1813
 1304ERGO    R117844   8.646  18.443   6.182  0.1539  0.1017  0.2127
 1304ERGO    R217845   8.819  18.486   6.393  0.1895  0.2846  0.1530
 1304ERGO    R317846   8.600  18.600   6.507  0.1224  0.1069  0.2043
 1304ERGO    R417847   8.804  18.607   6.716  0.1739  0.3195  0.1388
 1304ERGO    R517848   8.604  18.524   6.733  0.2557  0.1453  0.2121
 1304ERGO    C117849   8.590  18.784   7.011  0.1019  0.1729  0.1788
 1304ERGO    C217850   8.331  18.985   7.288 -0.0105 -0.1333 -0.0070
 1305ERGO   ROH17851   7.177   8.790   6.164  0.1316 -0.0436  0.0927
 1305ERGO    R117852   7.148   8.641   6.403 -0.0709 -0.0982  0.0366
 1305ERGO    R217853   7.311   8.680   6.623 -0.0347 -0.3804  0.0639
 1305ERGO    R317854   7.074   8.712   6.752 -0.0067 -0.1318  0.0573
 1305ERGO    R417855   7.277   8.763   6.956  0.0399 -0.1973  0.0268
 1305ERGO    R517856   7.112   8.622   6.970 -0.0727 -0.0606  0.0984
 1305ERGO    C117857   7.035   8.842   7.272  0.1097  0.1428 -0.0011
 1305ERGO    C217858   7.080   9.189   7.466  0.1604  0.1587 -0.0177
 1306ERGO   ROH17859  17.663  17.812   5.926  0.0695  0.0420  0.1073
 1306ERGO    R117860  17.638  17.762   6.204 -0.0380  0.1282  0.1130
 1306ERGO    R217861  17.845  17.658   6.355 -0.1614 -0.0044  0.1843
 1306ERGO    R317862  17.801  17.879   6.509 -0.0166  0.0674  0.1266
 1306ERGO    R417863  17.911  17.680   6.694 -0.0145  0.0809  0.1519
 1306ERGO    R517864  17.725  17.791   6.718  0.0327  0.1626  0.1891
 1306ERGO    C117865  17.908  17.899   7.035  0.2071  0.1982  0.0787
 1306ERGO    C217866  17.858  17.956   7.456  0.2611  0.0217 -0.1600
 1307ERGO   ROH17867   8.199   1.639   6.206  0.0570 -0.3481  0.1032
 1307ERGO    R117868   8.354   1.804   6.376 -0.0142 -0.2410  0.0659
 1307ERGO    R217869   8.399   1.743   6.642 -0.1215 -0.0770  0.1260
 1307ERGO    R317870   8.659   1.770   6.571 -0.0937 -0.1207  0.2122
 1307ERGO    R417871   8.656   1.822   6.859 -0.1991  0.0253  0.1814
 1307ERGO    R517872   8.740   1.951   6.705 -0.1381 -0.0567  0.1493
 1307ERGO    C117873   9.051   1.892   6.918 -0.2180  0.0438  0.2947
 1307ERGO    C217874   9.314   1.779   7.025 -0.2374  0.0366 -0.3787
 1308ERGO   ROH17875   3.896   2.363   5.768 -0.0170 -0.1446  0.0642
 1308ERGO    R117876   3.761   2.309   6.010  0.1234 -0.3457  0.1021
 1308ERGO    R217877   3.887   2.200   6.230  0.3904 -0.0154  0.1304
 1308ERGO    R317878   3.786   2.418   6.357 -0.0463 -0.1691  0.0588
 1308ERGO    R417879   3.836   2.224   6.571  0.1884 -0.0483  0.1021
 1308ERGO    R517880   3.648   2.327   6.530  0.0293 -0.3778  0.0051
 1308ERGO    C117881   3.710   2.442   6.888 -0.3392 -0.2117  0.0184
 1308ERGO    C217882   3.583   2.639   7.164 -0.3307 -0.3502  0.1200
 1309ERGO   ROH17883  15.269  10.885   5.971  0.0796 -0.3036  0.0623
 1309ERGO    R117884  15.301  10.796   6.238  0.0335 -0.1715  0.1132
 1309ERGO    R217885  15.549  10.766   6.356  0.0203 -0.2177  0.1375
 1309ERGO    R317886  15.443  10.930   6.546  0.0860 -0.0635  0.0416
 1309ERGO    R417887  15.601  10.735   6.697 -0.2409 -0.2236  0.1782
 1309ERGO    R517888  15.392  10.784   6.728 -0.2049  0.0265  0.0331
 1309ERGO    C117889  15.532  10.871   7.072 -0.3313 -0.0821  0.1120
 1309ERGO    C217890  15.431  10.926   7.354  0.3661  0.0504  0.2797
 1310ERGO   ROH17891   0.388   3.339   6.428 -0.0891 -0.1368  0.0171
 1310ERGO    R117892   0.577   3.344   6.638 -0.1515 -0.0619  0.0711
 1310ERGO    R217893   0.531   3.223   6.882 -0.1062 -0.2283 -0.0052
 1310ERGO    R317894   0.766   3.098   6.829  0.0321  0.0212  0.0008
 1310ERGO    R417895   0.764   3.132   7.120 -0.1953 -0.3169  0.0497
 1310ERGO    R517896   0.922   3.195   6.984 -0.1487 -0.0276  0.2229
 1310ERGO    C117897   1.121   2.961   7.209 -0.1174 -0.1343  0.0874
 1310ERGO    C217898   1.314   2.721   7.119  0.2461  0.3216  0.0373
 1311ERGO   ROH17899  16.075  15.023   6.042 -0.2539 -0.1076 -0.1013
 1311ERGO    R117900  16.037  15.016   6.323 -0.1270  0.0014 -0.0804
 1311ERGO    R217901  15.993  14.781   6.461 -0.0533  0.0543  0.0326
 1311ERGO    R317902  16.205  14.866   6.609  0.0093  0.1229 -0.0949
 1311ERGO    R417903  16.061  14.680   6.784  0.0413  0.2520  0.0757
 1311ERGO    R517904  16.118  14.885   6.831  0.0854  0.2775 -0.0759
 1311ERGO    C117905  16.299  14.701   7.112  0.1555  0.4315 -0.0189
 1311ERGO    C217906  16.598  14.547   7.155 -0.1092  0.3431  0.3373
 1312ERGO   ROH17907  13.377  17.991   5.994 -0.0505 -0.0281 -0.0660
 1312ERGO    R117908  13.286  17.807   6.188 -0.2030  0.0433 -0.0706
 1312ERGO    R217909  13.456  17.639   6.327 -0.3499 -0.1439 -0.1251
 1312ERGO    R317910  13.337  17.750   6.544 -0.1967 -0.0517 -0.0847
 1312ERGO    R417911  13.508  17.539   6.653  0.0142  0.0938 -0.1030
 1312ERGO    R517912  13.295  17.565   6.690  0.0284  0.0182  0.0817
 1312ERGO    C117913  13.426  17.585   7.048  0.3698  0.3186 -0.0522
 1312ERGO    C217914  13.427  17.620   7.334  0.3128  0.1664  0.0288
 1313ERGO   ROH17915   9.546   0.725   7.141  0.1237  0.0663  0.1516
 1313ERGO    R117916   9.308   0.665   7.282 -0.0579 -0.0100 -0.1777
 1313ERGO    R217917   9.128   0.475   7.194  0.3462 -0.3981 -0.2062
 1313ERGO    R317918   9.164   0.373   7.443  0.0417  0.0591  0.0396
 1313ERGO    R417919   8.911   0.256   7.351  0.2938 -0.3289 -0.1814
 1313ERGO    R517920   8.943   0.365   7.537 -0.1083  0.0232 -0.3036
 1313ERGO    C117921   8.819   0.032   7.676 -0.0225  0.1405  0.0638
 1313ERGO    C217922   8.800  -0.315   7.684 -0.1150  0.0503  0.2245
 1314ERGO   ROH17923  15.500  17.872   5.949 -0.0896  0.0700  0.1792
 1314ERGO    R117924  15.706  17.735   6.087 -0.0357  0.0350  0.0654
 1314ERGO    R217925  15.919  17.866   6.204  0.0197  0.0045  0.0030
 1314ERGO    R317926  15.839  17.730   6.425  0.1060 -0.0368  0.0086
 1314ERGO    R417927  16.132  17.737   6.444  0.1073  0.0133 -0.0697
 1314ERGO    R517928  16.006  17.560   6.454  0.1433 -0.0093 -0.0562
 1314ERGO    C117929  16.181  17.534   6.792  0.2393 -0.0205 -0.1068
 1314ERGO    C217930  16.273  17.596   7.102  0.1685  0.0244  0.0148
 1315ERGO   ROH17931   3.656   9.345   6.011 -0.0678 -0.0639  0.1387
 1315ERGO    R117932   3.499   9.378   6.245  0.0251  0.0326  0.1879
 1315ERGO    R217933   3.505   9.198   6.454 -0.0576  0.0015  0.1636
 1315ERGO    R317934   3.562   9.420   6.601  0.1619 -0.0600  0.1754
 1315ERGO    R417935   3.522   9.207   6.799 -0.0790 -0.0261  0.1657
 1315ERGO    R517936   3.422   9.401   6.794  0.1229  0.0813  0.1619
 1315ERGO    C117937   3.586   9.421   7.138  0.1145 -0.1000  0.1780
 1315ERGO    C217938   3.927   9.311   7.365  0.1554 -0.0469  0.0357
 1316ERGO   ROH17939  14.219  16.622   5.785  0.3295 -0.0344  0.0802
 1316ERGO    R117940  14.128  16.654   6.051  0.1357  0.0430  0.0051
 1316ERGO    R217941  14.116  16.444   6.231  0.0306  0.1026  0.0638
 1316ERGO    R317942  14.265  16.611   6.386 -0.0996  0.1677  0.1217
 1316ERGO    R417943  14.208  16.380   6.558  0.2530 -0.0446 -0.0244
 1316ERGO    R517944  14.169  16.590   6.604  0.0178 -0.1186  0.1530
 1316ERGO    C117945  14.401  16.499   6.894  0.2604 -0.0690 -0.0215
 1316ERGO    C217946  14.595  16.534   7.282 -0.0142 -0.0374  0.0591
 1317ERGO   ROH17947   3.653  14.576   5.883  0.3656  0.1763  0.0713
 1317ERGO    R117948   3.747  14.534   6.146  0.3204  0.1537  0.0843
 1317ERGO    R217949   3.811  14.743   6.316  0.1543  0.1427  0.1642
 1317ERGO    R317950   3.637  14.618   6.483  0.1817 -0.0091  0.0804
 1317ERGO    R417951   3.805  14.779   6.660  0.0103  0.0750  0.1692
 1317ERGO    R517952   3.767  14.566   6.677  0.1509  0.0443  0.1152
 1317ERGO    C117953   3.638  14.684   7.016 -0.0478 -0.1070  0.0935
 1317ERGO    C217954   3.811  14.628   7.450 -0.0504 -0.0243  0.2052
 1318ERGO   ROH17955   8.240  10.652   5.798  0.0488  0.1562 -0.1076
 1318ERGO    R117956   8.161  10.687   6.068  0.0457  0.0651 -0.0958
 1318ERGO    R217957   7.994  10.510   6.199  0.1094 -0.0240 -0.1311
 1318ERGO    R317958   8.196  10.505   6.380  0.1190  0.0017 -0.1416
 1318ERGO    R417959   7.957  10.436   6.534  0.1423 -0.0401 -0.1310
 1318ERGO    R517960   8.099  10.594   6.580  0.1183 -0.0211 -0.1337
 1318ERGO    C117961   8.125  10.389   6.900  0.1705 -0.0254 -0.1409
 1318ERGO    C217962   8.012  10.295   7.256 -0.1228  0.1620  0.0835
 1319ERGO   ROH17963   7.370  15.452   5.868 -0.0241 -0.1030 -0.1204
 1319ERGO    R117964   7.200  15.419   6.092 -0.0454  0.0033 -0.1202
 1319ERGO    R217965   7.142  15.170   6.199 -0.1370  0.0463 -0.0708
 1319ERGO    R317966   7.231  15.284   6.429 -0.1070  0.0627 -0.0905
 1319ERGO    R417967   7.041  15.080   6.517 -0.0724  0.0460 -0.0501
 1319ERGO    R517968   7.038  15.291   6.571 -0.0834  0.0484 -0.0567
 1319ERGO    C117969   7.065  15.135   6.918 -0.0067  0.0614 -0.0564
 1319ERGO    C217970   7.100  15.175   7.245  0.0284 -0.3413  0.1244
 1320ERGO   ROH17971   3.578   2.704   5.728  0.2210  0.0857 -0.0886
 1320ERGO    R117972   3.395   2.756   5.937  0.2108  0.1020 -0.1013
 1320ERGO    R217973   3.413   2.634   6.185  0.0834 -0.0297 -0.1535
 1320ERGO    R317974   3.410   2.890   6.275  0.2295 -0.0692 -0.0334
 1320ERGO    R417975   3.471   2.729   6.512  0.0699 -0.2179 -0.0954
 1320ERGO    R517976   3.311   2.876   6.493  0.1706 -0.1055 -0.0639
 1320ERGO    C117977   3.502   3.025   6.787  0.1992 -0.3647  0.0512
 1320ERGO    C217978   3.499   3.230   7.143  0.0775 -0.1267  0.0885
 1321ERGO   ROH17979   2.566  14.763   6.103 -0.0520  0.0060  0.1873
 1321ERGO    R117980   2.464  14.908   6.323 -0.2150  0.1293  0.0325
 1321ERGO    R217981   2.215  15.027   6.320 -0.4671 -0.3815 -0.0075
 1321ERGO    R317982   2.178  14.882   6.547 -0.0366 -0.1278  0.2396
 1321ERGO    R417983   2.074  15.149   6.611 -0.6706 -0.2465 -0.1586
 1321ERGO    R517984   2.223  15.037   6.724 -0.3449  0.2827 -0.0153
 1321ERGO    C117985   1.958  15.084   6.994 -0.3850  0.0703 -0.0147
 1321ERGO    C217986   1.809  15.208   7.275 -0.2635 -0.1344 -0.1570
 1322ERGO   ROH17987   6.667  16.226   6.020  0.2399 -0.2880  0.0578
 1322ERGO    R117988   6.667  16.390   6.251  0.2121 -0.1825 -0.0163
 1322ERGO    R217989   6.519  16.331   6.476  0.0795 -0.0101 -0.0534
 1322ERGO    R317990   6.760  16.355   6.601  0.0356 -0.0685  0.0428
 1322ERGO    R417991   6.562  16.422   6.806 -0.0252  0.0461 -0.0553
 1322ERGO    R517992   6.733  16.544   6.746  0.0427 -0.0285 -0.0096
 1322ERGO    C117993   6.812  16.499   7.116 -0.1273  0.0239  0.0338
 1322ERGO    C217994   6.699  16.494   7.457 -0.2604 -0.1141  0.2437
 1323ERGO   ROH17995   4.807  16.385   5.836  0.0867 -0.0821 -0.0606
 1323ERGO    R117996   4.651  16.449   6.063  0.1499 -0.1975  0.0155
 1323ERGO    R217997   4.734  16.393   6.321  0.4018  0.0290 -0.0135
 1323ERGO    R317998   4.687  16.658   6.359  0.0609 -0.0146 -0.1014
 1323ERGO    R417999   4.581  16.528   6.599  0.3706 -0.0642  0.0151
 1323ERGO    R518000   4.474  16.665   6.467  0.1070 -0.2620  0.0138
 1323ERGO    C118001   4.447  16.856   6.797  0.0323 -0.1595 -0.0508
 1323ERGO    C218002   4.149  16.882   7.009  0.1435 -0.2060  0.1856
 1324ERGO   ROH18003  15.159   0.064   5.982 -0.0395 -0.1057 -0.1249
 1324ERGO    R118004  15.090   0.007   6.251  0.0405 -0.0521 -0.0932
 1324ERGO    R218005  14.984  -0.236   6.330 -0.0475  0.0077 -0.0342
 1324ERGO    R318006  15.192  -0.233   6.505  0.0234 -0.0840 -0.1151
 1324ERGO    R418007  15.021  -0.452   6.597 -0.1252  0.0879  0.0422
 1324ERGO    R518008  15.093  -0.285   6.717  0.0566  0.0853 -0.0540
 1324ERGO    C118009  15.238  -0.575   6.917 -0.1039  0.0485  0.0107
 1324ERGO    C218010  15.567  -0.572   7.106  0.1593 -0.2250  0.1023
 1325ERGO   ROH18011  10.803  18.000   6.045  0.2118  0.2493 -0.0366
 1325ERGO    R118012  10.692  17.862   6.266  0.0784  0.2121 -0.1267
 1325ERGO    R218013  10.808  17.636   6.375 -0.0675  0.1083 -0.1895
 1325ERGO    R318014  10.794  17.779   6.605 -0.0609  0.0161 -0.1296
 1325ERGO    R418015  10.849  17.505   6.692  0.0227 -0.0116 -0.2493
 1325ERGO    R518016  10.686  17.632   6.760  0.0007 -0.0752 -0.1683
 1325ERGO    C118017  10.860  17.563   7.093  0.0814 -0.1677 -0.2279
 1325ERGO    C218018  11.034  17.486   7.406  0.0893 -0.1725 -0.0238
 1326ERGO   ROH18019   6.067   6.617   6.187  0.1314  0.0954 -0.0999
 1326ERGO    R118020   6.117   6.411   6.374 -0.1164 -0.0669 -0.2089
 1326ERGO    R218021   6.277   6.446   6.596  0.0405 -0.4159 -0.2632
 1326ERGO    R318022   6.058   6.356   6.729 -0.0501 -0.1238 -0.2055
 1326ERGO    R418023   6.275   6.342   6.926  0.0053 -0.4487 -0.2735
 1326ERGO    R518024   6.142   6.180   6.869 -0.2463 -0.2610 -0.2520
 1326ERGO    C118025   6.068   6.197   7.243 -0.1002 -0.1935 -0.2254
 1326ERGO    C218026   5.953   6.061   7.492  0.0850 -0.2813  0.0488
 1327ERGO   ROH18027  15.226  16.051   5.661 -0.1126  0.0896 -0.0047
 1327ERGO    R118028  15.140  16.205   5.882 -0.0822  0.1472 -0.0335
 1327ERGO    R218029  15.178  16.124   6.144 -0.2034  0.1312 -0.0223
 1327ERGO    R318030  15.296  16.368   6.168 -0.0643  0.0626  0.0060
 1327ERGO    R418031  15.211  16.299   6.440 -0.0643  0.0575  0.0068
 1327ERGO    R518032  15.164  16.482   6.332  0.0207  0.1059  0.0469
 1327ERGO    C118033  15.341  16.630   6.635  0.1473 -0.0494  0.0504
 1327ERGO    C218034  15.450  16.574   6.949  0.0148 -0.1362 -0.1761
 1328ERGO   ROH18035   9.809  16.843   5.738 -0.0948 -0.2050  0.0294
 1328ERGO    R118036   9.923  16.923   5.985 -0.0676 -0.0945 -0.0184
 1328ERGO    R218037   9.795  17.094   6.159 -0.0974 -0.1075 -0.0306
 1328ERGO    R318038   9.838  16.893   6.337  0.0338 -0.0434  0.0116
 1328ERGO    R418039   9.947  17.133   6.467 -0.1894  0.0773 -0.0069
 1328ERGO    R518040  10.051  16.944   6.434 -0.0239  0.1540  0.0453
 1328ERGO    C118041  10.076  16.966   6.814 -0.1198  0.2448  0.0466
 1328ERGO    C218042  10.167  16.808   7.064 -0.3163  0.4016 -0.0454
 1329ERGO   ROH18043   9.811   4.631   6.262  0.0720 -0.0003 -0.0910
 1329ERGO    R118044   9.875   4.651   6.537  0.1857  0.0899 -0.1246
 1329ERGO    R218045   9.853   4.888   6.679 -0.0474  0.0639 -0.1259
 1329ERGO    R318046   9.699   4.736   6.844  0.2303 -0.1279 -0.0349
 1329ERGO    R418047   9.834   4.926   7.022 -0.2176  0.3465 -0.1632
 1329ERGO    R518048   9.833   4.710   7.041  0.2497  0.3430  0.0324
 1329ERGO    C118049   9.679   4.807   7.377 -0.0562  0.3309 -0.0995
 1329ERGO    C218050   9.545   4.860   7.690 -0.0210 -0.2208  0.2327
 1330ERGO   ROH18051  13.392   2.066   6.575 -0.0502 -0.2273 -0.0263
 1330ERGO    R118052  13.631   2.063   6.727 -0.0190 -0.1889 -0.0749
 1330ERGO    R218053  13.632   2.045   7.003  0.0405 -0.2223 -0.0785
 1330ERGO    R318054  13.796   1.833   6.956  0.0828 -0.1776 -0.1357
 1330ERGO    R418055  13.840   1.899   7.237  0.0003 -0.3017 -0.0913
 1330ERGO    R518056  13.992   1.880   7.083  0.0438 -0.2081 -0.0621
 1330ERGO    C118057  14.115   1.616   7.329  0.0166 -0.3061 -0.1525
 1330ERGO    C218058  14.063   1.292   7.605  0.0361  0.0432  0.0871
 1331ERGO   ROH18059   6.058   7.523   6.310 -0.1210  0.1704 -0.1170
 1331ERGO    R118060   6.023   7.707   6.523  0.0040  0.1338 -0.0639
 1331ERGO    R218061   5.923   7.631   6.770 -0.0221  0.1249 -0.0772
 1331ERGO    R318062   6.152   7.747   6.861  0.0546 -0.0348 -0.0619
 1331ERGO    R418063   5.995   7.692   7.102 -0.1370  0.3454 -0.0910
 1331ERGO    R518064   6.080   7.884   7.044  0.0985  0.2069 -0.2204
 1331ERGO    C118065   6.251   7.837   7.381 -0.1319  0.3238 -0.0846
 1331ERGO    C218066   6.520   7.918   7.689  0.0204 -0.1505 -0.0023
 1332ERGO   ROH18067   2.665   6.688   6.239  0.0706  0.3251 -0.2469
 1332ERGO    R118068   2.771   6.772   6.488 -0.0834 -0.0252 -0.0551
 1332ERGO    R218069   2.868   7.027   6.529  0.3125 -0.2116  0.2319
 1332ERGO    R318070   2.692   7.025   6.737  0.0473 -0.0521  0.0150
 1332ERGO    R418071   2.908   7.201   6.825  0.1560 -0.3292  0.3238
 1332ERGO    R518072   2.830   7.028   6.932 -0.1864 -0.2645  0.1906
 1332ERGO    C118073   2.767   7.300   7.192 -0.1840 -0.2480  0.1738
 1332ERGO    C218074   2.650   7.581   7.386  0.1556 -0.4004 -0.1371
 1333ERGO   ROH18075   4.255   4.371   6.268  0.2031 -0.0323 -0.0892
 1333ERGO    R118076   4.304   4.303   6.538  0.0038 -0.0197 -0.0469
 1333ERGO    R218077   4.429   4.475   6.714  0.0328 -0.0747 -0.0055
 1333ERGO    R318078   4.207   4.431   6.865 -0.0883  0.1127 -0.1268
 1333ERGO    R418079   4.358   4.635   7.012  0.1891 -0.2890  0.1487
 1333ERGO    R518080   4.285   4.445   7.091 -0.1396 -0.2614 -0.0842
 1333ERGO    C118081   4.108   4.686   7.328  0.1663 -0.2378  0.1247
 1333ERGO    C218082   3.746   4.897   7.428  0.0762 -0.3110  0.1686
 1334ERGO   ROH18083   6.165  13.526   5.925 -0.3572 -0.0524  0.1589
 1334ERGO    R118084   6.128  13.541   6.205 -0.1471 -0.0711  0.1898
 1334ERGO    R218085   6.038  13.327   6.354 -0.1553 -0.0450  0.2249
 1334ERGO    R318086   6.263  13.374   6.499 -0.0227 -0.1862  0.0684
 1334ERGO    R418087   6.074  13.261   6.692 -0.0647  0.2130  0.2676
 1334ERGO    R518088   6.183  13.449   6.712  0.1738  0.1022  0.0461
 1334ERGO    C118089   6.306  13.268   7.024  0.1126  0.2305  0.1454
 1334ERGO    C218090   6.523  13.283   7.353 -0.0012 -0.3568  0.3305
 1335ERGO   ROH18091   0.222  11.927   6.235  0.1334  0.1124 -0.1246
 1335ERGO    R118092   0.196  12.044   6.491 -0.1123  0.0782 -0.1322
 1335ERGO    R218093   0.166  12.317   6.527 -0.0518  0.0818 -0.1219
 1335ERGO    R318094  -0.055  12.241   6.667 -0.2407  0.1412 -0.3798
 1335ERGO    R418095   0.013  12.505   6.773  0.1108 -0.1412  0.1574
 1335ERGO    R518096  -0.016  12.323   6.888 -0.2220 -0.3290 -0.1952
 1335ERGO    C118097  -0.283  12.544   7.047  0.0280 -0.2153  0.0779
 1335ERGO    C218098  -0.311  12.720   7.353  0.0871  0.0660 -0.1331
 1336ERGO   ROH18099   1.973   9.312   5.999  0.0631  0.2598 -0.0459
 1336ERGO    R118100   1.992   9.392   6.270 -0.1126  0.1123  0.0119
 1336ERGO    R218101   1.787   9.352   6.451 -0.1005 -0.2994 -0.0560
 1336ERGO    R318102   1.982   9.229   6.595  0.0464 -0.1163 -0.0950
 1336ERGO    R418103   1.825   9.377   6.794 -0.0969 -0.3171 -0.0551
 1336ERGO    R518104   2.041   9.388   6.764 -0.1092 -0.0804 -0.0730
 1336ERGO    C118105   2.031   9.276   7.128  0.0431 -0.1554 -0.0913
 1336ERGO    C218106   2.146   9.294   7.361 -0.1555 -0.3710 -0.1941
 1337ERGO   ROH18107   3.478  12.479   6.263  0.0103  0.0242 -0.1167
 1337ERGO    R118108   3.498  12.548   6.537  0.0390  0.3402 -0.1959
 1337ERGO    R218109   3.334  12.736   6.656 -0.3061  0.0951 -0.2850
 1337ERGO    R318110   3.282  12.534   6.830  0.2557  0.1430 -0.0398
 1337ERGO    R418111   3.122  12.760   6.928 -0.5679 -0.2051 -0.4535
 1337ERGO    R518112   3.266  12.642   7.043 -0.2256  0.4097 -0.1922
 1337ERGO    C118113   2.951  12.584   7.250 -0.1930 -0.3348 -0.3215
 1337ERGO    C218114   2.650  12.698   7.481  0.0066 -0.0221  0.4354
 1338ERGO   ROH18115  12.321  13.308   5.843  0.1321 -0.2459  0.0135
 1338ERGO    R118116  12.294  13.444   6.090  0.0422 -0.1204 -0.0639
 1338ERGO    R218117  12.408  13.352   6.324 -0.0481 -0.0070  0.0285
 1338ERGO    R318118  12.516  13.601   6.331 -0.0439 -0.0065 -0.0587
 1338ERGO    R418119  12.470  13.532   6.612  0.0100  0.0717 -0.0332
 1338ERGO    R518120  12.401  13.711   6.510 -0.0068  0.0437 -0.0671
 1338ERGO    C118121  12.609  13.870   6.787  0.0477  0.1181 -0.1509
 1338ERGO    C218122  12.653  14.068   7.137 -0.0212  0.1479  0.1577
 1339ERGO   ROH18123   6.167   7.113   6.104  0.1992  0.0832  0.1802
 1339ERGO    R118124   6.220   6.986   6.352  0.0978 -0.1794  0.0705
 1339ERGO    R218125   6.168   7.107   6.595  0.4255 -0.2457  0.1772
 1339ERGO    R318126   6.026   6.880   6.641  0.0436 -0.0350  0.0883
 1339ERGO    R418127   6.087   6.984   6.908  0.0643 -0.1498  0.1271
 1339ERGO    R518128   6.129   6.783   6.834 -0.2074 -0.2135  0.1373
 1339ERGO    C118129   5.907   6.698   7.132 -0.5046  0.1039  0.0144
 1339ERGO    C218130   5.972   6.666   7.450 -0.3279  0.0761 -0.0847
 1340ERGO   ROH18131   7.361   9.094   5.844  0.1548  0.0805 -0.1594
 1340ERGO    R118132   7.605   9.201   5.941  0.0883  0.1432 -0.0563
 1340ERGO    R218133   7.646   9.472   5.973 -0.0251  0.1525  0.0507
 1340ERGO    R318134   7.712   9.399   6.226 -0.0688  0.0863  0.0424
 1340ERGO    R418135   7.806   9.676   6.202  0.2439 -0.0225  0.0226
 1340ERGO    R518136   7.923   9.504   6.265  0.0571 -0.1545  0.0094
 1340ERGO    C118137   7.960   9.727   6.573  0.3595 -0.1864 -0.0017
 1340ERGO    C218138   7.832  10.003   6.734  0.1063  0.0214  0.0395
 1341ERGO   ROH18139  12.105   6.101   6.587 -0.2124  0.1073 -0.1740
 1341ERGO    R118140  12.014   6.046   6.850 -0.2453  0.0689 -0.1945
 1341ERGO    R218141  11.846   5.835   6.907 -0.0401 -0.0943 -0.2096
 1341ERGO    R318142  12.041   5.771   7.086 -0.0367  0.1473 -0.1216
 1341ERGO    R418143  11.791   5.680   7.211 -0.0007 -0.1244 -0.2169
 1341ERGO    R518144  11.940   5.813   7.300 -0.1815  0.0619 -0.1665
 1341ERGO    C118145  11.941   5.530   7.556  0.0253  0.0849 -0.1385
 1341ERGO    C218146  11.890   5.361   7.976 -0.1915 -0.2262 -0.2828
 1342ERGO   ROH18147   5.265  18.633   5.748  0.0345  0.0121  0.0635
 1342ERGO    R118148   5.276  18.701   6.023 -0.0064  0.0666  0.0512
 1342ERGO    R218149   5.154  18.927   6.125 -0.1804 -0.0127  0.0175
 1342ERGO    R318150   5.036  18.748   6.293 -0.0321 -0.0776  0.0549
 1342ERGO    R418151   5.090  18.983   6.460 -0.2641  0.0225 -0.0035
 1342ERGO    R518152   5.151  18.778   6.501 -0.0769  0.0869  0.0590
 1342ERGO    C118153   4.943  18.848   6.812 -0.1738 -0.0178  0.0194
 1342ERGO    C218154   4.806  18.899   7.157  0.0718 -0.1793  0.2198
 1343ERGO   ROH18155   8.857  16.638   5.939 -0.0539 -0.0854 -0.0560
 1343ERGO    R118156   8.911  16.674   6.214 -0.1420 -0.0228 -0.0469
 1343ERGO    R218157   8.783  16.865   6.368 -0.2689 -0.0615 -0.1076
 1343ERGO    R318158   8.724  16.651   6.526 -0.2121 -0.0657 -0.0911
 1343ERGO    R418159   8.717  16.882   6.706 -0.1195 -0.0682 -0.0771
 1343ERGO    R518160   8.833  16.700   6.734 -0.1163 -0.0782 -0.1355
 1343ERGO    C118161   8.623  16.692   7.052  0.0207 -0.0759 -0.0437
 1343ERGO    C218162   8.673  16.606   7.337 -0.0531 -0.0076  0.1034
 1344ERGO   ROH18163   4.678   5.949   6.045 -0.1811 -0.0264  0.0304
 1344ERGO    R118164   4.698   6.079   6.296 -0.1267  0.0822 -0.0287
 1344ERGO    R218165   4.476   6.169   6.435 -0.1080  0.0295  0.0400
 1344ERGO    R318166   4.581   6.017   6.635  0.0601  0.1566  0.0501
 1344ERGO    R418167   4.351   6.152   6.757 -0.1817 -0.2036  0.0006
 1344ERGO    R518168   4.555   6.152   6.831 -0.2015  0.0932  0.0618
 1344ERGO    C118169   4.376   6.000   7.132 -0.0669 -0.2201 -0.0129
 1344ERGO    C218170   4.335   5.985   7.446  0.2660 -0.0988 -0.3600
 1345ERGO   ROH18171  17.518   6.874   6.071 -0.1010 -0.0782  0.0629
 1345ERGO    R118172  17.669   6.664   6.185 -0.0803 -0.0769  0.0379
 1345ERGO    R218173  17.928   6.608   6.107 -0.1132 -0.1116 -0.0462
 1345ERGO    R318174  17.979   6.632   6.373 -0.0160 -0.0809 -0.0672
 1345ERGO    R418175  18.205   6.477   6.268 -0.0328 -0.0582 -0.1402
 1345ERGO    R518176  18.076   6.422   6.435  0.0378 -0.0624 -0.0856
 1345ERGO    C118177  18.414   6.424   6.611  0.1053  0.0018 -0.2147
 1345ERGO    C218178  18.666   6.395   6.842 -0.1857 -0.3141 -0.0230
 1346ERGO   ROH18179  13.469  11.281   6.254 -0.0583 -0.0406  0.0341
 1346ERGO    R118180  13.383  11.327   6.520 -0.0259 -0.0712  0.0505
 1346ERGO    R218181  13.248  11.136   6.668  0.0750 -0.1241  0.0801
 1346ERGO    R318182  13.447  11.181   6.847  0.0941 -0.0444  0.0388
 1346ERGO    R418183  13.251  11.021   6.993  0.1178  0.0145  0.1289
 1346ERGO    R518184  13.334  11.213   7.055  0.1199  0.0407  0.0385
 1346ERGO    C118185  13.439  10.997   7.352  0.1604  0.1702  0.1185
 1346ERGO    C218186  13.609  10.876   7.625 -0.2350 -0.1538 -0.0475
 1347ERGO   ROH18187   5.124   6.415   6.158  0.2288 -0.1975 -0.0093
 1347ERGO    R118188   5.103   6.453   6.438 -0.1491 -0.1532 -0.0388
 1347ERGO    R218189   4.961   6.282   6.601 -0.0477 -0.3543 -0.1499
 1347ERGO    R318190   5.195   6.270   6.738 -0.1683  0.0814  0.1114
 1347ERGO    R418191   4.994   6.164   6.924 -0.1851 -0.2501 -0.0979
 1347ERGO    R518192   5.134   6.326   6.963 -0.5130  0.0073  0.0395
 1347ERGO    C118193   5.233   6.084   7.242 -0.3782  0.2197  0.1778
 1347ERGO    C218194   5.400   5.934   7.520  0.3559  0.1779 -0.1834
 1348W        W18195   4.895   3.469   0.170  0.2487  0.1950 -0.1250
 1349W        W18196   1.153   9.293   0.971  0.1041  0.1063  0.4544
 1350W        W18197  14.324   5.536  14.002 -0.1151  0.0075  0.0667
 1351W        W18198  14.296  14.763   4.447  0.1420  0.0513  0.2328
 1352W        W18199   1.865   7.985  12.438 -0.2280 -0.0093 -0.2186
 1353W        W18200  10.074   5.131   3.719  0.2905  0.1472  0.4029
 1354W        W18201  13.684   1.508   1.687  0.1033 -0.3412 -0.0332
 1355W        W18202  13.493  10.714  14.348  0.2607 -0.2118  0.0343
 1356W        W18203  10.942   3.550  12.288  0.0976  0.1249  0.1918
 1357W        W18204   9.158   5.231   4.820 -0.1121  0.2530  0.1313
 1358W        W18205   4.045   9.267  11.732  0.1797 -0.2502 -0.1103
 1359W        W18206   6.329   9.056   0.832  0.0484 -0.0208  0.0426
 1360W        W18207  12.241   6.904  13.099 -0.0702  0.0590 -0.2025
 1361W        W18208   7.426  13.130   2.421  0.1819  0.2270  0.0223
 1362W        W18209  16.604  15.997  13.371  0.0696 -0.0341 -0.0784
 1363W        W18210   3.803  18.619   1.423  0.0045  0.1098  0.0426
 1364W        W18211   7.547  17.706   5.088 -0.3369 -0.0791 -0.2338
 1365W        W18212  11.178  15.865   0.620  0.0809  0.1492 -0.0552
 1366W        W18213  11.277   1.329  15.257 -0.1957  0.0422  0.1749
 1367W        W18214   7.417   8.342   4.936  0.0448 -0.2276 -0.0513
 1368W        W18215   7.040   0.807  13.877  0.1457  0.1788  0.1089
 1369W        W18216  15.230   3.010  15.100 -0.3937  0.1139  0.4248
 1370W        W18217  13.611  14.118   1.334 -0.1711  0.3629 -0.0152
 1371W        W18218  11.276  12.868  11.136  0.0549 -0.0388  0.1787
 1372W        W18219   0.883   7.165  14.875 -0.0690 -0.2129 -0.3197
 1373W        W18220   6.614   9.724  11.516  0.2127  0.2586  0.0004
 1374W        W18221   1.004  14.647  14.196 -0.0334  0.4141  0.3705
 1375W        W18222   4.575   7.416   3.815 -0.1911  0.1634  0.2829
 1376W        W18223   2.321   8.953   4.694  0.2114 -0.0811 -0.1068
 1377W        W18224  13.489  11.343   1.109 -0.0548  0.2916 -0.2226
 1378W        W18225  15.632   2.915   1.642  0.4717 -0.1255 -0.0582
 1379W        W18226  13.749   0.216  11.925  0.2860 -0.6066 -0.0361
 1380W        W18227  10.822   8.792   0.592 -0.1702 -0.0140  0.1643
 1381W        W18228   9.112  10.784   2.038  0.1419  0.1556  0.0117
 1382W        W18229   1.020   9.492   2.496  0.1052 -0.0954 -0.0189
 1383W        W18230  10.011   9.677  12.061 -0.0717  0.1989  0.0352
 1384W        W18231   8.831   2.661   0.693 -0.1686  0.2756  0.1802
 1385W        W18232   9.575  17.627  14.261 -0.1477 -0.3190  0.1121
 1386W        W18233   8.671  12.028   3.963 -0.0589 -0.2396 -0.0054
 1387W        W18234   3.510  11.485  15.002  0.2082 -0.1884 -0.0642
 1388W        W18235  11.455  10.389   0.733  0.2938  0.0302  0.0248
 1389W        W18236   1.624   8.207  11.486 -0.0255  0.2207 -0.0667
 1390W        W18237  17.890  13.583   3.115 -0.1995 -0.1111 -0.0466
 1391W        W18238   9.462  16.351   4.250 -0.0868  0.1236 -0.1847
 1392W        W18239   4.104  14.109   4.523 -0.0126 -0.1916  0.1681
 1393W        W18240   2.431   3.210   1.747  0.2907  0.0822 -0.0920
 1394W        W18241  12.252   9.003  12.427 -0.1709  0.0072  0.0786
 1395W        W18242   1.383  14.134   4.489  0.0727 -0.1989 -0.0329
 1396W        W18243  12.696   2.520   1.311  0.0679  0.2235  0.1350
 1397W        W18244   1.960  17.774   5.534 -0.0659 -0.0074 -0.0723
 1398W        W18245   4.360   9.592   4.628 -0.1018  0.4184 -0.2399
 1399W        W18246  16.108   3.231  12.320 -0.0057  0.1861 -0.1986
 1400W        W18247   1.152   7.991   0.912  0.0753  0.2794  0.1079
 1401W        W18248   7.121   6.403  13.498  0.1551 -0.4938  0.0313
 1402W        W18249  16.226  12.029   3.606  0.1766 -0.1141 -0.1311
 1403W        W18250  11.585   3.019  14.474  0.1048 -0.0249  0.1622
 1404W        W18251  18.115  14.630  14.397  0.2314  0.0798 -0.1741
 1405W        W18252  15.810  11.546   0.933 -0.3626  0.0900 -0.1289
 1406W        W18253   2.936  10.839   3.678  0.2823  0.0294  0.1962
 1407W        W18254   1.114   9.120   2.799 -0.4004  0.0580 -0.0449
 1408W        W18255  10.632  14.102   3.031 -0.2511 -0.1285 -0.1154
 1409W        W18256   7.503  11.364  13.755  0.1012  0.1138  0.5017
 1410W        W18257   6.199  12.240  15.558  0.0197  0.0136  0.3441
 1411W        W18258  16.649  11.412   3.108  0.1093 -0.3691 -0.0268
 1412W        W18259  13.226   7.591   5.177 -0.0994  0.0095 -0.1406
 1413W        W18260   7.500  15.269  12.270 -0.0701 -0.1200  0.0311
 1414W        W18261   6.563   5.068  15.249 -0.0657 -0.2796  0.0975
 1415W        W18262  17.407  16.076   1.919  0.1834  0.1019  0.0304
 1416W        W18263  18.817  10.722   5.021 -0.2254 -0.3950  0.0529
 1417W        W18264   6.262   4.480  11.749 -0.1182 -0.5572  0.0442
 1418W        W18265  12.946   3.816   1.967 -0.0101 -0.1604 -0.1444
 1419W        W18266  16.972  14.818   1.733 -0.1784  0.0644  0.3027
 1420W        W18267   1.686   3.564   3.769 -0.1251 -0.1144 -0.0144
 1421W        W18268   5.843   5.991  14.076  0.1706  0.0987  0.1542
 1422W        W18269  11.044   2.548   5.211  0.2966 -0.0829  0.0311
 1423W        W18270   0.960  12.542  13.161 -0.0411 -0.2482 -0.1636
 1424W        W18271   0.759  18.186   1.044 -0.0102  0.1601 -0.2330
 1425W        W18272   1.121  16.975   2.257  0.0301 -0.2417 -0.5260
 1426W        W18273   5.995  15.152   3.272  0.0370 -0.1024  0.0489
 1427W        W18274   0.336  14.741  13.316 -0.2653 -0.0097  0.1895
 1428W        W18275   1.174  11.013   2.250 -0.3125  0.0367  0.2508
 1429W        W18276   3.825   1.437  10.074  0.1110 -0.3682  0.2056
 1430W        W18277  15.464   1.057   1.734 -0.0028 -0.2048  0.0258
 1431W        W18278  15.330  12.767   3.450 -0.2693  0.0160 -0.0423
 1432W        W18279  15.696   3.708   1.143 -0.1668 -0.0085 -0.1261
 1433W        W18280  10.828   0.662   0.993 -0.3016 -0.0032 -0.2783
 1434W        W18281  13.705   6.011  12.191 -0.0091 -0.1455  0.0461
 1435W        W18282   2.078   6.471   3.291 -0.1520  0.0426 -0.2539
 1436W        W18283   4.021   8.881  13.425  0.1376  0.0159 -0.0757
 1437W        W18284   4.178  10.446  13.006  0.0251 -0.0644 -0.3018
 1438W        W18285  11.730   1.743   1.715 -0.0589  0.0123  0.2413
 1439W        W18286   3.048  16.267  11.816  0.0139 -0.1405 -0.0964
 1440W        W18287   3.369  16.884   0.710  0.2015 -0.3826  0.1706
 1441W        W18288  16.659   9.362  15.177 -0.2472  0.1494 -0.1582
 1442W        W18289   8.451   7.305   0.216 -0.2112  0.2191 -0.0505
 1443W        W18290  14.253  16.894   4.793  0.0114  0.1170  0.3619
 1444W        W18291  12.101   2.811   0.839  0.0158  0.0349  0.1709
 1445W        W18292  11.191   6.260  14.548 -0.0008 -0.1167  0.0939
 1446W        W18293   7.995  11.529  13.790 -0.0536  0.1626 -0.3803
 1447W        W18294   8.445  18.160  13.680  0.0609  0.1617 -0.2635
 1448W        W18295   9.333   3.430   0.993  0.2249  0.0662 -0.0121
 1449W        W18296  16.393  12.452   1.505 -0.0715  0.1652 -0.0892
 1450W        W18297  10.925  13.914   4.678 -0.1718  0.2895 -0.2088
 1451W        W18298   9.142  18.195  11.346 -0.2307  0.0154 -0.0586
 1452W        W18299  14.084  14.724   1.882 -0.0157  0.0824 -0.2246
 1453W        W18300   5.628  16.950  12.571  0.1326 -0.1871 -0.2223
 1454W        W18301   7.459   7.671   5.653  0.1893 -0.0860  0.1366
 1455W        W18302   5.687  18.614  12.887 -0.0053 -0.0744  0.0033
 1456W        W18303   1.276   5.927  14.850  0.0870  0.3196 -0.1201
 1457W        W18304   4.144  17.606   3.268 -0.4054 -0.1379  0.1362
 1458W        W18305   5.456  12.950   0.731  0.3153 -0.5206  0.0013
 1459W        W18306  17.008   2.613   1.352 -0.0979 -0.2599  0.1497
 1460W        W18307  12.333  17.944  12.546  0.1203 -0.2910  0.1068
 1461W        W18308  11.251  12.626   3.003 -0.0601 -0.2070 -0.0453
 1462W        W18309   5.998   4.663   0.006 -0.2987 -0.1466  0.2586
 1463W        W18310   7.958   9.097  10.341  0.4237  0.0481  0.1051
 1464W        W18311  12.236  17.932   1.876  0.0073  0.3150  0.1155
 1465W        W18312   9.911   3.036  12.895 -0.0781  0.1980  0.1043
 1466W        W18313  14.925   2.536  15.213 -0.1189  0.1643 -0.1410
 1467W        W18314  13.086  17.401   1.584  0.0514 -0.0433  0.0929
 1468W        W18315  12.451   0.557   0.242 -0.1195  0.3285  0.2062
 1469W        W18316  18.584   6.505  13.396  0.0824 -0.3713  0.2852
 1470W        W18317   2.719  13.002   1.459  0.2309  0.0683 -0.1557
 1471W        W18318  13.274   0.013  12.529  0.2548  0.0566 -0.0817
 1472W        W18319  13.973   4.209  10.933 -0.3022  0.0489 -0.2863
 1473W        W18320  17.137   4.308  13.991 -0.0956 -0.1390  0.0363
 1474W        W18321  10.754   5.470  14.211 -0.2754  0.0713  0.0870
 1475W        W18322  12.562   7.330   4.982 -0.2732  0.1696  0.0369
 1476W        W18323  16.652  14.904   2.996 -0.2072  0.0795 -0.1244
 1477W        W18324   7.669   7.847  15.530 -0.2529  0.1298 -0.2087
 1478W        W18325   3.734  12.606   2.460  0.4119 -0.0278  0.1168
 1479W        W18326  18.597   7.993  13.479 -0.0568 -0.0617 -0.0724
 1480W        W18327   5.476  15.853   0.513 -0.2198 -0.0312  0.3401
 1481W        W18328  11.382   3.236  14.830 -0.1709 -0.0376 -0.2532
 1482W        W18329  14.568  17.799  13.774  0.1071  0.2524 -0.1292
 1483W        W18330  17.004   7.543   3.092  0.0862  0.0825 -0.0769
 1484W        W18331   3.355   3.459   2.105 -0.0502 -0.1614  0.1029
 1485W        W18332   3.410   4.225   0.887 -0.2966  0.0600  0.1139
 1486W        W18333   8.165  13.850   0.443 -0.0080 -0.1436 -0.2323
 1487W        W18334   5.563  15.505  12.027  0.3254  0.0062 -0.1549
 1488W        W18335   4.105  10.790   1.097  0.2064  0.1762 -0.3246
 1489W        W18336  12.710   7.094   3.672 -0.0837  0.1990  0.0212
 1490W        W18337   1.387  11.909   2.583  0.1494 -0.1904  0.0810
 1491W        W18338  15.938  15.012  10.528  0.1997 -0.1063  0.1309
 1492W        W18339  16.051   0.480  13.910 -0.1389  0.0490  0.2616
 1493W        W18340  17.583  14.761   9.976 -0.2391  0.1007  0.0068
 1494W        W18341  12.491   7.404   4.003 -0.2717 -0.1861  0.0937
 1495W        W18342   5.058   2.531   0.519  0.1274 -0.0747  0.1889
 1496W        W18343  18.431  11.058   5.097  0.0630 -0.0148  0.2299
 1497W        W18344  11.832  16.412   3.739  0.2675  0.2200 -0.2936
 1498W        W18345   2.760  14.868   0.282 -0.2505  0.1486  0.3866
 1499W        W18346   2.975   8.039   4.112 -0.0245  0.0814 -0.4053
 1500W        W18347   3.496   5.226  12.666  0.1476  0.3794  0.2185
 1501W        W18348  14.991  15.913  10.615 -0.1485  0.1803 -0.0094
 1502W        W18349  14.195   8.396   5.291  0.0215  0.1248  0.0733
 1503W        W18350  18.633  15.297   3.105  0.0512 -0.0253 -0.0315
 1504W        W18351   7.778  16.475   0.396 -0.2859  0.0482  0.0697
 1505W        W18352   3.704  12.251   1.468 -0.2234  0.2358 -0.0212
 1506W        W18353  17.558  10.600   1.405 -0.1631  0.2436  0.0310
 1507W        W18354  12.561   3.742   3.687 -0.0602  0.0582  0.0163
 1508W        W18355  15.204  15.301   2.124  0.1623 -0.2300 -0.0040
 1509W        W18356   2.035  18.010  12.714 -0.0057 -0.2620  0.0901
 1510W        W18357  12.424   4.465   4.916  0.2623  0.3645  0.1566
 1511W        W18358   4.174   3.812   2.374  0.0580  0.3640 -0.0145
 1512W        W18359  18.811   6.136   4.257  0.0455  0.1007 -0.0860
 1513W        W18360  14.622  11.513   0.418 -0.0403  0.2063  0.0148
 1514W        W18361   3.342  13.110   0.792 -0.0782 -0.2857  0.0115
 1515W        W18362  13.757   5.103  11.147  0.0274  0.0458  0.0930
 1516W        W18363   6.713   1.548  11.147  0.2217  0.1287 -0.2250
 1517W        W18364  10.444   0.556  12.636  0.0236  0.1002 -0.1059
 1518W        W18365  14.903   5.576   1.235 -0.4055  0.1392  0.0409
 1519W        W18366   1.350  15.389  15.466  0.1670  0.1037 -0.1743
 1520W        W18367   1.205  18.507  11.567 -0.0732  0.0612 -0.3360
 1521W        W18368   8.826  15.839  13.952  0.1283  0.1150 -0.0800
 1522W        W18369   1.483  17.866   3.307 -0.1144 -0.3617 -0.0400
 1523W        W18370   0.216   9.585   5.523  0.0608 -0.0471  0.0531
 1524W        W18371  13.317   7.456  12.595  0.2149  0.0544 -0.3382
 1525W        W18372   4.435  17.157  15.462 -0.0499 -0.0749 -0.3414
 1526W        W18373  18.102  11.939  13.090  0.4004 -0.1850 -0.1445
 1527W        W18374  11.558   5.080  10.260  0.2478  0.0223 -0.1928
 1528W        W18375   7.440  13.323   4.131 -0.2200 -0.0413  0.0610
 1529W        W18376   8.055  10.076   3.631 -0.2847 -0.3770 -0.0239
 1530W        W18377   6.392  16.323  14.110  0.0552 -0.0334  0.3652
 1531W        W18378  15.268  15.207  11.616 -0.0149 -0.1901 -0.0123
 1532W        W18379  13.954  14.426  12.463 -0.0573  0.0059 -0.0996
 1533W        W18380  12.737  10.206   2.092 -0.1738  0.2853 -0.1788
 1534W        W18381   6.561   6.483  13.841  0.1018 -0.2407  0.1259
 1535W        W18382   8.073  10.413  15.086 -0.4877  0.3200  0.0539
 1536W        W18383   5.534  15.524   1.136  0.1633  0.2566  0.1205
 1537W        W18384  17.645  17.009   1.194  0.0623  0.0447  0.0114
 1538W        W18385  10.928  13.864   1.733  0.0350 -0.2355 -0.1280
 1539W        W18386  13.520   1.749  12.798  0.0386 -0.2432  0.2837
 1540W        W18387  18.364   2.922  11.250  0.1367  0.0753 -0.1755
 1541W        W18388   3.147  17.768  15.023  0.1090  0.0722  0.1199
 1542W        W18389  14.951  13.467   3.551 -0.0185  0.2388  0.0650
 1543W        W18390   8.032   8.042  13.038  0.0420 -0.0672  0.0136
 1544W        W18391  10.993  12.703   1.026  0.0423 -0.3197  0.0307
 1545W        W18392  10.649   7.242   4.470  0.0126 -0.2771  0.0980
 1546W        W18393   4.245  12.176   5.896  0.3180  0.1778  0.0835
 1547W        W18394   3.545   0.154  13.992 -0.1016 -0.1122 -0.0646
 1548W        W18395   3.089   6.067   1.667  0.0622  0.1090 -0.2650
 1549W        W18396   2.833   8.650   0.467 -0.1477  0.2727 -0.0577
 1550W        W18397  17.846   7.608  14.720 -0.1558 -0.3816  0.4076
 1551W        W18398  17.577  17.744  13.292  0.2458  0.0412  0.0163
 1552W        W18399   9.690   1.306   1.551 -0.0525  0.0013 -0.2543
 1553W        W18400  14.110  17.395   2.809 -0.0020 -0.0538  0.3762
 1554W        W18401  10.385  17.532   5.362 -0.0814  0.3349  0.1510
 1555W        W18402  15.847   8.231   4.697  0.1317 -0.0811 -0.1638
 1556W        W18403   0.149   8.804   3.968  0.0084  0.0453 -0.1218
 1557W        W18404  18.032   4.167   0.443 -0.3338  0.1813 -0.0028
 1558W        W18405   3.935  10.756   3.658 -0.0334  0.3253 -0.2319
 1559W        W18406   8.597  10.207   4.247 -0.2159  0.0046  0.1003
 1560W        W18407  16.646   2.978   1.027  0.0666 -0.0943 -0.1125
 1561W        W18408   7.621   0.111  11.436 -0.1560 -0.2511 -0.0330
 1562W        W18409   2.483  14.701  15.441  0.2465 -0.1828  0.0901
 1563W        W18410   5.592   5.936  11.476 -0.0695 -0.0777  0.1681
 1564W        W18411   1.688   7.465   2.782  0.1242 -0.0298  0.1254
 1565W        W18412  18.411  15.432  14.606 -0.2449 -0.0955 -0.0017
 1566W        W18413  18.673   0.120   2.294 -0.1813  0.0659 -0.0246
 1567W        W18414  18.341   8.217  11.137 -0.1356  0.0162  0.0014
 1568W        W18415  14.834  17.460  13.486  0.0937 -0.0680  0.1530
 1569W        W18416   8.862  11.167  10.293 -0.2826 -0.2491  0.0672
 1570W        W18417  15.075  17.491  14.117  0.0307 -0.1692 -0.0461
 1571W        W18418   8.057  12.054   3.056  0.1646  0.0571 -0.0815
 1572W        W18419  16.217   9.231  15.079  0.2434 -0.0116 -0.0814
 1573W        W18420   5.662  13.776   2.365  0.0092  0.2397 -0.1116
 1574W        W18421  15.775  11.709   2.796  0.0990  0.0900 -0.2170
 1575W        W18422   3.419  18.477  12.996 -0.1077 -0.0005  0.1524
 1576W        W18423  12.865  13.044  13.984 -0.0127 -0.1030  0.1352
 1577W        W18424  10.966  15.934   4.167  0.0613 -0.1623 -0.1121
 1578W        W18425   7.447   2.040  15.022 -0.2522 -0.0900 -0.2209
 1579W        W18426  18.584  14.252  14.879 -0.0766  0.0244 -0.1526
 1580W        W18427  18.274   3.370   1.593 -0.2563  0.0203 -0.1290
 1581W        W18428  13.166   8.621  12.188 -0.0651 -0.2868 -0.0760
 1582W        W18429   1.955  13.684  14.738  0.2849  0.1775 -0.0655
 1583W        W18430   3.995  12.040   2.304  0.3438  0.0121 -0.1825
 1584W        W18431   5.550   4.577  14.568 -0.1479 -0.1804  0.0350
 1585W        W18432  18.813  16.238  14.562 -0.1255 -0.1442 -0.0229
 1586W        W18433  10.999   3.607   2.453  0.1182  0.0064  0.1274
 1587W        W18434   8.888   2.521   4.640 -0.0251  0.0145 -0.0883
 1588W        W18435  13.057   1.234   2.893  0.2884  0.2549  0.0122
 1589W        W18436  12.849  11.853  14.318  0.0857 -0.0485 -0.1511
 1590W        W18437  16.548   0.524  14.440 -0.0922  0.0558  0.0409
 1591W        W18438  17.726   1.817  12.618 -0.1948  0.1872 -0.0000
 1592W        W18439  15.167  11.547   3.941  0.0567  0.0565 -0.0388
 1593W        W18440   9.030   0.328   5.402  0.1741 -0.2190 -0.0607
 1594W        W18441   1.555   3.797  14.636  0.0580 -0.1843 -0.1481
 1595W        W18442   6.338  14.203  12.499 -0.1291 -0.0029 -0.2016
 1596W        W18443   0.595  15.800   4.187 -0.1603  0.0872  0.0796
 1597W        W18444   0.064  10.987  12.990 -0.2305  0.3175 -0.1110
 1598W        W18445   0.107  15.081   3.994  0.0108  0.2331 -0.0126
 1599W        W18446   2.589   6.402  13.429 -0.1958 -0.2519  0.2027
 1600W        W18447   9.260  12.002  15.164  0.0692  0.0652  0.1001
 1601W        W18448  17.000   5.463   0.668  0.1499  0.1240  0.3764
 1602W        W18449   6.573  17.378  11.587  0.1635  0.1886  0.2179
 1603W        W18450   9.808   4.680  14.907 -0.0989 -0.1828  0.2223
 1604W        W18451   5.476   0.346   4.014 -0.1484  0.0896  0.2766
 1605W        W18452   0.449   5.413  13.763  0.2518 -0.2574  0.0640
 1606W        W18453   3.051  18.613   4.313 -0.0702 -0.0826  0.0889
 1607W        W18454  14.692   0.108  11.533 -0.3377  0.1581 -0.0252
 1608W        W18455   1.605  17.684   2.018 -0.0775  0.1599  0.1223
 1609W        W18456  11.285   8.790   5.195 -0.2579 -0.0876  0.1414
 1610W        W18457  15.317   1.049   2.754  0.1509 -0.1201  0.2153
 1611W        W18458   4.729   5.579   5.585 -0.0033  0.1445 -0.3690
 1612W        W18459  10.447   1.895  14.739 -0.0692  0.0704 -0.0405
 1613W        W18460   9.436   6.193   0.893  0.3461 -0.0249  0.0953
 1614W        W18461   3.404   9.798  11.759  0.3575 -0.2649 -0.2958
 1615W        W18462  10.517  14.158   0.160 -0.2395 -0.2521  0.0901
 1616W        W18463   1.233   5.951   1.871  0.3098 -0.3145 -0.0786
 1617W        W18464  18.567  11.865   4.366 -0.1124 -0.0889  0.2317
 1618W        W18465   9.373  15.167  13.358  0.1176 -0.1694 -0.0097
 1619W        W18466   4.567   4.488  12.209  0.0159  0.0644 -0.4399
 1620W        W18467   5.605   6.541   5.242 -0.0686  0.1266  0.2419
 1621W        W18468   9.517  13.643   3.504 -0.2055 -0.3063 -0.1285
 1622W        W18469   4.415   9.802  11.370 -0.1910 -0.3822 -0.0241
 1623W        W18470  18.201  13.709   3.472 -0.1366  0.2247 -0.4107
 1624W        W18471  12.391   5.053   0.763 -0.0307  0.0511  0.1136
 1625W        W18472   6.884   4.438  15.029  0.2346 -0.1006  0.1993
 1626W        W18473   0.210  12.383  11.182 -0.0877 -0.2845  0.1485
 1627W        W18474   6.187   0.156   3.419  0.0766 -0.2375  0.2018
 1628W        W18475   2.172   1.479  13.369 -0.3489 -0.2231  0.1600
 1629W        W18476   7.342  10.984   1.334 -0.1016  0.2222  0.0771
 1630W        W18477  10.464   6.069  12.123 -0.2413  0.2384 -0.0068
 1631W        W18478  14.845  10.610  10.866  0.1627  0.0137  0.0103
 1632W        W18479  12.454   1.398   2.796 -0.0302  0.2103  0.3690
 1633W        W18480  11.875  16.218  14.076 -0.0119 -0.0685  0.0698
 1634W        W18481  13.305   3.560  14.807 -0.2222 -0.1098 -0.1624
 1635W        W18482  15.195  10.158  15.093 -0.1470  0.0056 -0.4186
 1636W        W18483   8.959   7.605   4.835 -0.0778  0.1175 -0.0634
 1637W        W18484  16.490   9.572   2.629  0.0187 -0.1307 -0.1436
 1638W        W18485  16.157  13.381  14.133  0.3021 -0.3294  0.1627
 1639W        W18486  13.460   5.121   0.940  0.3220  0.0236  0.0622
 1640W        W18487  15.628   5.866   2.765 -0.0028 -0.1197  0.2562
 1641W        W18488  18.229  13.022  12.990  0.2707  0.0908  0.0127
 1642W        W18489   8.539   9.995   2.269  0.3215  0.1512 -0.0494
 1643W        W18490  16.838  17.609   4.336  0.1148 -0.0089 -0.1508
 1644W        W18491   2.138   8.975  13.307 -0.0885  0.1511 -0.0546
 1645W        W18492  12.506  17.085   4.608 -0.0833 -0.0503 -0.1134
 1646W        W18493  13.078   6.572   0.543 -0.3171  0.2141 -0.2335
 1647W        W18494  13.233  16.190  14.416 -0.3235  0.0214 -0.3433
 1648W        W18495  10.669   4.107   4.812 -0.0617  0.2665  0.0046
 1649W        W18496  15.255   7.911  12.835  0.2774 -0.0095 -0.0672
 1650W        W18497   2.446  12.086  12.687 -0.0612 -0.2587  0.3607
 1651W        W18498   5.356   4.384  11.166 -0.0755  0.1193 -0.0003
 1652W        W18499   9.850   5.727   1.791  0.0504 -0.0775 -0.0466
 1653W        W18500   9.262   7.622   1.930  0.0172 -0.1244  0.3133
 1654W        W18501   0.510   0.981  14.677 -0.2217 -0.1433 -0.0170
 1655W        W18502   0.575  11.420  11.395 -0.3486  0.0466  0.0552
 1656W        W18503   6.877  18.361   3.384 -0.1728 -0.1284  0.1103
 1657W        W18504  14.256   7.285  10.921 -0.0914 -0.1097 -0.0594
 1658W        W18505  10.700   3.843  14.952  0.0015 -0.5122 -0.0802
 1659W        W18506   9.041   2.570   0.240 -0.3204 -0.1168 -0.0972
 1660W        W18507  14.645   7.072   1.565 -0.1027  0.5177 -0.1046
 1661W        W18508   6.876  15.793  13.510  0.3318  0.2414 -0.3861
 1662W        W18509  15.569  11.410   3.180  0.2254  0.2209 -0.1890
 1663W        W18510  15.032  10.632   0.445 -0.1844 -0.0682 -0.1060
 1664W        W18511   7.574  11.249  14.275  0.2080 -0.0854 -0.1756
 1665W        W18512   6.722   3.976   0.750  0.1411  0.5099  0.2054
 1666W        W18513  18.334   4.641   4.791 -0.3897  0.1913 -0.1770
 1667W        W18514   2.863  12.054   0.674  0.0281 -0.0855 -0.2552
 1668W        W18515   6.644  17.503   2.543 -0.0871 -0.1919  0.3227
 1669W        W18516  15.191  12.453  13.862  0.1190 -0.0768 -0.3140
 1670W        W18517  16.482   2.145   4.303  0.1189 -0.1533  0.1421
 1671W        W18518   2.235  17.496   2.118 -0.2641  0.0091  0.2118
 1672W        W18519   1.517   3.651  15.117 -0.2800  0.2740 -0.0944
 1673W        W18520  16.227  12.973  13.807 -0.2918 -0.1253 -0.0714
 1674W        W18521   2.473  18.119  10.743  0.1234 -0.0433 -0.0530
 1675W        W18522  17.333   9.949   0.645  0.1865 -0.1321 -0.1080
 1676W        W18523  11.492   2.527  14.478 -0.0182 -0.1495  0.3045
 1677W        W18524   8.533   1.421   3.839  0.1317  0.0656 -0.1020
 1678W        W18525  14.088  15.930   3.699  0.0026  0.1674 -0.1473
 1679W        W18526  10.256   3.883  14.826 -0.0801 -0.1462  0.0555
 1680W        W18527   1.772   9.580  13.888 -0.2577  0.3520  0.0388
 1681W        W18528  14.895  13.029   5.069 -0.2112  0.2305  0.0707
 1682W        W18529  11.157   0.023  12.255 -0.1742  0.2838  0.0510
 1683W        W18530   3.931  17.802  14.868  0.1585 -0.0179  0.0718
 1684W        W18531   6.469   9.695   4.480 -0.0262  0.3170 -0.1743
 1685W        W18532  18.573  13.012  11.272  0.2510 -0.0065 -0.0719
 1686W        W18533  18.704   3.706   2.989 -0.1028 -0.0508 -0.0057
 1687W        W18534   6.583   9.401  13.050  0.1770  0.3211 -0.2078
 1688W        W18535   1.616  11.282  14.718  0.1609  0.0872  0.2773
 1689W        W18536  16.647   1.590   4.891 -0.1530 -0.2218  0.1974
 1690W        W18537  17.358  12.462  13.208  0.1839  0.0654 -0.0888
 1691W        W18538   6.561  14.228   1.344 -0.3985 -0.0510  0.1941
 1692W        W18539  13.525   7.818   1.286  0.1915  0.1138 -0.0402
 1693W        W18540   4.504   9.395   3.128  0.0641 -0.1770  0.0372
 1694W        W18541  13.023  10.227   2.545  0.2352  0.0210 -0.2079
 1695W        W18542  13.429   5.187   1.444  0.0790  0.0482  0.1364
 1696W        W18543   5.894   7.371   4.354  0.2143  0.0955  0.0610
 1697W        W18544   2.485   5.511   0.581  0.3780  0.2720  0.3798
 1698W        W18545   9.102  12.940   3.981 -0.1414 -0.0509  0.0519
 1699W        W18546   7.144   8.951  13.689  0.0297 -0.1069  0.1607
 1700W        W18547  13.979  17.328  11.946 -0.1740  0.0935  0.1296
 1701W        W18548   0.539  10.034   5.471 -0.0420  0.0868  0.1369
 1702W        W18549  13.517   9.025  12.206 -0.0951  0.0938 -0.1611
 1703W        W18550   2.700  14.273   0.705  0.1385  0.1134 -0.1279
 1704W        W18551   0.062  15.210  15.192 -0.1312  0.3918  0.0319
 1705W        W18552   2.664  17.097   1.287 -0.0510  0.1935 -0.1760
 1706W        W18553  15.974  11.494  13.742 -0.1865 -0.1280 -0.1974
 1707W        W18554  10.235   0.552   1.619 -0.1013  0.0362  0.0464
 1708W        W18555   4.914   2.917   3.931 -0.3151  0.0961  0.2114
 1709W        W18556  15.618   6.160   5.622 -0.0379  0.0658  0.0585
 1710W        W18557  12.479   7.727   0.438 -0.1191 -0.1839 -0.0185
 1711W        W18558  16.047   4.225   1.930  0.0494  0.0666  0.0293
 1712W        W18559  17.644   6.054  14.763  0.0279  0.1983  0.1678
 1713W        W18560  13.031  18.456   5.244  0.0406  0.3797  0.0102
 1714W        W18561   5.374   2.426  15.227 -0.0271 -0.0401 -0.0921
 1715W        W18562   8.077   2.136   1.229 -0.3580  0.1124  0.1980
 1716W        W18563  18.615  17.119   2.328 -0.2451 -0.0982 -0.0795
 1717W        W18564  12.286   9.970   1.664 -0.1807  0.1222 -0.1460
 1718W        W18565   7.720  16.098   0.026 -0.1635  0.0502 -0.0928
 1719W        W18566   2.248   7.542   2.265  0.1503  0.2377  0.1255
 1720W        W18567   1.593   8.988   0.795  0.1302  0.1560  0.1714
 1721W        W18568  17.533  11.024   2.752 -0.0951  0.0248  0.0310
 1722W        W18569  14.868  17.846   5.139 -0.2043  0.2523  0.0323
 1723W        W18570  16.344   8.336   5.260 -0.1591  0.0269 -0.2246
 1724W        W18571  13.490   7.565  10.858 -0.1917 -0.0048  0.0824
 1725W        W18572   1.397  10.239   2.714 -0.2238  0.3301 -0.2615
 1726W        W18573  12.388   5.942  11.575  0.1924  0.1685  0.1183
 1727W        W18574   5.501   4.872   5.703  0.0784  0.1818  0.2485
 1728W        W18575   3.936   0.371  13.455  0.2448 -0.2398  0.0686
 1729W        W18576  17.356   7.872  12.890  0.0410 -0.0008 -0.1813
 1730W        W18577   4.283   4.600  15.023 -0.3895 -0.2441 -0.0555
 1731W        W18578  12.553  18.596  15.395 -0.0152  0.1486  0.0731
 1732W        W18579  16.840  17.052  14.268  0.3469  0.2451 -0.0894
 1733W        W18580  12.350   9.617   2.639 -0.4122  0.1401  0.1149
 1734W        W18581  12.322  10.839   5.150  0.2794  0.1575  0.0068
 1735W        W18582   2.585  17.806  12.788 -0.0141  0.1844  0.2406
 1736W        W18583  10.585   2.992   4.964  0.0378  0.0568  0.1699
 1737W        W18584   6.449   7.515  11.473 -0.4301  0.1889  0.3391
 1738W        W18585  11.235  14.345   1.358 -0.1106  0.1920  0.1180
 1739W        W18586   3.284   4.702   1.012 -0.3337  0.2060 -0.0949
 1740W        W18587   7.074   5.527  13.735  0.2087  0.3026 -0.0130
 1741W        W18588   0.263  13.174   2.634 -0.1748 -0.0010  0.1909
 1742W        W18589  17.411  15.329   2.717 -0.0459  0.0519 -0.0305
 1743W        W18590  17.793   2.643   1.520 -0.2997  0.0526  0.2166
 1744W        W18591   4.184  12.718   2.135  0.0418 -0.0376  0.2803
 1745W        W18592   4.346  13.643   4.418 -0.2299  0.1858  0.2316
 1746W        W18593   8.587   0.581  10.802  0.0198  0.3372  0.2221
 1747W        W18594   0.768  15.083   2.391 -0.5396  0.0094 -0.0879
 1748W        W18595   4.264   8.935  11.017 -0.0610 -0.0635  0.2784
 1749W        W18596  11.831  16.632  13.345  0.2073  0.4144  0.0260
 1750W        W18597   2.909   2.682  11.208 -0.3113  0.2381 -0.0011
 1751W        W18598  18.598   2.924   4.693  0.0203 -0.0081  0.3279
 1752W        W18599   8.655   4.990   1.838 -0.0453  0.2551 -0.1595
 1753W        W18600   1.074  17.581   3.430  0.2638 -0.1657  0.0173
 1754W        W18601  17.372   6.028   3.418 -0.2364  0.1262  0.1638
 1755W        W18602   6.633   3.287  12.447  0.2607 -0.2212  0.0604
 1756W        W18603  10.233   5.163  12.421 -0.3536 -0.1861  0.2069
 1757W        W18604   9.762  12.407  14.720  0.4626 -0.0449 -0.3508
 1758W        W18605   9.859  16.442  12.903  0.0080  0.0503  0.1306
 1759W        W18606   3.806   7.082   5.083 -0.3271 -0.1114 -0.4805
 1760W        W18607  15.000  10.208  11.097  0.3217 -0.0998  0.1571
 1761W        W18608   0.576   1.125  11.176  0.3130 -0.0441  0.0310
 1762W        W18609   8.819   1.450   0.417 -0.1649  0.0427 -0.0928
 1763W        W18610   8.006   3.580  12.552  0.1386 -0.0462  0.0095
 1764W        W18611   6.704  17.789  15.366 -0.1491 -0.3281 -0.0753
 1765W        W18612  14.857   9.261  10.778  0.0273  0.4531  0.0227
 1766W        W18613  16.638  17.006  11.344  0.1082  0.3998  0.0710
 1767W        W18614   9.756  17.245  11.867  0.0858  0.0598  0.1434
 1768W        W18615   0.499   7.115   5.080 -0.4640  0.1047 -0.0047
 1769W        W18616   7.796  10.378   4.424 -0.0403  0.4745  0.0387
 1770W        W18617   0.460   5.907   3.554  0.1840 -0.2432 -0.2278
 1771W        W18618   7.716   8.991   5.446 -0.0384  0.2287  0.0422
 1772W        W18619   4.377  17.326   2.877 -0.0753 -0.0234 -0.0090
 1773W        W18620   6.689   0.194   4.602 -0.0417  0.2242 -0.3525
 1774W        W18621   5.316  13.244  13.964  0.0535  0.0300 -0.0933
 1775W        W18622   2.521  11.078  13.092 -0.1877 -0.0457 -0.0532
 1776W        W18623   6.543  16.742  11.538  0.1948 -0.0099  0.1755
 1777W        W18624  13.484   6.610   0.847  0.1623 -0.2323  0.1788
 1778W        W18625  15.137   0.523  14.862 -0.0137 -0.0664  0.0010
 1779W        W18626   7.496  11.784  15.391  0.0892  0.1701 -0.4168
 1780W        W18627  11.942  18.376  12.499 -0.0238 -0.1835  0.3228
 1781W        W18628   2.344  11.496  13.310  0.1395 -0.0930  0.1861
 1782W        W18629   1.885  11.517   4.550 -0.3348  0.0335 -0.3240
 1783W        W18630   9.717   6.405  11.982  0.0222  0.0292  0.2776
 1784W        W18631  12.901   3.518  10.635 -0.0921  0.0262  0.0963
 1785W        W18632  13.343  13.678  10.962  0.3383 -0.1825  0.3029
 1786W        W18633  12.938  11.446   1.228 -0.0131 -0.0454  0.2822
 1787W        W18634  18.011  15.853  12.690 -0.0239 -0.1821 -0.0432
 1788W        W18635   1.044  15.237  14.652  0.1406  0.4448  0.1987
 1789W        W18636   1.356   7.420   4.323 -0.0331  0.0886 -0.1914
 1790W        W18637   8.633   4.742  13.061  0.0851 -0.0747  0.1744
 1791W        W18638  16.874  14.184   1.324  0.0245 -0.0884  0.0642
 1792W        W18639   2.635  15.643  14.184  0.0463 -0.1076  0.1466
 1793W        W18640   4.072  13.976   1.460  0.2048  0.0399 -0.2520
 1794W        W18641  13.876  12.356  15.083  0.1850  0.0867  0.0777
 1795W        W18642  10.286   2.926   4.529 -0.1500 -0.0551 -0.1619
 1796W        W18643  14.649   3.315  14.209 -0.2049  0.2823  0.2395
 1797W        W18644   7.198   8.246  13.343 -0.1164 -0.2131  0.3470
 1798W        W18645   5.700  15.169   2.821 -0.3152 -0.1451 -0.1758
 1799W        W18646  17.155  16.022   3.812 -0.1726 -0.4216  0.0366
 1800W        W18647  14.482  11.056  14.303 -0.0098 -0.4463 -0.1325
 1801W        W18648  13.444  16.451  15.249 -0.0862 -0.0548  0.1089
 1802W        W18649   5.959   8.730  10.923 -0.1007 -0.1944 -0.2918
 1803W        W18650   3.665   0.837  13.419 -0.0376  0.1740  0.0980
 1804W        W18651   5.119   7.120  14.044 -0.0963  0.2338  0.1748
 1805W        W18652  10.902  11.528  14.911  0.3163 -0.1529  0.0641
 1806W        W18653  10.591  12.078  12.792  0.0282 -0.1524 -0.2316
 1807W        W18654  11.468   0.578   4.408  0.3196  0.1596 -0.0702
 1808W        W18655   3.967   0.953   0.855 -0.1636 -0.0923  0.0087
 1809W        W18656  13.299   4.260   5.932  0.0278  0.0022  0.0829
 1810W        W18657   8.557   1.751  13.728  0.0654  0.1067  0.1680
 1811W        W18658   6.640   3.958   2.827 -0.2799  0.0616  0.1542
 1812W        W18659  10.956  18.077  12.369  0.3702  0.3589  0.3301
 1813W        W18660   0.486   3.129  11.776  0.0877 -0.0403  0.0594
 1814W        W18661  16.781   4.097  15.339  0.1169 -0.1726 -0.3291
 1815W        W18662  18.505   7.114   0.282  0.1433  0.0689  0.1481
 1816W        W18663  16.075   9.976   2.108 -0.1255 -0.1804 -0.0226
 1817W        W18664  15.936   0.428   3.229 -0.1541 -0.1394 -0.3145
 1818W        W18665  11.742   0.946  15.343 -0.0598 -0.3870  0.0182
 1819W        W18666   7.740  17.274   5.017  0.1928  0.2715 -0.1530
 1820W        W18667   7.057   4.384   3.313  0.2949 -0.0948 -0.4517
 1821W        W18668  12.001  13.011   4.826  0.1247 -0.0232  0.3366
 1822W        W18669   2.375  18.175   5.354 -0.1120 -0.0724  0.1072
 1823W        W18670  13.906  17.116   4.532  0.1603 -0.1808 -0.0745
 1824W        W18671   9.589  13.077   5.124  0.0437  0.0258 -0.0785
 1825W        W18672  12.676   1.953   0.850 -0.1663  0.1063  0.3440
 1826W        W18673   6.332   6.071  14.028  0.1543  0.2151 -0.0780
 1827W        W18674  17.899   6.973  12.627  0.2788 -0.2571 -0.2520
 1828W        W18675  16.356   6.617   1.208  0.0726 -0.2169 -0.0716
 1829W        W18676   4.626  11.827   4.904  0.0681  0.1050 -0.1310
 1830W        W18677   6.176   8.676  13.678 -0.1408 -0.0918 -0.4034
 1831W        W18678  17.564   7.619   0.544 -0.0009 -0.1953 -0.1578
 1832W        W18679  14.164   3.241  12.993  0.0359 -0.3085  0.0480
 1833W        W18680   8.195  15.863  12.549  0.1008 -0.1404 -0.0421
 1834W        W18681  18.832  17.929  15.461  0.0601  0.0407 -0.1750
 1835W        W18682  11.143   9.247   6.226  0.0599  0.2462 -0.0088
 1836W        W18683  16.458  14.415  11.482  0.3826 -0.1653 -0.0773
 1837W        W18684  16.870  15.932   5.181  0.1686 -0.1216 -0.0003
 1838W        W18685  12.680  11.480  11.788  0.0762  0.0323 -0.0594
 1839W        W18686   6.464  18.204  13.097 -0.3412 -0.3319  0.0447
 1840W        W18687   1.008   6.026  13.284  0.1257  0.2140  0.0033
 1841W        W18688   4.175   2.168   3.412  0.0622  0.3093  0.2080
 1842W        W18689  15.316  18.226  14.423  0.1214  0.1590  0.1821
 1843W        W18690   6.324  15.727  11.474 -0.3050  0.1057  0.3945
 1844W        W18691   2.201  16.462  12.678 -0.2442 -0.0870 -0.0831
 1845W        W18692   6.043   4.826  13.144  0.1938 -0.0213  0.0371
 1846W        W18693   6.613   7.793  11.014  0.2541  0.1025  0.1594
 1847W        W18694  14.950   9.000   2.404  0.3690 -0.2571 -0.0146
 1848W        W18695  12.047   8.787  12.832 -0.4680  0.2126  0.1873
 1849W        W18696   7.392   4.464   1.314 -0.2176 -0.0560  0.0363
 1850W        W18697  15.566   8.725   5.398 -0.1367  0.0855  0.1286
 1851W        W18698   2.737   9.780   1.226  0.2328  0.1520  0.0607
 1852W        W18699  15.003   9.700   4.122  0.0977  0.2769 -0.0228
 1853W        W18700  14.996  16.704  13.479  0.0266  0.2174  0.0615
 1854W        W18701  12.506  13.800   0.517 -0.0045 -0.1530 -0.0128
 1855W        W18702   9.095   4.412  11.682 -0.2531  0.2962  0.1880
 1856W        W18703  16.405  18.130  14.915  0.2586 -0.2227 -0.1055
 1857W        W18704  12.734   7.832  11.905  0.1127  0.0708 -0.0955
 1858W        W18705  11.377  16.445   4.081  0.2476 -0.1786  0.1650
 1859W        W18706  10.463  15.586   4.476 -0.0652 -0.2689 -0.3866
 1860W        W18707   7.634   9.607  14.047 -0.1770 -0.1889 -0.1230
 1861W        W18708  16.231  10.170   5.088 -0.0201  0.1295 -0.0466
 1862W        W18709  11.358   6.662   5.022 -0.2668  0.0637  0.1992
 1863W        W18710   5.205   4.551  13.490  0.0844 -0.3678 -0.1543
 1864W        W18711  14.642  10.838  15.181 -0.3999 -0.2838  0.0894
 1865W        W18712   1.221  11.220   0.312  0.1262  0.0349  0.0496
 1866W        W18713   9.578  16.685  15.193  0.1191  0.2993  0.0442
 1867W        W18714   8.056   9.863  14.110 -0.0335 -0.1844  0.0736
 1868W        W18715  14.409   8.022  10.762  0.3285 -0.0601 -0.0313
 1869W        W18716   4.002  11.643  15.143 -0.0831  0.0789 -0.1161
 1870W        W18717  13.967   3.257  12.374 -0.1119  0.4256 -0.0619
 1871W        W18718   5.906  11.704  14.473  0.1134 -0.1541 -0.1018
 1872W        W18719   3.653  16.155   4.152 -0.2631  0.1344  0.2598
 1873W        W18720   0.208  17.262   1.020  0.0532 -0.1026 -0.1720
 1874W        W18721  16.780   6.511   2.566 -0.0069  0.1040  0.1487
 1875W        W18722  15.770  11.964   4.558  0.2188 -0.0600  0.0299
 1876W        W18723   8.749   3.531   2.390  0.1528 -0.1838  0.2831
 1877W        W18724  11.038   7.167  15.419 -0.1093  0.1557  0.1416
 1878W        W18725   4.460   6.415   3.950  0.0451  0.2715 -0.0582
 1879W        W18726   2.632   7.687   1.320  0.0768 -0.1511  0.2922
 1880W        W18727   5.081  18.426  11.533  0.4152  0.3969  0.2789
 1881W        W18728   3.702  11.966   4.726  0.0910 -0.1745 -0.1750
 1882W        W18729   0.816   5.753   5.158 -0.0716  0.1237  0.0647
 1883W        W18730   0.962  18.649  10.762  0.1092 -0.0873 -0.2188
 1884W        W18731   1.560   0.712  15.385  0.1626 -0.0101 -0.2547
 1885W        W18732   4.977  13.762  15.279 -0.1697  0.0670  0.0948
 1886W        W18733   6.661   0.776   0.773  0.1463  0.2191  0.0657
 1887W        W18734  17.096   6.273  12.481  0.0681  0.1605 -0.0158
 1888W        W18735   2.395   3.809  10.159 -0.2194 -0.2438 -0.0568
 1889W        W18736   8.483   2.059  12.096 -0.0721  0.2248  0.2292
 1890W        W18737   3.703  10.760  11.829  0.0467  0.3675 -0.0947
 1891W        W18738  14.049   3.364   4.101 -0.1413  0.2275 -0.0871
 1892W        W18739   0.840   1.316  12.426  0.0718  0.0551  0.1376
 1893W        W18740   8.419  12.471   3.811 -0.1578 -0.0779  0.2536
 1894W        W18741   2.065   5.309   5.611 -0.2358  0.2721 -0.0112
 1895W        W18742  18.143  16.123  11.708 -0.0015  0.1464 -0.0798
 1896W        W18743   0.993  12.730   1.022 -0.0322 -0.0444 -0.2518
 1897W        W18744   3.207   7.696  14.042  0.2394  0.3105  0.1513
 1898W        W18745   8.251  17.699  13.916  0.0699 -0.0995  0.0225
 1899W        W18746   7.785   4.554  11.670 -0.0559  0.1781  0.0214
 1900W        W18747  12.685  14.977  11.043  0.2654 -0.1769 -0.0206
 1901W        W18748   3.291  10.195   0.909  0.0439 -0.1156 -0.1938
 1902W        W18749  17.234   3.506  12.383  0.0964  0.0296  0.2928
 1903W        W18750   3.553   4.000   3.504  0.3457 -0.1969  0.0835
 1904W        W18751   4.070  13.335   0.247 -0.3145  0.0051  0.4386
 1905W        W18752  11.502  16.829   0.402  0.1601  0.1146 -0.2084
 1906W        W18753   5.276  13.488  11.908 -0.2282  0.4453 -0.0452
 1907W        W18754   9.213   4.383  10.009 -0.0009  0.0170  0.2090
 1908W        W18755   8.945  15.520   5.423  0.2042  0.0968 -0.0619
 1909W        W18756  10.623  17.592   1.045  0.2418 -0.4403  0.3653
 1910W        W18757   0.508   1.475   0.763 -0.0505 -0.1802 -0.2468
 1911W        W18758  16.109   4.191  13.998 -0.0504 -0.2986 -0.0410
 1912W        W18759  17.893   3.090   5.778  0.1459 -0.2463  0.1356
 1913W        W18760   2.054   0.384   2.066  0.0177  0.1045 -0.0061
 1914W        W18761   3.112   2.488   1.652  0.0858  0.5408 -0.1851
 1915W        W18762   4.160   8.980  14.567  0.1464 -0.1836  0.2113
 1916W        W18763   2.339  10.229   1.757 -0.3571  0.2734 -0.0034
 1917W        W18764   0.250  18.327   0.776 -0.2873  0.0165 -0.0821
 1918W        W18765   5.366  17.884  10.008  0.0578  0.1333  0.3191
 1919W        W18766   8.873  17.208   4.013  0.2437  0.1816  0.1047
 1920W        W18767  17.290  10.103  11.327  0.2487 -0.0656  0.1333
 1921W        W18768  17.627   8.794  11.427  0.1212 -0.1800 -0.0178
 1922W        W18769  10.318   9.920   1.379 -0.1674  0.2427 -0.0221
 1923W        W18770   0.741  16.383  10.819  0.1343  0.1034 -0.1343
 1924W        W18771   6.990   1.873  12.596 -0.1179  0.1865  0.3037
 1925W        W18772  11.905  13.123   1.631  0.2724  0.1493 -0.1889
 1926W        W18773  16.883  16.495  13.319 -0.2490 -0.3401 -0.1750
 1927W        W18774  17.097   2.766   1.834  0.0506 -0.0780  0.1628
 1928W        W18775  14.114  13.451   2.734 -0.2189 -0.0090 -0.3296
 1929W        W18776  12.529   0.894   5.580  0.2245 -0.3225 -0.1029
 1930W        W18777   2.037  12.745   1.819 -0.3163  0.1459  0.2304
 1931W        W18778  11.623   3.473   2.241  0.0174 -0.2745  0.0646
 1932W        W18779  10.649  16.006   2.372 -0.1837  0.2120 -0.1089
 1933W        W18780   9.067  18.000  15.049  0.0709 -0.0977  0.4589
 1934W        W18781  10.530   5.555  12.311 -0.2263  0.1959  0.0626
 1935W        W18782   1.781  14.694  15.061 -0.1015 -0.0267 -0.1638
 1936W        W18783   5.448   1.836  11.446 -0.1685  0.0731  0.5171
 1937W        W18784   1.645   1.159   5.001 -0.0389 -0.0291 -0.0999
 1938W        W18785   2.722  13.564   2.463 -0.0835  0.0921  0.2073
 1939W        W18786   3.251  14.532   2.867  0.1115 -0.2637 -0.0580
 1940W        W18787  18.037  15.618   4.704  0.6381  0.2854  0.1119
 1941W        W18788   6.168   2.964   2.441  0.1110  0.0233  0.2292
 1942W        W18789   2.413   6.532   4.981  0.0109  0.0382  0.2568
 1943W        W18790  15.784  14.742  13.321  0.1228 -0.2689  0.2157
 1944W        W18791   3.807  11.794  13.008  0.1024  0.1780 -0.2500
 1945W        W18792   1.572  10.721  11.933  0.2841  0.1734 -0.2265
 1946W        W18793   8.959   0.346  15.357 -0.1897 -0.0690  0.1629
 1947W        W18794   8.533   2.216   3.912  0.0213  0.0368  0.2604
 1948W        W18795  10.004   0.955   4.905  0.3528  0.0394 -0.0996
 1949W        W18796  14.145   1.907   2.734 -0.0452 -0.2162 -0.1315
 1950W        W18797   2.141   9.189  13.781  0.0436 -0.2561 -0.3367
 1951W        W18798  16.136  17.510   0.340  0.2287 -0.0769 -0.2133
 1952W        W18799  10.957  10.305  15.417  0.1525  0.2878 -0.0957
 1953W        W18800   8.788   1.999   5.353  0.5488 -0.2977 -0.0313
 1954W        W18801   9.257  17.602   3.934  0.1929 -0.1096  0.0487
 1955W        W18802  14.574   8.249  11.599 -0.1547  0.1583  0.2593
 1956W        W18803  17.179  10.818  13.738 -0.3317 -0.2699  0.0684
 1957W        W18804  11.350  14.271  13.715  0.1219 -0.0787 -0.0886
 1958W        W18805  13.636  12.852  11.482 -0.1561 -0.4811 -0.0690
 1959W        W18806  17.821  15.985  10.831  0.1033 -0.1910  0.0863
 1960W        W18807   3.650  14.289  13.241  0.1470  0.2796  0.1192
 1961W        W18808  11.969  17.569  11.985 -0.1118  0.2363 -0.1927
 1962W        W18809  16.301   5.061  12.640 -0.3398  0.0067 -0.0299
 1963W        W18810  12.347   2.126   1.187 -0.1242  0.2168  0.2028
 1964W        W18811  15.901  12.233  15.490 -0.1461 -0.1587  0.1343
 1965W        W18812  11.815   4.543  12.441  0.0438  0.0622 -0.0660
 1966W        W18813   2.118   6.607  13.376  0.0251 -0.1747 -0.0299
 1967W        W18814   8.743   1.588   5.052 -0.1243 -0.1741  0.1937
 1968W        W18815  12.235   9.205   2.955  0.3306 -0.0453 -0.0529
 1969W        W18816  15.835  10.387   0.791 -0.0757 -0.2374  0.3410
 1970W        W18817   2.603   9.082   0.485  0.0361 -0.2159 -0.0768
 1971W        W18818   5.388  13.307   3.103 -0.2374 -0.1324 -0.0100
 1972W        W18819   7.464   4.193  12.878 -0.0655 -0.1278  0.0272
 1973W        W18820  11.296   0.029  11.741 -0.0584 -0.3898 -0.4044
 1974W        W18821   0.792  11.064  14.967  0.3025 -0.1044  0.0064
 1975W        W18822  14.555  11.106   4.218  0.4554 -0.0376 -0.2052
 1976W        W18823  17.059  13.696   3.370  0.0160  0.1460 -0.0549
 1977W        W18824   2.017   5.854   1.766 -0.0471  0.3807  0.0353
 1978W        W18825   5.549   3.327   0.673 -0.1527  0.0250 -0.1130
 1979W        W18826   0.753   5.249   2.917 -0.1907  0.0235 -0.0238
 1980W        W18827   6.762  12.946  11.840 -0.0401 -0.1615 -0.1986
 1981W        W18828  16.348   8.386  14.009 -0.1487  0.0325 -0.0631
 1982W        W18829   9.016   4.986  13.488  0.3465 -0.1682 -0.3077
 1983W        W18830   8.290   4.397   3.898  0.2297 -0.3523 -0.1933
 1984W        W18831   4.799  15.790   0.269  0.3007 -0.0653 -0.2253
 1985W        W18832  16.574   6.787  11.938 -0.1291  0.1230 -0.1891
 1986W        W18833   3.518   4.462  13.679 -0.1384  0.2654  0.2565
 1987W        W18834  16.244  10.231   1.084  0.0440 -0.2253 -0.0423
 1988W        W18835  13.909   3.311   2.159 -0.0463  0.0545  0.0769
 1989W        W18836   2.234   3.712   1.681  0.1071  0.0234 -0.0279
 1990W        W18837   7.989  12.793  14.448  0.0507  0.1273  0.0571
 1991W        W18838   6.289  11.423   0.009 -0.1688 -0.1952 -0.1196
 1992W        W18839  16.126  16.380   1.903  0.1659  0.2267 -0.0135
 1993W        W18840  10.866   7.373  12.467  0.1317 -0.2647  0.0506
 1994W        W18841  16.979   4.814   4.340 -0.0858 -0.4091 -0.0536
 1995W        W18842   2.635   1.953   0.721  0.1305  0.1669 -0.4892
 1996W        W18843  15.456   8.511   1.893  0.0137 -0.1416 -0.0800
 1997W        W18844   8.382  16.972  14.683  0.1002  0.0391  0.1304
 1998W        W18845  15.046  18.615   2.808  0.1540  0.1416 -0.1273
 1999W        W18846   2.781   9.262  12.358 -0.0736 -0.3419 -0.0113
 2000W        W18847   5.508  12.756   0.205  0.0526  0.0244 -0.1198
 2001W        W18848   8.951  18.234  12.143 -0.1891 -0.1414 -0.1495
 2002W        W18849   8.577  11.263  14.341 -0.2084  0.0608  0.0687
 2003W        W18850   2.114   4.213  13.134 -0.0139 -0.0164 -0.0031
 2004W        W18851  11.345  15.030  14.150  0.0243 -0.0066 -0.0045
 2005W        W18852  12.327  17.240  14.200  0.2000 -0.3329 -0.5014
 2006W        W18853  17.446  14.975   4.053 -0.1286 -0.0590 -0.2030
 2007W        W18854   3.049   0.207   4.734 -0.1191 -0.1243 -0.1360
 2008W        W18855  15.427   2.611  13.231  0.1878  0.0361 -0.1643
 2009W        W18856  10.907  13.691   3.913  0.3725  0.2431 -0.0683
 2010W        W18857  12.361  18.587   4.427 -0.1447 -0.0836 -0.1081
 2011W        W18858   8.778   0.469   1.783 -0.0460 -0.1467  0.0380
 2012W        W18859  12.384   3.544   5.149  0.0376  0.0948 -0.0093
 2013W        W18860   2.846   1.518  11.008 -0.0296  0.0945  0.3510
 2014W        W18861  12.834  14.861  13.286  0.1929  0.0147  0.1216
 2015W        W18862  18.114  17.064  12.933  0.2629 -0.0022 -0.2003
 2016W        W18863  15.113  12.168   2.538  0.1360 -0.0860 -0.0562
 2017W        W18864  12.032  10.405   1.547 -0.1354 -0.5289 -0.0155
 2018W        W18865  16.688  15.743  12.445 -0.2700 -0.0076  0.0466
 2019W        W18866  11.071   4.469  13.986  0.0679  0.0165 -0.1254
 2020W        W18867  12.137   2.896   3.485 -0.2993  0.0122  0.1807
 2021W        W18868  17.434  11.931   5.344 -0.0500  0.1738 -0.2666
 2022W        W18869   4.174   0.384   2.478 -0.0435 -0.1957 -0.3121
 2023W        W18870  17.203  14.393   1.728  0.1109 -0.2084  0.0530
 2024W        W18871  15.787  11.007   4.248 -0.1639 -0.0440  0.1602
 2025W        W18872   3.953   7.398   1.719  0.0520 -0.0691 -0.2363
 2026W        W18873   5.958   1.158  14.487  0.0973  0.0710  0.0015
 2027W        W18874   5.540  15.062  15.527 -0.2202 -0.2154 -0.2043
 2028W        W18875   8.422   1.616  15.477 -0.0733 -0.0420  0.2037
 2029W        W18876   5.502   3.072   5.103  0.0172 -0.0435  0.1931
 2030W        W18877  15.188   4.622  11.476 -0.0146 -0.0186  0.0010
 2031W        W18878  11.106   7.533   2.182  0.0632  0.0933  0.1659
 2032W        W18879  11.859   4.505   1.698 -0.1036 -0.3522 -0.0082
 2033W        W18880  13.214  15.612   0.864 -0.0487 -0.1573  0.3828
 2034W        W18881   8.284  15.909  13.976  0.2071 -0.1474 -0.2459
 2035W        W18882   8.346   9.516  11.073  0.0172 -0.1355 -0.0440
 2036W        W18883   2.078  15.579  14.113 -0.1063 -0.2754  0.1089
 2037W        W18884  18.459  10.478   1.388 -0.1864 -0.2079 -0.1550
 2038W        W18885  14.759   9.227   1.629 -0.2421 -0.1676 -0.0022
 2039W        W18886   2.628  16.127  12.650  0.1380 -0.2075 -0.1859
 2040W        W18887   0.504  13.610   5.412  0.2186  0.1175 -0.0907
 2041W        W18888   8.344   8.819  13.651 -0.0929 -0.0321  0.2133
 2042W        W18889   4.569  15.028   3.400 -0.0364 -0.0077  0.1161
 2043W        W18890   9.136   9.531   5.111 -0.1491  0.1155 -0.0041
 2044W        W18891  16.118  12.465  12.453  0.0009 -0.1483 -0.1172
 2045W        W18892   3.109  12.242   2.414 -0.1077  0.0414  0.0706
 2046W        W18893   5.158  18.515  15.479 -0.0992  0.0376  0.0648
 2047W        W18894  11.575   0.836   1.401 -0.0478  0.2597  0.0734
 2048W        W18895   3.785  15.878   2.281  0.1192 -0.1247  0.0083
 2049W        W18896  18.736  16.761   3.381  0.0980 -0.3036  0.2354
 2050W        W18897  17.537  12.876  12.382  0.1693  0.0416  0.0475
 2051W        W18898  11.432   9.072   4.490 -0.1905 -0.3246 -0.0926
 2052W        W18899   0.239  10.375  13.798  0.2876 -0.0721 -0.2189
 2053W        W18900   3.007   4.527  10.478 -0.0057 -0.0013  0.2176
 2054W        W18901   6.839  11.655   2.675  0.0220  0.2141  0.4788
 2055W        W18902   5.610   8.832  11.896 -0.0440  0.0379 -0.1209
 2056W        W18903   1.942  17.307   2.820 -0.1149 -0.1199  0.0902
 2057W        W18904  18.733   9.748   3.946 -0.2460 -0.1996 -0.1579
 2058W        W18905  16.921  15.902   1.928  0.4057  0.0029  0.0175
 2059W        W18906  16.296   1.972   3.802  0.0029  0.1120 -0.1530
 2060W        W18907  12.727   5.022  11.886 -0.3306 -0.3909  0.3032
 2061W        W18908  15.187   7.999   0.223  0.0078 -0.3031 -0.2927
 2062W        W18909  18.204   0.075   4.347  0.1992  0.2683  0.1245
 2063W        W18910  15.075  11.530  11.934  0.0387 -0.0442  0.0850
 2064W        W18911   3.684   1.199  12.655 -0.4016  0.1351 -0.0591
 2065W        W18912   4.981  15.989   3.739 -0.1749 -0.0576 -0.1046
 2066W        W18913  12.217   9.006   1.266  0.1298 -0.3143  0.3530
 2067W        W18914  16.034  14.437   3.527  0.0077  0.0279  0.2041
 2068W        W18915  17.246   1.941   1.310 -0.1050 -0.3302  0.2161
 2069W        W18916   0.137  14.227  15.287 -0.2330  0.0102 -0.1260
 2070W        W18917   5.601   8.880   0.111  0.2981  0.0045 -0.0751
 2071W        W18918  12.637   1.977   4.865 -0.0568 -0.2499  0.0486
 2072W        W18919   9.899   7.408  14.774 -0.0392 -0.1322  0.2228
 2073W        W18920   3.708  17.758   1.281  0.0854 -0.0599  0.0896
 2074W        W18921   1.922   9.571   3.060 -0.0155  0.3081 -0.3102
 2075W        W18922   3.676  14.524   1.801 -0.3528  0.1486 -0.1578
 2076W        W18923  18.349   8.814   4.731 -0.3273  0.0017  0.2826
 2077W        W18924   3.185  18.627  11.009 -0.1912  0.3298  0.2661
 2078W        W18925   4.668  11.216   0.074  0.0408 -0.0596  0.2025
 2079W        W18926  17.727  15.287  13.745  0.0432 -0.0134 -0.1622
 2080W        W18927  11.933   7.492   5.012  0.0753 -0.0638  0.3270
 2081W        W18928   2.551  16.581   3.617  0.2981  0.1712  0.1581
 2082W        W18929  18.462  13.371  10.911 -0.0430  0.2436 -0.1447
 2083W        W18930  17.454  15.574   1.138  0.3054 -0.0904  0.0013
 2084W        W18931   5.822   0.852   3.267  0.0686  0.0817 -0.2387
 2085W        W18932   9.993   6.655  14.661  0.0180  0.0677  0.0081
 2086W        W18933  10.161  10.462   4.110  0.3113 -0.0261 -0.1514
 2087W        W18934  11.882  15.892   2.653 -0.0438  0.0087 -0.1316
 2088W        W18935  16.806   9.305   5.108  0.4019  0.3078  0.2284
 2089W        W18936  10.020   5.460   2.931  0.2579 -0.0743  0.1846
 2090W        W18937  13.822   5.648   4.160 -0.1502 -0.1323 -0.3178
 2091W        W18938  17.183   7.218   0.700  0.3331 -0.2118 -0.0534
 2092W        W18939   5.670   6.348  11.842 -0.2550  0.2779 -0.2513
 2093W        W18940  16.689   4.431  14.188  0.1069 -0.0799 -0.1443
 2094W        W18941   1.193   9.230  10.609  0.0593 -0.0136 -0.0236
 2095W        W18942   5.194   6.440   2.966  0.1686  0.0813 -0.0197
 2096W        W18943   4.304   6.739  14.478 -0.1738 -0.0383 -0.1514
 2097W        W18944  16.448   1.687   1.442  0.3302 -0.0731 -0.0252
 2098W        W18945   9.755   6.709   0.916 -0.1493 -0.0276  0.1310
 2099W        W18946  18.637  18.474  11.951  0.2737 -0.2731  0.0393
 2100W        W18947  16.938  14.623   3.364 -0.0034 -0.0473 -0.1983
 2101W        W18948  17.409   9.266  14.995  0.0631  0.1950 -0.1170
 2102W        W18949  16.975   8.605   2.572  0.0847  0.3368  0.0677
 2103W        W18950   8.198   9.189   2.536 -0.1692 -0.0402 -0.1188
 2104W        W18951   9.065   8.165   2.288  0.1630 -0.0639 -0.1130
 2105W        W18952   9.000  10.934   2.497  0.0401 -0.0676  0.0790
 2106W        W18953   6.510   9.200  11.769  0.2913 -0.0911 -0.2975
 2107W        W18954  13.577  14.941   0.815  0.1231  0.0213  0.0083
 2108W        W18955  15.299   8.814  13.531  0.1544  0.2092 -0.1000
 2109W        W18956   5.934   7.454   3.820  0.3282  0.2132 -0.3036
 2110W        W18957   4.625   3.589   5.052 -0.0342  0.3012  0.2790
 2111W        W18958  10.025  10.539  11.771 -0.0510 -0.0215 -0.0917
 2112W        W18959   9.295   9.871  13.552  0.0790  0.0116  0.1670
 2113W        W18960  16.794   4.987   3.838  0.0390 -0.0249 -0.5143
 2114W        W18961   5.988  17.306   5.555 -0.2701  0.2434 -0.3100
 2115W        W18962  14.112   3.373   0.057  0.1002  0.0590  0.0396
 2116W        W18963  10.007  10.621  13.981 -0.0637  0.2245 -0.0776
 2117W        W18964   7.963  11.234   4.681 -0.2408  0.3885  0.0610
 2118W        W18965   0.768   2.342   2.192 -0.1985 -0.2097  0.0133
 2119W        W18966  17.000   8.751   1.136 -0.1275  0.0906 -0.0586
 2120W        W18967   2.872  11.408   3.814  0.2982 -0.1027  0.0183
 2121W        W18968   7.862   4.230   4.748  0.2729 -0.3324 -0.1606
 2122W        W18969  10.399  10.732  14.245 -0.0193  0.3500 -0.1006
 2123W        W18970   4.642   2.234  12.911 -0.1474  0.1717  0.2193
 2124W        W18971  14.648   2.696   1.757  0.0116 -0.5511  0.0245
 2125W        W18972   5.537   3.858  12.807 -0.1140 -0.4271 -0.1357
 2126W        W18973   7.078   5.764   4.616  0.1023 -0.0802 -0.0407
 2127W        W18974   9.624  18.836   0.251  0.1253  0.0329  0.0139
 2128W        W18975   9.939  16.665  11.701 -0.1972 -0.1973 -0.0951
 2129W        W18976  18.472   1.206   5.042 -0.1492 -0.1772  0.0447
 2130W        W18977   1.205   1.823   0.149  0.0868  0.1255 -0.3435
 2131W        W18978   7.649  18.837   5.580 -0.2924 -0.2682  0.4916
 2132W        W18979   1.419  15.890  13.388  0.1033 -0.0808 -0.0894
 2133W        W18980  14.254   0.045  15.359  0.0803  0.0699 -0.0218
 2134W        W18981   6.541   3.728  15.233  0.1106  0.0213 -0.0361
 2135W        W18982  16.208  15.687   2.907 -0.2479  0.0901  0.1393
 2136W        W18983   5.807  14.697   2.707  0.1014 -0.1664 -0.1323
 2137W        W18984   8.064   7.514   2.197 -0.2731  0.2797 -0.0406
 2138W        W18985  10.637  15.235  11.387 -0.1511  0.2134  0.1908
 2139W        W18986   8.206  13.073  10.724 -0.1317 -0.0594 -0.0081
 2140W        W18987   8.256  10.513  11.689  0.2232 -0.0134 -0.1465
 2141W        W18988  12.298   9.050  15.224  0.0351 -0.1737  0.1423
 2142W        W18989  14.318  11.217   0.162  0.1572  0.2058 -0.2879
 2143W        W18990   8.929   4.355  14.831  0.1268 -0.1063  0.1190
 2144W        W18991   1.072  16.994   3.502 -0.2482  0.2017  0.3858
 2145W        W18992   1.741  14.621  12.278 -0.1472 -0.0275 -0.1710
 2146W        W18993   2.684   1.873   2.726 -0.0858  0.2091  0.1389
 2147W        W18994   3.382  15.615  13.779  0.0473 -0.4933 -0.0488
 2148W        W18995  11.149  18.478  14.832 -0.2963  0.1946 -0.0618
 2149W        W18996  12.168   6.463  12.051  0.0829 -0.0884 -0.1572
 2150W        W18997  11.827  14.086   3.951 -0.3013 -0.0506  0.1609
 2151W        W18998   3.358   0.370  12.173 -0.0876 -0.1061 -0.1969
 2152W        W18999  17.512   0.319  14.004 -0.0053  0.0998 -0.0919
 2153W        W19000  15.397   9.796   3.336  0.0178  0.2330 -0.1229
 2154W        W19001  10.917   2.438   3.164 -0.0257 -0.1971 -0.1299
 2155W        W19002   2.090   6.736  11.540 -0.1133 -0.1141  0.1366
 2156W        W19003   8.226   5.168   0.836 -0.2044  0.0270  0.4167
 2157W        W19004  12.958   0.441   2.021 -0.0840  0.2860 -0.0850
 2158W        W19005   4.026   0.177   3.544  0.0683  0.0483 -0.0069
 2159W        W19006   7.962  12.253  13.672  0.1452 -0.0794 -0.0554
 2160W        W19007  12.762  14.054   3.758  0.0890  0.0159 -0.0706
 2161W        W19008   9.260  11.763   1.732  0.1020  0.3719  0.0184
 2162W        W19009  12.211   3.410   2.165  0.0931  0.2491 -0.0736
 2163W        W19010   8.778  14.694  14.056  0.0690 -0.2981  0.0504
 2164W        W19011  16.647   7.355  13.925  0.0810  0.0861  0.1090
 2165W        W19012   0.749   9.785  14.805  0.2525 -0.3020  0.1565
 2166W        W19013  17.653  15.119   2.252  0.1560  0.0439 -0.0057
 2167W        W19014   7.462   9.252  10.291  0.3147 -0.1888 -0.0803
 2168W        W19015   6.909   5.726  15.209  0.0444  0.0882  0.1953
 2169W        W19016   4.455  15.206   3.856 -0.0739  0.0790  0.0329
 2170W        W19017  16.727   1.599   2.905  0.5311  0.2080 -0.1838
 2171W        W19018  17.723  18.734   2.640 -0.0279 -0.0037 -0.1008
 2172W        W19019  11.705  16.558  12.089 -0.1758  0.0727 -0.0751
 2173W        W19020  12.304   2.908  10.683  0.2145 -0.0039 -0.0878
 2174W        W19021   2.797   7.350   1.695 -0.3215  0.0056 -0.0428
 2175W        W19022   4.657   8.979   3.457  0.0058 -0.3115 -0.0128
 2176W        W19023  15.349   2.058  12.796 -0.1060 -0.0193 -0.2874
 2177W        W19024  12.244   9.489   9.914 -0.2914  0.3562 -0.0685
 2178W        W19025   2.803   4.748   0.780  0.2602 -0.0003  0.0324
 2179W        W19026   9.889  18.613  11.946 -0.2267  0.0372  0.0028
 2180W        W19027  12.472  12.253  13.498  0.2069  0.1021 -0.0243
 2181W        W19028   6.594   2.415  11.201  0.0298  0.2127 -0.1294
 2182W        W19029   0.806   6.174   3.310 -0.0745  0.2273 -0.1011
 2183W        W19030   8.383   4.419   0.577  0.3391 -0.0944  0.1854
 2184W        W19031  13.168  12.645   5.357 -0.1975  0.0371  0.1312
 2185W        W19032  16.282   5.980  14.507  0.0533 -0.0988  0.1284
 2186W        W19033  14.866  10.408   0.018 -0.2363 -0.0527  0.1345
 2187W        W19034  16.528  15.588   0.310 -0.1941  0.1949 -0.2730
 2188W        W19035   8.815   1.764   4.124  0.0587  0.1105 -0.1445
 2189W        W19036  16.534   4.252   2.024 -0.2890 -0.0035 -0.0247
 2190W        W19037  17.086  10.789   2.628  0.1251  0.0740 -0.1198
 2191W        W19038   6.527   9.950   0.869  0.0764  0.1084  0.2140
 2192W        W19039   8.651  17.409   4.644  0.0930 -0.0550  0.1864
 2193W        W19040   8.862  10.944  12.609  0.0896  0.0765 -0.3139
 2194W        W19041   1.990  14.130   2.519  0.0751  0.3245  0.0711
 2195W        W19042  18.765  10.149  12.630  0.2097  0.0091  0.1959
 2196W        W19043  18.159   5.732  13.874 -0.0592 -0.0744  0.2998
 2197W        W19044   7.461   8.679  10.808 -0.2583 -0.0366 -0.3602
 2198W        W19045   6.979   3.296   4.256 -0.0008 -0.0760 -0.2102
 2199W        W19046   9.036  10.330   5.169  0.0118  0.1204 -0.4148
 2200W        W19047  13.067  16.248  14.911  0.1158  0.2073  0.0656
 2201W        W19048  18.683   0.779  10.890 -0.1634  0.1471  0.1281
 2202W        W19049  18.165  13.841   1.755  0.1446  0.3336 -0.0992
 2203W        W19050  14.117   4.589  10.498 -0.1230  0.0098 -0.1313
 2204W        W19051   6.954  10.260  12.145  0.0388 -0.0119 -0.1809
 2205W        W19052   1.193   7.375   2.999  0.1855 -0.0181 -0.1326
 2206W        W19053  16.964   9.737  11.398  0.0411  0.1689 -0.0017
 2207W        W19054  12.082   8.608  15.063  0.0171 -0.3804 -0.1115
 2208W        W19055  15.936  10.447   2.247  0.0158 -0.1458 -0.1264
 2209W        W19056  15.581   8.306  14.827  0.0033 -0.4738 -0.1153
 2210W        W19057   0.326  18.350   3.772 -0.1529 -0.1184 -0.0918
 2211W        W19058   0.264  17.574   0.160  0.1465 -0.3503  0.2758
 2212W        W19059  10.084  17.507   2.521 -0.3406 -0.0370 -0.0272
 2213W        W19060  17.063   8.553   4.324 -0.1316  0.1461 -0.1353
 2214W        W19061   7.473   6.271   3.191 -0.1245 -0.4448  0.0725
 2215W        W19062  18.788  11.694   2.242 -0.0491  0.3908 -0.0624
 2216W        W19063   2.556   8.273   0.067 -0.1152  0.1542 -0.2897
 2217W        W19064  15.879   0.202  12.666  0.0593 -0.1806  0.2300
 2218W        W19065  18.601   4.090  11.223 -0.2210  0.1736  0.1535
 2219W        W19066   1.765   5.757  11.810 -0.2063  0.3882  0.2820
 2220W        W19067  18.029  12.326  11.245  0.0313  0.1647  0.0047
 2221W        W19068   9.950  12.521  12.244 -0.1448  0.1331 -0.3247
 2222W        W19069   0.078   0.477  12.401  0.0224 -0.1894 -0.0840
 2223W        W19070   9.787  17.732  12.131  0.0063  0.1841  0.2876
 2224W        W19071   9.922  15.812  10.754 -0.2821  0.2599 -0.1312
 2225W        W19072   4.840   7.896   5.171  0.3670 -0.5735  0.0739
 2226W        W19073   0.796   7.655  11.285 -0.0131 -0.3480 -0.3830
 2227W        W19074   4.737  18.463  10.020 -0.0597  0.0343 -0.2124
 2228W        W19075   7.286  11.760   2.802 -0.0606  0.0152 -0.0801
 2229W        W19076   0.008   5.907  12.190  0.0118  0.1661  0.0132
 2230W        W19077   5.687  12.970  14.957  0.3712  0.0208  0.0552
 2231W        W19078   1.324   2.439   2.198 -0.0909 -0.1478 -0.0089
 2232W        W19079  17.806   0.745  13.986 -0.5827  0.1272  0.0649
 2233W        W19080   3.698   3.183  14.497  0.2036 -0.0276 -0.0616
 2234W        W19081   4.212   6.080   0.198 -0.0066 -0.1453  0.0850
 2235W        W19082   2.737   5.239   1.024 -0.0591 -0.3009  0.0355
 2236W        W19083   4.357   8.369   2.045  0.1236 -0.2359  0.1863
 2237W        W19084  12.355  16.981   3.076 -0.0355  0.1270  0.1707
 2238W        W19085   2.037   8.077  13.198  0.2787 -0.1711  0.1992
 2239W        W19086   3.041   8.183  14.231 -0.2162 -0.0332  0.1441
 2240W        W19087   3.722  10.465  13.291  0.3400 -0.0244  0.0610
 2241W        W19088   8.706   3.066  11.797 -0.0973  0.1165  0.0415
 2242W        W19089   8.390   9.165  10.528  0.0480 -0.2582 -0.0301
 2243W        W19090  11.472   8.872   2.319  0.2551  0.0325  0.2001
 2244W        W19091   3.247   8.333  13.798  0.2556  0.2327  0.4019
 2245W        W19092   5.512  10.982  15.394 -0.0614 -0.0119 -0.3150
 2246W        W19093   3.614   4.968   6.052  0.2197 -0.1328 -0.4351
 2247W        W19094  11.278   8.621  11.394 -0.1116  0.2155  0.0626
 2248W        W19095   8.644   8.206  15.415 -0.1213 -0.2825 -0.0148
 2249W        W19096  16.674   8.938   0.003 -0.0441 -0.2247  0.1979
 2250W        W19097   7.271  14.682  14.772  0.2025  0.1325  0.1961
 2251W        W19098  11.779   4.852   2.734 -0.0841  0.2724 -0.2768
 2252W        W19099  10.121  12.141  14.032  0.1979 -0.3652  0.0090
 2253W        W19100  11.221  18.659   3.473 -0.2778  0.0210 -0.1486
 2254W        W19101  14.258  18.508   2.136 -0.0312 -0.0929 -0.0286
 2255W        W19102  18.408  15.088  13.263 -0.0288 -0.0268  0.1308
 2256W        W19103  12.028   7.579   4.026 -0.0395 -0.0185  0.1644
 2257W        W19104   7.098  13.546   0.774 -0.1857  0.0673 -0.2878
 2258W        W19105  15.403   4.374  12.235 -0.1166  0.1571 -0.0201
 2259W        W19106   0.575  10.824  13.003  0.3065 -0.2877 -0.0182
 2260W        W19107   9.069  10.120   0.425  0.0197  0.0609 -0.2420
 2261W        W19108  10.857  17.190   0.919 -0.1117  0.0872 -0.0836
 2262W        W19109   3.863  16.613  11.407  0.1530 -0.3701 -0.3752
 2263W        W19110   4.152   7.489   5.534 -0.0266 -0.2437  0.0727
 2264W        W19111  10.766   2.418   1.383 -0.1476 -0.1246 -0.1688
 2265W        W19112  18.173   5.592   0.586  0.1574  0.0603  0.2685
 2266W        W19113   4.546   9.676   4.197 -0.0113 -0.2203  0.2603
 2267W        W19114  12.381   8.335  11.533  0.0578 -0.1712  0.1618
 2268W        W19115   9.444   6.577  12.866 -0.0663  0.2803 -0.2575
 2269W        W19116  16.571   4.944   4.560  0.2087  0.2518 -0.2183
 2270W        W19117  18.494   9.712  12.767 -0.0274  0.2993  0.0654
 2271W        W19118  15.040   6.041   4.359 -0.1588 -0.0087 -0.0478
 2272W        W19119  16.134  16.193   3.006  0.4948 -0.1253  0.0192
 2273W        W19120   7.482   1.635  14.299  0.0349 -0.0231 -0.3753
 2274W        W19121   6.457  15.997  12.197 -0.0600 -0.3850 -0.1674
 2275W        W19122  10.224   9.834  14.733 -0.0578 -0.2051 -0.4769
 2276W        W19123  14.540  11.604   5.128  0.0136 -0.1317  0.0128
 2277W        W19124   8.469   5.089  11.172 -0.5297  0.0149  0.3026
 2278W        W19125   0.470   3.275  14.468  0.3020  0.1923  0.0615
 2279W        W19126   8.231   0.156   3.650 -0.3212 -0.1649  0.0915
 2280W        W19127   2.228  15.051  15.202 -0.1127 -0.1617 -0.0787
 2281W        W19128   8.618  16.098  11.015 -0.1671 -0.1266  0.0257
 2282W        W19129   6.768  14.327  10.440  0.4321  0.2900  0.2984
 2283W        W19130   3.020   6.130   1.125  0.2406 -0.0940 -0.0613
 2284W        W19131  18.095   4.291   3.651  0.1516 -0.0155  0.1873
 2285W        W19132   6.372   5.883   2.061  0.1395  0.2912 -0.0101
 2286W        W19133  12.284   1.158  12.885  0.0740 -0.3127  0.0363
 2287W        W19134  17.731  10.750   1.890  0.1733 -0.0918 -0.0218
 2288W        W19135  10.901   9.452  12.059  0.0451 -0.1646 -0.1872
 2289W        W19136  12.923   0.431   2.547  0.0728  0.1039 -0.0564
 2290W        W19137   8.001  16.159   9.910  0.2857 -0.0378 -0.2293
 2291W        W19138   2.313   5.789  11.511 -0.1155  0.0072 -0.1849
 2292W        W19139   3.000   4.067  13.284  0.0183 -0.0735  0.2305
 2293W        W19140   2.099   2.279  11.687 -0.0876 -0.0205  0.0793
 2294W        W19141  16.418   2.062   0.273 -0.3776  0.0163  0.1083
 2295W        W19142   8.761   3.081  10.215  0.2393 -0.1520 -0.0320
 2296W        W19143   3.319   1.256   5.325  0.0419 -0.0772 -0.1733
 2297W        W19144  17.140  15.614  14.101  0.1922 -0.0249  0.1992
 2298W        W19145  11.169   6.122  10.018 -0.0041  0.0347  0.0912
 2299W        W19146  11.867  17.360   4.913 -0.2388 -0.0275  0.1185
 2300W        W19147  11.999   2.735  14.328 -0.1825 -0.1283  0.0694
 2301W        W19148  10.039   2.035   4.232  0.3871 -0.0859 -0.0250
 2302W        W19149  10.138  17.330   5.013  0.1816  0.0566 -0.1142
 2303W        W19150  14.058  18.806   3.827 -0.1465  0.2445  0.0485
 2304W        W19151   5.240   5.352  15.274  0.0944  0.0293 -0.1349
 2305W        W19152   1.871  16.963   3.145 -0.0990 -0.1147 -0.0119
 2306W        W19153   5.359  14.964   1.816 -0.1306  0.0445  0.1806
 2307W        W19154   6.220   3.551   4.831 -0.2044  0.2462 -0.1275
 2308W        W19155  18.635   5.882   1.085  0.1062 -0.2141  0.0789
 2309W        W19156   6.653  14.504  13.430 -0.0793 -0.0539  0.0390
 2310W        W19157  11.476  16.105   2.531  0.1395 -0.3154 -0.0293
 2311W        W19158   2.797  14.756   4.271  0.0359 -0.0069  0.2581
 2312W        W19159  14.601   6.357   0.308  0.2499  0.0258 -0.2081
 2313W        W19160  11.793   1.451   0.946  0.0892  0.3148 -0.0636
 2314W        W19161  16.444   4.485   1.620  0.1524  0.1022  0.1188
 2315W        W19162   6.545   8.262   2.291 -0.2452 -0.1730  0.1412
 2316W        W19163   1.701   5.185  12.777  0.0604 -0.2601 -0.1558
 2317W        W19164  15.726   8.820   0.263 -0.1628  0.2133  0.0268
 2318W        W19165  15.060  18.721  11.145  0.0321  0.0947 -0.2499
 2319W        W19166  14.380   6.578   3.478 -0.0816 -0.0095  0.2940
 2320W        W19167  10.613  10.054  13.023  0.0986 -0.3041  0.2451
 2321W        W19168   0.874   2.327   0.198  0.1276  0.4632 -0.1865
 2322W        W19169   3.806   4.687  14.947  0.0532  0.3057  0.2394
 2323W        W19170  17.285   2.211   0.577  0.0424  0.3471 -0.1451
 2324W        W19171   0.146  18.480  14.610 -0.3187  0.0805 -0.2806
 2325W        W19172   2.520  11.543   1.453 -0.2559  0.0739  0.0577
 2326W        W19173  15.332  16.424   3.523  0.2343  0.0460 -0.3300
 2327W        W19174  18.385  18.257   1.618 -0.1132  0.1451  0.1669
 2328W        W19175   2.341  18.435   2.323 -0.1112 -0.2898  0.1803
 2329W        W19176   2.124   5.833  14.394 -0.3273 -0.5416 -0.4059
 2330W        W19177   8.553   3.045   0.390 -0.2101  0.2319  0.2014
 2331W        W19178  15.476  11.178   0.815  0.0666  0.2121  0.1607
 2332W        W19179   0.087  14.879  12.871  0.0556  0.1192 -0.2500
 2333W        W19180  10.778  13.853   5.199  0.1296  0.0647  0.0475
 2334W        W19181   9.405   2.569  15.333  0.2900 -0.2585 -0.1581
 2335W        W19182   4.763  15.490  15.332  0.0015 -0.1751  0.1615
 2336W        W19183  12.649  12.061  11.073 -0.2590 -0.0768 -0.2943
 2337W        W19184   0.732  16.096   5.497  0.1975 -0.1521  0.0249
 2338W        W19185  17.954  15.296  13.271  0.0961 -0.0633  0.3629
 2339W        W19186   5.584  18.326   0.418 -0.0574  0.2110  0.1646
 2340W        W19187  11.301   4.186   3.670  0.0900 -0.2046  0.3016
 2341W        W19188   1.651   4.730   1.859 -0.1217 -0.2228 -0.2515
 2342W        W19189   3.108  16.047   1.053 -0.1424  0.0979  0.2110
 2343W        W19190   2.818   3.555  14.121  0.0019 -0.2179  0.0645
 2344W        W19191  17.157   3.584   0.677 -0.2289  0.1373  0.0105
 2345W        W19192   3.129  18.317   2.398  0.0550 -0.0855 -0.0516
 2346W        W19193  10.259   0.631  14.321 -0.2391  0.1945 -0.2483
 2347W        W19194  17.843  11.755   0.259 -0.0643 -0.0327 -0.0336
 2348W        W19195  14.937   9.080  12.346  0.1181  0.1288 -0.1560
 2349W        W19196   9.800  18.208   4.760 -0.2218 -0.2297 -0.1680
 2350W        W19197   1.083   6.472   4.727  0.3407 -0.0954 -0.0475
 2351W        W19198  18.479  11.697   1.523  0.1085 -0.3263 -0.1477
 2352W        W19199   9.854   3.461  12.596 -0.1983  0.1098 -0.0655
 2353W        W19200   3.342  11.955   0.877 -0.2334 -0.1352  0.0726
 2354W        W19201  14.671   2.869  11.492  0.0765  0.1440 -0.0325
 2355W        W19202  10.144   8.943   3.826  0.3046  0.4354 -0.0186
 2356W        W19203  18.606   8.189   5.047  0.1187 -0.2123 -0.0283
 2357W        W19204   8.328   9.860  13.196 -0.2821  0.0405  0.1348
 2358W        W19205   3.428   9.373  12.622 -0.0067 -0.1892 -0.0895
 2359W        W19206   4.193  12.582   3.111 -0.1981  0.1561 -0.1400
 2360W        W19207   3.981   8.177   3.890 -0.0012 -0.4978 -0.1479
 2361W        W19208   7.860   1.800   5.116 -0.2751  0.0819 -0.2143
 2362W        W19209   3.552  13.378  15.389  0.4287 -0.2274  0.1319
 2363W        W19210  17.674   9.392  13.510  0.0460 -0.0922  0.0541
 2364W        W19211  13.107  15.703   2.110  0.1285  0.1570 -0.1272
 2365W        W19212  18.341   6.504  12.385  0.0764 -0.1382  0.0051
 2366W        W19213  15.852   8.869  11.875 -0.1589 -0.0350 -0.1185
 2367W        W19214   9.475  12.420  12.150 -0.0348 -0.0090 -0.0208
 2368W        W19215  15.543  15.430   0.535 -0.0333  0.0384  0.0357
 2369W        W19216  15.391  15.703  10.899 -0.0285  0.0179 -0.2764
 2370W        W19217   7.089  16.765   0.552  0.2264  0.1879  0.4085
 2371W        W19218  14.866   5.601   0.720  0.0398  0.1457  0.0106
 2372W        W19219   7.675   3.130   5.767 -0.1680 -0.1497 -0.0977
 2373W        W19220   8.807   9.220   1.916  0.1651  0.2579 -0.3293
 2374W        W19221  17.504   4.539  12.200 -0.1266 -0.3981  0.1231
 2375W        W19222   1.392   5.287   3.643 -0.2484  0.2343  0.0981
 2376W        W19223   0.440   4.130   1.020  0.0014  0.2602 -0.0560
 2377W        W19224  13.499  15.793   1.387 -0.3316 -0.0042 -0.2738
 2378W        W19225   1.366  16.439   1.268  0.0722 -0.0483  0.3562
 2379W        W19226  16.565   9.361   0.851 -0.2666 -0.1154 -0.1121
 2380W        W19227   1.711  14.485   2.217 -0.2680 -0.1198 -0.0723
 2381W        W19228  10.872  16.466   4.290  0.0881 -0.2264  0.0273
 2382W        W19229   3.414   4.927  15.235 -0.2549 -0.0586 -0.1832
 2383W        W19230   1.410   1.735  11.896 -0.0373  0.2209 -0.0839
 2384W        W19231   4.762  18.720  11.266 -0.0509 -0.0366  0.0404
 2385W        W19232  14.067  10.482   1.770  0.0989 -0.0767 -0.2663
 2386W        W19233   0.411  16.270   0.896  0.1023  0.2952  0.0087
 2387W        W19234   0.628  10.048   4.147  0.1591  0.0038  0.4022
 2388W        W19235   6.911  14.165   4.192 -0.1795 -0.0434  0.1011
 2389W        W19236   5.013   9.276   3.226  0.0678  0.1509  0.0671
 2390W        W19237  14.403  13.583   0.959  0.0251 -0.1295  0.0216
 2391W        W19238  11.949   2.849  13.279  0.3636 -0.2683 -0.0677
 2392W        W19239  11.067   0.921   5.665  0.2229 -0.1434  0.3120
 2393W        W19240   5.583  10.496   5.865  0.1958  0.0446 -0.0061
 2394W        W19241  14.035   3.468  11.931  0.0929  0.0772  0.1410
 2395W        W19242  13.014   2.792   3.745 -0.1847  0.0132 -0.3290
 2396W        W19243   5.723  13.782  12.711  0.0093 -0.1554 -0.0465
 2397W        W19244  13.343  18.483  14.712  0.2052 -0.2326 -0.0481
 2398W        W19245  17.019   7.255   6.002  0.0501 -0.4396 -0.1045
 2399W        W19246  13.136   7.704   5.662  0.3477 -0.1014  0.0790
 2400W        W19247  17.650  11.634  14.356 -0.2060  0.1063  0.0115
 2401W        W19248   6.947   9.884  14.440 -0.0204  0.2984  0.1456
 2402W        W19249  16.569   4.214  11.840  0.1289  0.3629 -0.0584
 2403W        W19250   7.747  11.635   5.481  0.1258  0.0802  0.2183
 2404W        W19251   3.276  12.083  12.405  0.1582  0.1095 -0.0273
 2405W        W19252   8.108  17.330  12.833 -0.0078  0.1377 -0.1212
 2406W        W19253   0.299   6.705  13.325 -0.0610  0.1376 -0.0639
 2407W        W19254  13.364   5.111  15.266  0.0181 -0.1280 -0.0889
 2408W        W19255   1.505  13.460   1.386 -0.0132  0.3357  0.0258
 2409W        W19256  12.569  12.671   2.130 -0.2324 -0.0092 -0.2626
 2410W        W19257  12.926   4.468  14.011 -0.0362  0.0816 -0.0980
 2411W        W19258   5.341  17.591  15.370 -0.1528 -0.2800 -0.2512
 2412W        W19259  12.203  10.136   3.961  0.0473 -0.3302 -0.0943
 2413W        W19260  17.067   6.735   0.722  0.1020 -0.0299 -0.0447
 2414W        W19261  13.285   1.016   1.605  0.0729 -0.1177  0.0757
 2415W        W19262   2.899   7.850   3.646 -0.0514  0.0077 -0.1735
 2416W        W19263  17.709   8.771   2.161  0.0596 -0.2434 -0.0620
 2417W        W19264  15.738  10.356   1.338 -0.0882  0.0345  0.2953
 2418W        W19265  18.722  16.022  12.680  0.0430  0.3427 -0.2614
 2419W        W19266  13.951  13.909  12.724  0.0490 -0.1454  0.0016
 2420W        W19267   5.884  13.015   5.035  0.1234  0.1794 -0.0471
 2421W        W19268   3.311  17.918   0.982 -0.1329 -0.0311 -0.1979
 2422W        W19269  15.667  18.462   2.252  0.0606  0.0558 -0.2493
 2423W        W19270   2.260  16.894  10.857  0.3438  0.2277 -0.2903
 2424W        W19271   7.687  11.922  11.222 -0.0219  0.1828  0.0593
 2425W        W19272  10.303   3.927  11.352  0.2002 -0.0127  0.0411
 2426W        W19273  14.611   5.509  14.937 -0.0403  0.2286  0.1183
 2427W        W19274  14.088   0.982   0.063 -0.1229 -0.1948  0.0429
 2428W        W19275   0.854   0.262   0.767 -0.1667 -0.0735 -0.1512
 2429W        W19276   2.479   9.005   1.839  0.2563 -0.1948 -0.1213
 2430W        W19277   1.991   9.278  12.481 -0.3037  0.1405  0.0711
 2431W        W19278  15.573  17.481  10.592  0.1228  0.1160 -0.1898
 2432W        W19279  16.130   2.213   5.131 -0.0701 -0.0907 -0.1694
 2433W        W19280   6.017  18.698  14.321  0.0483  0.0039 -0.0140
 2434W        W19281  13.354  16.411  12.536 -0.1350  0.4530 -0.1974
 2435W        W19282   3.530   5.529   0.882  0.2581 -0.2591  0.0740
 2436W        W19283   6.872  15.154   1.195  0.0941 -0.2266 -0.1344
 2437W        W19284   2.779   3.373  11.792  0.3070  0.0313  0.2860
 2438W        W19285   5.697  11.954  15.465  0.0339 -0.2499 -0.0325
 2439W        W19286  13.495   7.571  14.639  0.0678 -0.2569 -0.0672
 2440W        W19287  11.220  18.187   0.897 -0.1048  0.1205 -0.2244
 2441W        W19288   7.812   4.559   2.945 -0.1452  0.0911  0.0249
 2442W        W19289  12.329  18.633   1.400  0.2626  0.1457  0.0385
 2443W        W19290   6.495   5.340  11.458 -0.1654 -0.0926 -0.0703
 2444W        W19291  15.584   3.035  13.326 -0.0190  0.0314 -0.0905
 2445W        W19292   8.657   3.266  13.479 -0.0104  0.1559 -0.0288
 2446W        W19293   8.001  12.363   4.632 -0.1628  0.1404  0.0948
 2447W        W19294   5.568   0.177   2.633 -0.0171  0.3089 -0.0442
 2448W        W19295  15.303  12.882  12.232  0.3266  0.2107 -0.1009
 2449W        W19296   6.525   7.313  14.542  0.0368  0.0676  0.1701
 2450W        W19297   8.377   9.538   2.171  0.2774  0.0439  0.1115
 2451W        W19298  17.875  15.164  11.129 -0.2011 -0.0688 -0.2075
 2452W        W19299  14.760  14.783   4.965 -0.0655 -0.1248  0.0115
 2453W        W19300  17.697  16.593   1.424  0.1765 -0.0384 -0.0391
 2454W        W19301   2.841  18.074   4.904 -0.1007 -0.1920 -0.0914
 2455W        W19302   3.308  14.691   5.382  0.1160  0.1515 -0.0485
 2456W        W19303   1.094  11.874  14.475 -0.1973 -0.3067  0.1324
 2457W        W19304  17.697   7.268   0.952  0.1047  0.2548 -0.3777
 2458W        W19305   9.598  15.002  11.374  0.0179  0.1536  0.0446
 2459W        W19306   2.768   1.319  12.509 -0.0039 -0.3285  0.3297
 2460W        W19307  15.185   6.272  11.636  0.0102  0.4733  0.0626
 2461W        W19308  16.578  10.656  11.181 -0.2932  0.2441  0.2151
 2462W        W19309   4.694   0.369   3.669  0.5204  0.0581 -0.2583
 2463W        W19310   8.741  12.746   4.333 -0.0990 -0.1611 -0.0232
 2464W        W19311  13.981   6.026   2.988  0.1510 -0.2863  0.0454
 2465W        W19312  15.215   3.231   3.324 -0.0272 -0.1997 -0.0949
 2466W        W19313   7.270  11.611   4.042  0.1280 -0.1037  0.1117
 2467W        W19314  18.476   7.714  11.312  0.4032  0.0306  0.4164
 2468W        W19315  16.660   4.781   2.067  0.0567 -0.3649  0.0844
 2469W        W19316   6.945   3.896  14.940  0.2089  0.2771  0.1912
 2470W        W19317   8.913   0.866   2.746 -0.2346  0.1150  0.0651
 2471W        W19318  16.932  12.450  10.014 -0.0380 -0.3512 -0.0962
 2472W        W19319   3.813   6.475  14.135 -0.4059  0.0261 -0.2009
 2473W        W19320   8.709  12.668   0.677 -0.0108  0.2472 -0.0015
 2474W        W19321   0.404   3.657   3.840 -0.0407 -0.0688 -0.0424
 2475W        W19322  12.603  15.849  14.920 -0.0064 -0.0132  0.0291
 2476W        W19323   3.805  16.816   1.814  0.0307 -0.3496 -0.0342
 2477W        W19324   1.664  12.307  13.914  0.0631 -0.0474 -0.0843
 2478W        W19325   4.212  14.385   1.819 -0.1050 -0.0486 -0.2707
 2479W        W19326   6.198  10.973  12.229 -0.2038 -0.0494 -0.1260
 2480W        W19327  11.107   9.096  14.366 -0.0750  0.1144  0.0201
 2481W        W19328  18.324   7.625   0.213  0.1052 -0.0301  0.2510
 2482W        W19329   6.139  11.586  11.128  0.1945 -0.3366 -0.1793
 2483W        W19330  16.075   4.119   2.387 -0.0993  0.1943  0.2963
 2484W        W19331  14.608   5.350   3.832  0.3265 -0.1722  0.1398
 2485W        W19332   3.984   0.350  13.982 -0.2357 -0.1736  0.2510
 2486W        W19333   9.675  16.935   0.501 -0.0442  0.0884  0.2713
 2487W        W19334   1.530   7.843  15.082  0.0760  0.1538  0.0634
 2488W        W19335  18.695   4.802  15.103  0.1638 -0.0001 -0.0616
 2489W        W19336   4.531  17.399  12.404 -0.1623  0.1334 -0.2047
 2490W        W19337  18.127  13.039   2.346 -0.1276 -0.0242  0.0539
 2491W        W19338   3.856   8.595   3.026  0.0343  0.2979  0.2440
 2492W        W19339   5.039  10.227   3.347  0.0150 -0.0100  0.0750
 2493W        W19340  10.164   8.610  12.850 -0.1878  0.1807 -0.1034
 2494W        W19341   2.539  16.284   0.616  0.0051  0.0245 -0.1608
 2495W        W19342  11.222   2.693   4.799 -0.1738 -0.2264  0.1626
 2496W        W19343   8.782   1.238  15.524  0.0057  0.0942  0.1733
 2497W        W19344   6.595  11.821  15.494  0.0620 -0.0377 -0.5473
 2498W        W19345   5.267   7.776  14.046  0.3910 -0.2228  0.1394
 2499W        W19346   2.411  12.629  14.736  0.3053  0.1522  0.3265
 2500W        W19347   1.052   0.405   3.419 -0.0293 -0.2881  0.0519
 2501W        W19348  16.953   9.556   4.014 -0.3094  0.1397 -0.0737
 2502W        W19349   5.144   4.253   0.853 -0.0043  0.2705 -0.0456
 2503W        W19350  15.357   9.107   2.107  0.0288  0.0300  0.0725
 2504W        W19351  17.644  15.182   4.458  0.1330 -0.1632 -0.0008
 2505W        W19352   1.514   4.665  14.808 -0.0267 -0.1996 -0.3070
 2506W        W19353  10.007  18.287  13.308  0.1383  0.1001 -0.0707
 2507W        W19354  17.844  10.997   0.696  0.3571 -0.0333  0.0682
 2508W        W19355   3.954   4.979  11.875 -0.2869  0.2609 -0.2369
 2509W        W19356   6.787   8.625  12.505 -0.0879 -0.0642 -0.2338
 2510W        W19357  11.037   4.385  10.942 -0.0247 -0.0841  0.2346
 2511W        W19358   5.744   2.368  11.043 -0.1628  0.3244 -0.0750
 2512W        W19359   5.737   4.692  11.778 -0.4087 -0.4085 -0.0898
 2513W        W19360  18.541  17.553   0.157  0.1673  0.0538 -0.0922
 2514W        W19361   0.243  12.100   0.059 -0.1374 -0.0095  0.2789
 2515W        W19362   7.338   1.176  14.110  0.1094 -0.0422 -0.0679
 2516W        W19363  11.954   7.827   3.399 -0.5175 -0.0334 -0.1891
 2517W        W19364  16.909  17.991  14.441  0.1635  0.1082 -0.0182
 2518W        W19365  15.729   3.280   3.419 -0.1548  0.3382  0.0537
 2519W        W19366   4.543   3.760  12.042 -0.0361 -0.0897  0.0296
 2520W        W19367   9.657  10.774  13.663  0.0827 -0.1401 -0.0213
 2521W        W19368   0.166  15.542  13.869  0.0304 -0.1996  0.0345
 2522W        W19369  16.069   1.339   3.315 -0.0773 -0.1621 -0.3505
 2523W        W19370   4.418  16.068   3.978  0.1704  0.1550 -0.4511
 2524W        W19371   5.127   3.975  11.373  0.1252 -0.2094 -0.1257
 2525W        W19372  11.585  16.922   5.027 -0.2082  0.0778  0.4685
 2526W        W19373   8.081  14.840   5.077 -0.0408 -0.1053  0.2049
 2527W        W19374   1.928  14.976   2.429 -0.0643  0.0238  0.2116
 2528W        W19375  12.345   9.932  15.448 -0.0620  0.1568  0.0969
 2529W        W19376  17.234  11.107   2.320  0.2468 -0.0438 -0.1022
 2530W        W19377   5.246   3.544   1.278 -0.2536  0.4550 -0.0104
 2531W        W19378  14.931   1.213  12.152 -0.1490 -0.1185  0.2241
 2532W        W19379  14.418   2.038  13.173  0.1751  0.1675  0.0093
 2533W        W19380  18.316  11.797   2.591  0.0682 -0.1677  0.3343
 2534W        W19381  11.048  12.284   2.646  0.1166 -0.0470 -0.0328
 2535W        W19382   1.358   2.391  14.908 -0.1858  0.2388  0.0651
 2536W        W19383   6.124   5.617  10.866  0.0196 -0.1096  0.3730
 2537W        W19384  12.385   0.395   5.229 -0.0319  0.1602  0.1246
 2538W        W19385  12.196  17.856  11.581 -0.0708  0.1384  0.1187
 2539W        W19386  15.539  16.268   0.356  0.2633  0.3810 -0.3117
 2540W        W19387   0.326   2.423  13.668  0.0712  0.2727  0.3579
 2541W        W19388  12.552   3.377   4.676  0.0048 -0.1779  0.0919
 2542W        W19389   0.568  10.635   1.594 -0.1831 -0.0470  0.5162
 2543W        W19390  18.778   2.783  13.554 -0.0599  0.0290 -0.0532
 2544W        W19391   9.218  15.204  12.184  0.0776 -0.0149 -0.1173
 2545W        W19392  15.496   3.602   3.076 -0.4058  0.0130 -0.2232
 2546W        W19393   5.738   7.147  13.016  0.0665 -0.0187 -0.0235
 2547W        W19394  15.469   9.689  15.148 -0.2846 -0.0132 -0.0611
 2548W        W19395   0.578   9.142  13.588 -0.3123  0.2042  0.1706
 2549W        W19396   4.085  11.015   0.540  0.0788  0.0297 -0.0644
 2550W        W19397   6.942   1.090  12.933  0.1493  0.0630 -0.2792
 2551W        W19398   0.134   4.847   1.138 -0.1448 -0.0029 -0.5208
 2552W        W19399   7.488  11.561  12.060  0.4150  0.0534  0.0897
 2553W        W19400  17.237  18.495  14.326  0.1210 -0.1986 -0.1132
 2554W        W19401  13.738   7.763   0.750 -0.0567  0.3170  0.1511
 2555W        W19402  14.451  11.213   4.791  0.0339 -0.0490 -0.0092
 2556W        W19403  12.767   6.972  15.314 -0.2356  0.0752 -0.0194
 2557W        W19404  11.310   9.919   0.682 -0.1709 -0.1995  0.0883
 2558W        W19405   5.190   0.051  11.544 -0.2108 -0.1122 -0.0961
 2559W        W19406   1.948   0.636   1.256 -0.2945 -0.3736 -0.1498
 2560W        W19407  16.781  17.973  11.679  0.0591  0.2507  0.4308
 2561W        W19408   7.063  17.876   2.955 -0.2170 -0.0635  0.1985
 2562W        W19409  10.111   9.387   0.024  0.0319  0.2994  0.3022
 2563W        W19410   3.866  12.810  14.573  0.2249  0.0497 -0.0935
 2564W        W19411  10.672  14.375   3.623  0.2740  0.0508  0.0323
 2565W        W19412  16.205   1.218   5.144 -0.0862  0.0016  0.1010
 2566W        W19413   4.260  15.501  14.460  0.0507 -0.0730 -0.2585
 2567W        W19414  14.311  16.070   1.820  0.3577 -0.3114  0.0315
 2568W        W19415   1.512  17.510  15.401 -0.1848 -0.2895 -0.3004
 2569W        W19416   7.588   3.836  10.055 -0.1652 -0.0538 -0.1201
 2570W        W19417   5.100   3.224   2.073  0.1663 -0.3767 -0.3734
 2571W        W19418  18.172  11.589  14.125 -0.0613  0.0424  0.2002
 2572W        W19419   0.879   8.321  13.873  0.1333  0.0929  0.3118
 2573W        W19420   4.592   1.115  12.525 -0.1051 -0.1347 -0.0777
 2574W        W19421   0.381   5.950  15.190  0.3111 -0.0734  0.0141
 2575W        W19422   8.979   1.278  10.960  0.0561 -0.1599  0.0421
 2576W        W19423  11.430   1.204  10.811 -0.0005  0.4173 -0.0729
 2577W        W19424   6.036   3.424   2.448 -0.0150 -0.0391  0.0203
 2578W        W19425  14.477   8.022   1.609 -0.0572  0.0353  0.2362
 2579W        W19426  15.806   8.306  11.064 -0.0213 -0.1189 -0.1537
 2580W        W19427  18.111  15.027  15.513  0.1864  0.0235  0.0683
 2581W        W19428   4.860  11.825  14.621 -0.1527 -0.3363  0.2374
 2582W        W19429   3.763   6.174   5.175 -0.4115  0.1464 -0.2706
 2583W        W19430   0.805  15.453  10.424  0.0910  0.0668 -0.0871
 2584W        W19431  15.921   6.061   1.556  0.2537 -0.1458  0.1227
 2585W        W19432   9.775   5.224  14.715  0.0959  0.1966 -0.2648
 2586W        W19433  14.500  14.491  13.954  0.1111  0.3280  0.1642
 2587W        W19434  16.592  18.366   2.472 -0.1008 -0.0809 -0.0149
 2588W        W19435  15.802   5.390   2.841 -0.3362 -0.3161  0.2159
 2589W        W19436   8.402   6.642  14.259  0.1123 -0.1431  0.1871
 2590W        W19437  12.118   1.575   4.112 -0.3025  0.1602 -0.0670
 2591W        W19438   0.234   2.235   3.693 -0.0511 -0.0686 -0.2309
 2592W        W19439  18.676  12.345  13.043  0.1559  0.4208 -0.3214
 2593W        W19440   4.909  10.630   3.724  0.1025 -0.0268 -0.1589
 2594W        W19441  10.573   8.541  10.438 -0.0498  0.0387  0.1623
 2595W        W19442   4.918   4.909   4.960 -0.0943  0.1966  0.0124
 2596W        W19443   8.455  15.683   3.466  0.2767 -0.0633 -0.1692
 2597W        W19444  13.698   2.950   1.889 -0.2077 -0.2195 -0.3288
 2598W        W19445  16.098   7.035  15.427 -0.2007  0.3862 -0.0841
 2599W        W19446  10.206  10.130  11.024  0.1014  0.3163 -0.3546
 2600W        W19447   0.129   2.267  15.279  0.0620  0.1999 -0.1142
 2601W        W19448   2.545   1.101  13.411  0.1417 -0.0668 -0.3345
 2602W        W19449  10.020   1.524   2.907  0.0577  0.0176 -0.4263
 2603W        W19450  10.566   2.980  11.574 -0.1230  0.1207 -0.0128
 2604W        W19451   6.386   1.174   2.309  0.1576 -0.0275  0.1590
 2605W        W19452   0.326  16.850  13.011 -0.0117 -0.2009  0.3035
 2606W        W19453   0.529   0.658  11.320 -0.0102  0.0389  0.1534
 2607W        W19454  13.596   7.477  13.006  0.2500  0.1229 -0.0148
 2608W        W19455   8.296  13.144  14.197 -0.1283  0.0723 -0.0381
 2609W        W19456   4.374  16.599   1.709  0.4573 -0.2703 -0.0890
 2610W        W19457  10.844   5.918  14.038 -0.1264 -0.0133  0.0421
 2611W        W19458  13.947   5.274   2.245 -0.0383  0.2282  0.0086
 2612W        W19459   2.892  14.331   1.935 -0.0088  0.7081 -0.0002
 2613W        W19460   6.302  17.215  14.334  0.2341 -0.1232 -0.2122
 2614W        W19461  11.364  16.301   4.595  0.1486 -0.1786 -0.1378
 2615W        W19462  11.567  13.575   0.824  0.0869  0.1218 -0.2900
 2616W        W19463   9.864  12.827   0.083  0.1928 -0.0514 -0.1004
 2617W        W19464  11.353   9.397   3.322  0.1124  0.1546 -0.3554
 2618W        W19465  14.956   2.438  13.703  0.2588 -0.1271 -0.1143
 2619W        W19466   7.264  16.436   0.134 -0.3246 -0.1942  0.4545
 2620W        W19467   3.811   7.226  12.274  0.0798 -0.1528 -0.0844
 2621W        W19468   2.106   9.588  12.887 -0.0271 -0.4192 -0.1966
 2622W        W19469   3.944   4.977  13.212 -0.1450 -0.0860  0.0291
 2623W        W19470   4.378  17.698   3.714  0.0287 -0.0915 -0.2291
 2624W        W19471  13.177   5.921   2.092 -0.1153 -0.0424 -0.1737
 2625W        W19472   8.724   7.219   4.535 -0.0338  0.1005  0.0910
 2626W        W19473  14.259   1.870   3.403  0.2621  0.2134 -0.1494
 2627W        W19474   8.037   6.899   3.071 -0.0777 -0.1234 -0.0587
 2628W        W19475   2.854   7.882   5.330  0.2603 -0.0155 -0.1349
 2629W        W19476  12.754   5.936   1.179  0.0909 -0.0464 -0.4003
 2630W        W19477  17.512   2.845  15.446 -0.0287  0.0067  0.0424
 2631W        W19478   3.852   2.504  14.562  0.0209 -0.1240 -0.2124
 2632W        W19479   4.213   2.024  13.230 -0.0784 -0.1062  0.1773
 2633W        W19480   0.806   3.132  12.178 -0.2720  0.0325 -0.0749
 2634W        W19481  12.825  13.274   3.164 -0.1775  0.1384  0.5157
 2635W        W19482   6.915  17.371  15.438  0.2475  0.1583 -0.0491
 2636W        W19483   1.440  11.194  12.071 -0.0415 -0.3483  0.1372
 2637W        W19484  17.404   3.350  13.781 -0.4290 -0.1313 -0.3038
 2638W        W19485   1.881  16.585   1.487  0.0009 -0.0100 -0.4231
 2639W        W19486  14.215   4.463   2.204 -0.2413  0.0276 -0.1502
 2640W        W19487  13.848   6.419   1.555 -0.0417 -0.3207  0.2173
 2641W        W19488   5.394   8.318   2.307 -0.1168 -0.0823  0.0438
 2642W        W19489   3.440  16.042  12.168 -0.1140 -0.2476 -0.2784
 2643W        W19490  18.591   0.267   1.797 -0.2080 -0.2680 -0.1459
 2644W        W19491   8.670   9.311   1.415 -0.0384  0.1214  0.0581
 2645W        W19492   1.447   5.432   3.203  0.0926 -0.2524  0.0579
 2646W        W19493   6.051   8.209  14.761 -0.0629 -0.0753 -0.1091
 2647W        W19494  10.213   4.451  14.683  0.3261  0.2399  0.0732
 2648W        W19495  15.429   9.585   1.179  0.1688 -0.0878 -0.1616
 2649W        W19496  10.329   7.272   5.685 -0.3830 -0.0877 -0.3355
 2650W        W19497   3.167   0.035  12.966 -0.0089  0.0431  0.1303
 2651W        W19498   5.834  14.060   1.584  0.1926 -0.0460 -0.1975
 2652W        W19499  11.613  12.984  10.774  0.2782  0.1818  0.2139
 2653W        W19500   1.964  17.478  12.325 -0.2945  0.0180  0.0348
 2654W        W19501   4.740   5.932   5.253 -0.1786 -0.3418 -0.0350
 2655W        W19502   8.425  17.706  11.504 -0.2129 -0.0606  0.1076
 2656W        W19503  10.788   7.571   1.788 -0.1570 -0.0735  0.0116
 2657W        W19504  18.757   4.282  12.381 -0.1370  0.0936  0.2408
 2658W        W19505   4.212   8.969   2.814 -0.3735  0.1054  0.5691
 2659W        W19506   7.578  12.887   1.846 -0.1717  0.0486 -0.0417
 2660W        W19507  10.229   6.172  15.058 -0.1034  0.0230 -0.1367
 2661W        W19508  18.546   6.664   5.163  0.1781 -0.0527  0.1992
 2662W        W19509  12.503   8.961   0.200  0.0487  0.0571 -0.2438
 2663W        W19510  12.895   7.419  13.599 -0.0735 -0.1577  0.3190
 2664W        W19511   4.803   8.880  13.966  0.0031  0.0257 -0.0546
 2665W        W19512   1.777  15.120  14.802  0.3815  0.2022  0.2795
 2666W        W19513   4.753  11.277   5.152 -0.3069 -0.0882  0.5303
 2667W        W19514  11.606   5.814  11.664 -0.0437  0.0297  0.2868
 2668W        W19515  16.396  12.748  13.264  0.0774 -0.0502  0.1495
 2669W        W19516  12.887   3.255   2.724 -0.3711 -0.1910  0.2601
 2670W        W19517  15.914   3.016  13.794 -0.1898  0.0092  0.1649
 2671W        W19518   5.004   1.013   4.940 -0.0384  0.3023 -0.0595
 2672W        W19519  18.528   6.407  14.219  0.0030  0.1439 -0.1874
 2673W        W19520  14.714  12.405  12.749 -0.1691  0.0613  0.0421
 2674W        W19521  15.272   1.168   3.765  0.2214  0.0377 -0.0578
 2675W        W19522   9.376  18.842   5.447  0.0132 -0.0306  0.3439
 2676W        W19523  17.693  10.270  13.976  0.0338  0.0761  0.0208
 2677W        W19524   4.099   1.250   2.827 -0.0091  0.3564  0.1596
 2678W        W19525   2.201   9.212   0.768 -0.1358  0.0723  0.0812
 2679W        W19526   4.616   1.075  13.783  0.4052  0.1889  0.2605
 2680W        W19527   3.150  10.486  10.101  0.0714 -0.1448 -0.1936
 2681W        W19528   9.895   7.507   2.555 -0.2492 -0.2399  0.0285
 2682W        W19529  10.192   6.020  13.655  0.2442 -0.1867 -0.0005
 2683W        W19530   5.890  16.076   3.392 -0.0157 -0.2662 -0.0973
 2684W        W19531   1.752   4.806  11.533  0.3898 -0.0108 -0.2165
 2685W        W19532  17.423  11.119  12.231  0.0077  0.0754  0.1268
 2686W        W19533  10.748  15.551   2.027 -0.1649 -0.0110 -0.0351
 2687W        W19534   8.706   6.833   0.895  0.0038 -0.1401 -0.0956
 2688W        W19535   6.489   7.601   2.856  0.0195 -0.0352  0.0670
 2689W        W19536   6.167  16.825   4.693  0.3028 -0.0348  0.0623
 2690W        W19537  13.729  18.831  11.439 -0.3289 -0.1249 -0.3566
 2691W        W19538   5.150   6.805   2.039 -0.0304  0.4091 -0.0790
 2692W        W19539   5.210  18.016   0.007  0.0169 -0.1297  0.1287
 2693W        W19540   7.599   1.469  12.269  0.1784 -0.0748  0.0352
 2694W        W19541   0.193   5.242  10.788 -0.1409 -0.2282  0.0884
 2695W        W19542  16.400  10.672   0.831  0.0380 -0.0902 -0.1813
 2696W        W19543  11.775  15.060   0.228 -0.0022  0.1224  0.0541
 2697W        W19544   0.921   2.010  11.309 -0.1308 -0.0228 -0.2819
 2698W        W19545   4.244  14.138   3.183  0.0342 -0.1236  0.3122
 2699W        W19546   7.868  14.529  11.949  0.2722  0.0463  0.0217
 2700W        W19547  16.465   1.821  12.370  0.2680 -0.1138  0.1577
 2701W        W19548   8.511  16.204  11.602  0.0865  0.0101 -0.2666
 2702W        W19549   7.207  10.712  12.043 -0.1029 -0.0773  0.0884
 2703W        W19550  15.399  16.781   0.533 -0.1111 -0.1873  0.0767
 2704W        W19551  10.198   5.875   3.208 -0.2693 -0.0341  0.1120
 2705W        W19552  13.513  14.706   9.514 -0.1516  0.1363 -0.1605
 2706W        W19553  10.108  12.519  15.078 -0.2680  0.1849  0.0288
 2707W        W19554   3.535   2.705  11.701 -0.3334  0.0889 -0.0323
 2708W        W19555   9.819  16.168  15.104  0.3501 -0.0083  0.0241
 2709W        W19556  18.119  12.775   3.146 -0.2161 -0.0378  0.1885
 2710W        W19557   1.612  13.954  13.609 -0.1065 -0.1752 -0.3533
 2711W        W19558   4.890  18.388   3.747 -0.0657 -0.2199  0.1626
 2712W        W19559   3.530   7.739  12.916  0.1357  0.1783 -0.0115
 2713W        W19560   4.481   2.418   3.706 -0.1784  0.1502 -0.2296
 2714W        W19561   3.292  15.484   3.333 -0.0002  0.0279 -0.0337
 2715W        W19562   3.156  15.083  10.595 -0.1063  0.0652 -0.1400
 2716W        W19563   6.943  13.417   2.224  0.1802 -0.1674 -0.2894
 2717W        W19564   0.992   2.812   1.485 -0.1050  0.1652 -0.4191
 2718W        W19565  15.372   0.147  12.854  0.0266  0.0025 -0.2098
 2719W        W19566   4.281   2.280  10.074  0.1248 -0.1125 -0.1806
 2720W        W19567   7.677   3.528   1.733  0.1243  0.2786  0.1498
 2721W        W19568  17.186   1.889  11.419 -0.3142 -0.2403  0.1683
 2722W        W19569  16.905  18.124   1.633  0.1960 -0.2241 -0.1636
 2723W        W19570  14.217  18.248   3.108  0.2645 -0.0843 -0.1284
 2724W        W19571  15.768  14.392  14.974  0.1004  0.0157  0.3649
 2725W        W19572  13.537  14.621  10.894  0.2088 -0.1741 -0.1007
 2726W        W19573   9.172   1.314   2.480 -0.2653  0.0676 -0.1651
 2727W        W19574  11.589   6.867  13.807 -0.3224  0.0745 -0.0271
 2728W        W19575   2.484   9.690  11.452 -0.0856  0.1627  0.3763
 2729W        W19576   7.325  15.956  11.241 -0.0241  0.0524  0.1526
 2730W        W19577  11.898   6.415  12.451 -0.4637  0.2338 -0.2365
 2731W        W19578  14.647  13.750   1.912 -0.2084 -0.2470 -0.5201
 2732W        W19579  18.376  14.940  14.725  0.1148 -0.1793 -0.0110
 2733W        W19580  13.155   1.374  12.048  0.0007 -0.4450  0.2154
 2734W        W19581   8.048   5.353  13.377  0.1342  0.2183  0.3557
 2735W        W19582   3.675  17.422   5.373  0.0196  0.0515  0.1270
 2736W        W19583   0.295   6.956   4.249 -0.1115 -0.2711  0.1006
 2737W        W19584   0.360  17.478   3.984 -0.1300 -0.1407 -0.1344
 2738W        W19585  14.168  18.322   2.601 -0.2007  0.1103 -0.0382
 2739W        W19586  17.910  17.133   0.780 -0.0716  0.2250  0.0264
 2740W        W19587  15.418  14.026  14.935  0.0266 -0.1477 -0.0596
 2741W        W19588  10.012  15.689   9.876 -0.0845  0.1377 -0.0605
 2742W        W19589   3.978   9.665   0.806  0.2762  0.1066  0.0053
 2743W        W19590   4.199   2.444  12.210 -0.0012 -0.1726  0.2401
 2744W        W19591   5.269   2.749   0.053  0.2033 -0.4201 -0.1625
 2745W        W19592  13.056   7.447   3.794 -0.0031  0.0603 -0.0732
 2746W        W19593   2.524   2.179  13.884 -0.1656  0.2224 -0.1736
 2747W        W19594   1.707   4.172   4.057 -0.0275 -0.0817  0.0347
 2748W        W19595   0.018  14.105  10.922  0.0015 -0.0661 -0.0021
 2749W        W19596   8.680  14.501  11.859 -0.2800  0.2220  0.0256
 2750W        W19597  17.504   5.001  11.311  0.3523 -0.2092 -0.1164
 2751W        W19598   0.985   8.149  11.023 -0.0026  0.0220 -0.0742
 2752W        W19599   7.582   7.364  13.542 -0.1990 -0.1015 -0.0643
 2753W        W19600   3.413  13.829  13.866 -0.0059  0.2046 -0.0292
 2754W        W19601   6.665  18.774  14.911  0.0117 -0.1031  0.3651
 2755W        W19602   3.632  12.993  15.052  0.1106  0.0238 -0.0234
 2756W        W19603  11.906  12.076  12.676  0.1946 -0.0405  0.0697
 2757W        W19604   5.889   1.786  11.988 -0.0788  0.1748 -0.4625
 2758W        W19605  12.089   5.468   3.883 -0.2629  0.2902 -0.0047
 2759W        W19606   5.753   2.705  12.055 -0.0111  0.1362 -0.2331
 2760W        W19607   7.542  18.236   1.690  0.0672 -0.0697 -0.2936
 2761W        W19608  12.692   2.843  11.423  0.1535  0.0201 -0.0522
 2762W        W19609  10.989   3.458  11.729 -0.0424  0.1112 -0.2024
 2763W        W19610   6.528   9.055   1.864 -0.0508 -0.0668 -0.1437
 2764W        W19611   6.955   7.383   3.678  0.1544 -0.1258 -0.0996
 2765W        W19612   1.842  10.195   2.508 -0.0652  0.1777  0.4589
 2766W        W19613  13.191   2.457   4.431 -0.1715  0.2711  0.3691
 2767W        W19614   3.782  18.052  10.012 -0.1139 -0.0866  0.0771
 2768W        W19615  17.940  18.763   1.339  0.1865  0.0769  0.0143
 2769W        W19616  18.238   5.162  12.632 -0.0521  0.1692  0.1863
 2770W        W19617  14.502  14.455  12.427  0.2377 -0.0039  0.0564
 2771W        W19618   7.437  18.399   4.430  0.0791 -0.0652  0.1458
 2772W        W19619   4.508   1.745   0.847  0.1229 -0.3078  0.1221
 2773W        W19620  16.018   2.048  12.261 -0.0360  0.6566  0.0761
 2774W        W19621   3.507  12.070  13.541  0.2790 -0.1875  0.3255
 2775W        W19622  16.197  10.642  14.251 -0.0588  0.2148 -0.0127
 2776W        W19623  10.300   3.435   2.372  0.1051 -0.1609  0.0937
 2777W        W19624   4.883   5.343   0.130 -0.2397 -0.3533  0.1842
 2778W        W19625  14.399   8.376  12.569 -0.4407 -0.1071 -0.1265
 2779W        W19626   2.814  11.815  12.462  0.3140  0.4811 -0.0654
 2780W        W19627   7.314  13.036   1.077  0.1836 -0.2943  0.1241
 2781W        W19628   1.621  17.667   2.870  0.2303  0.1042 -0.0107
 2782W        W19629   9.732  16.783   4.398  0.1794 -0.1871 -0.0849
 2783W        W19630   8.764   8.078  14.570  0.0105 -0.0865  0.0129
 2784W        W19631  16.258  11.985   4.575  0.1006 -0.2343 -0.2578
 2785W        W19632   6.693  12.006   4.778  0.3502 -0.2253  0.0058
 2786W        W19633  17.253   9.553  13.741 -0.3108  0.0773 -0.0897
 2787W        W19634   3.883   6.858   0.389 -0.1862 -0.0142  0.1891
 2788W        W19635   7.840  14.220  10.785 -0.1201  0.0432  0.0091
 2789W        W19636   1.838   0.137  12.596  0.4906 -0.1071 -0.1992
 2790W        W19637   5.753  16.741  15.278  0.1343  0.1647  0.1883
 2791W        W19638   3.468   4.827  13.359 -0.0807 -0.1942  0.0507
 2792W        W19639  17.996  14.793   2.018  0.0660  0.1140 -0.0785
 2793W        W19640  18.776   2.193  11.021 -0.1137  0.1032 -0.0037
 2794W        W19641  11.442   9.132   0.127 -0.0997  0.0445  0.0835
 2795W        W19642  18.158  15.612  10.874  0.0499 -0.0836  0.1570
 2796W        W19643  10.034   8.644   3.370  0.1046 -0.2301  0.1340
 2797W        W19644   9.469  16.979  12.160 -0.3274  0.0887 -0.2143
 2798W        W19645  16.501   9.831  12.213 -0.1663 -0.1095  0.4264
 2799W        W19646   7.668  13.593  14.587  0.0131 -0.0067  0.0271
 2800W        W19647   6.147   7.163  11.110 -0.0278 -0.2798 -0.3384
 2801W        W19648   4.714  14.437   2.952  0.0039  0.0082 -0.3742
 2802W        W19649   5.939  18.216   4.935 -0.1669  0.1039 -0.0482
 2803W        W19650  15.630   7.002   1.682  0.0650  0.2794  0.0631
 2804W        W19651   1.608  15.247   2.695  0.0054  0.0007 -0.4534
 2805W        W19652  10.156  18.477  11.168 -0.1966 -0.1676  0.0276
 2806W        W19653  18.776   4.735   3.181  0.1044  0.1261 -0.2336
 2807W        W19654  15.589  14.824   1.314  0.0577 -0.4594  0.0458
 2808W        W19655   1.002  12.929  12.299 -0.1074  0.2416  0.0108
 2809W        W19656   5.232   1.849   5.078  0.2157 -0.1473 -0.0229
 2810W        W19657  14.988  12.795  15.008  0.1796 -0.1625  0.2979
 2811W        W19658   6.675  12.875  13.711 -0.2078 -0.1241 -0.5261
 2812W        W19659  14.333   6.706   1.383 -0.1692 -0.2648 -0.0684
 2813W        W19660  11.547   8.594  11.836 -0.0500 -0.1472 -0.1590
 2814W        W19661   4.093   3.009   1.537 -0.1158  0.0632 -0.2430
 2815W        W19662   7.535   3.057   3.133  0.0546  0.2644  0.0065
 2816W        W19663   9.852   6.960  15.113  0.0356 -0.0795  0.1058
 2817W        W19664   5.231   8.944   4.861  0.0823  0.0429 -0.0453
 2818W        W19665   4.947   6.757   4.326  0.0890 -0.3094  0.0610
 2819W        W19666  10.590   6.666  11.435  0.0362 -0.0532  0.4217
 2820W        W19667  12.990  16.201   4.746 -0.2713  0.0478 -0.6537
 2821W        W19668  18.493   4.732  14.604 -0.0034  0.0865 -0.0629
 2822W        W19669   0.535   9.485  12.852  0.0100 -0.0493  0.0485
 2823W        W19670  14.606  11.397  11.578 -0.0698 -0.2668 -0.1318
 2824W        W19671  15.408   5.901  15.539  0.1233 -0.2774  0.0238
 2825W        W19672  13.728   7.183  14.464  0.2672  0.0318 -0.0878
 2826W        W19673   0.110   7.565  14.915  0.2894  0.2980 -0.0013
 2827W        W19674   9.079  16.716  14.301  0.1484  0.1237 -0.1312
 2828W        W19675  12.986   5.249  14.663  0.0636 -0.0929  0.2385
 2829W        W19676   9.132   1.240   5.209  0.0846 -0.1647  0.2063
 2830W        W19677  15.133  13.477   5.063 -0.2165 -0.1808 -0.1941
 2831W        W19678  14.069   4.006   4.869 -0.1796  0.0705  0.0644
 2832W        W19679  15.544   8.368   3.768 -0.1795  0.2720 -0.0955
 2833W        W19680  14.369  12.943   3.019 -0.2755  0.2278  0.1031
 2834W        W19681  10.087   7.248   4.409  0.2738  0.0533  0.0581
 2835W        W19682   4.746  18.120  13.803  0.2239  0.0759 -0.1470
 2836W        W19683   7.115   9.862   4.913 -0.1762  0.1338  0.3195
 2837W        W19684  15.295  16.361  12.995 -0.1020  0.2287  0.2533
 2838W        W19685  12.840   4.613   0.025  0.1339 -0.0382 -0.5758
 2839W        W19686   0.938  15.655   3.805 -0.1604  0.1303  0.4204
 2840W        W19687   1.941  12.586  10.864 -0.0693  0.0455  0.3169
 2841W        W19688   9.059  16.105   0.458 -0.3089  0.1045 -0.0254
 2842W        W19689  12.840  10.210   5.753 -0.0464 -0.0426  0.2551
 2843W        W19690  11.434  15.592  12.394 -0.2423  0.0197 -0.1860
 2844W        W19691  14.893   3.229   4.301  0.3690  0.1027 -0.1021
 2845W        W19692   8.244   8.306   1.251  0.3809 -0.0034 -0.1704
 2846W        W19693  12.084   5.502  11.575  0.0925 -0.4524  0.0894
 2847W        W19694   8.897   1.823   2.399 -0.1760  0.2344 -0.0121
 2848W        W19695  15.055  15.499  12.407 -0.3364  0.3060 -0.2623
 2849W        W19696  17.682   2.521  13.991 -0.1013 -0.1098  0.1354
 2850W        W19697   4.935   9.188   4.058 -0.1742  0.0714 -0.2484
 2851W        W19698  11.903  10.278  12.011 -0.1408 -0.2908 -0.1946
 2852W        W19699  11.670   0.611  13.600 -0.4336  0.1435 -0.1053
 2853W        W19700  10.953   1.216   0.778 -0.2451 -0.0294 -0.0369
 2854W        W19701   1.684   8.829  14.589 -0.1758 -0.2673  0.0250
 2855W        W19702  13.154   5.307  11.892 -0.5053  0.0660  0.0017
 2856W        W19703   5.896  15.734   1.716 -0.0077 -0.3937  0.2233
 2857W        W19704  11.018   3.272  14.294 -0.6638  0.1404  0.2817
 2858W        W19705  13.069  12.490  11.661 -0.2430 -0.0237 -0.2921
 2859W        W19706  15.941   3.338   0.099 -0.1608  0.2955  0.1017
 2860W        W19707  16.785  15.564  10.241  0.0129  0.0207 -0.0058
 2861W        W19708  17.422  14.818   2.635  0.1175 -0.0602 -0.1752
 2862W        W19709   2.405  12.482  11.953 -0.2255  0.0319  0.1380
 2863W        W19710   4.501  12.671  13.636 -0.0542 -0.0682 -0.0416
 2864W        W19711  17.972   2.975  13.113  0.2521 -0.0485  0.1032
 2865W        W19712   7.688  12.560   0.201 -0.1407  0.1923  0.0398
 2866W        W19713  14.859  15.184  15.264 -0.0113 -0.0606 -0.1397
 2867W        W19714  13.847  13.730   4.784  0.3302 -0.0151  0.0657
 2868W        W19715  16.110   6.271  14.090  0.3452 -0.0196  0.1021
 2869W        W19716   2.390  15.158   2.515 -0.3095  0.1951 -0.1788
 2870W        W19717   0.462   8.583  15.076 -0.0723 -0.3985  0.1846
 2871W        W19718   5.092  16.827  11.609 -0.0362 -0.2371  0.0205
 2872W        W19719  12.123  14.819  10.429 -0.1542  0.0136 -0.1257
 2873W        W19720  12.934   4.373  14.992  0.0427  0.0072 -0.4728
 2874W        W19721  18.159  10.803   1.556 -0.0675 -0.1500  0.1133
 2875W        W19722  12.195  12.290  11.167  0.1457 -0.4767 -0.0227
 2876W        W19723   1.753  11.202   1.567 -0.0205 -0.0222  0.1642
 2877W        W19724   4.845   4.687  10.602  0.2665 -0.0799  0.0352
 2878W        W19725  16.010  17.884   0.806  0.1262 -0.1121  0.1527
 2879W        W19726  11.615  14.317   1.069  0.0537  0.2059 -0.2798
 2880W        W19727  18.507  18.540  14.777 -0.2659 -0.1325 -0.1041
 2881W        W19728  10.446   4.748   2.511 -0.0894 -0.2351 -0.2751
 2882W        W19729   6.165  12.845   2.058  0.1453 -0.0693 -0.0446
 2883W        W19730   6.004   5.093  11.439 -0.0010  0.3137  0.5697
 2884W        W19731  17.559  15.165  15.457  0.2600 -0.0239 -0.1647
 2885W        W19732   8.831   1.877  14.655 -0.1078 -0.1022  0.3320
 2886W        W19733   2.973  13.150   2.216  0.3686 -0.0313  0.1200
 2887W        W19734   0.332   3.879   0.582 -0.1491 -0.3149 -0.1405
 2888W        W19735   8.967   2.263   1.208  0.1472 -0.2077  0.3273
 2889W        W19736   9.065   2.226   4.224 -0.0381 -0.0197  0.0472
 2890W        W19737   8.013  18.759  12.127 -0.2826  0.4011 -0.1760
 2891W        W19738  10.619   7.971   1.014 -0.2979  0.2424 -0.0270
 2892W        W19739   4.243   5.629  13.661 -0.4442 -0.5210  0.1339
 2893W        W19740  17.363   4.104  15.369  0.1062 -0.1728  0.4296
 2894W        W19741   4.917   2.583   2.076 -0.0200  0.2818  0.2997
 2895W        W19742  12.747  15.788  13.148 -0.1460 -0.0413 -0.0610
 2896W        W19743   7.913   6.287  14.388 -0.2302  0.1368  0.0025
 2897W        W19744  11.775  11.453   4.454 -0.4691  0.5129  0.1675
 2898W        W19745  12.929  12.830  10.516  0.0063  0.3482 -0.0340
 2899W        W19746   3.879  17.245   2.849 -0.0809 -0.1605  0.1598
 2900W        W19747  18.342   2.935  15.067  0.0497  0.0887  0.0756
 2901W        W19748   5.152   4.133   1.551  0.0941 -0.3595 -0.1439
 2902W        W19749   0.907   5.351   3.903  0.3095 -0.2177  0.0722
 2903W        W19750   2.374   3.813  13.923 -0.1007 -0.0762  0.4554
 2904W        W19751  17.145   7.636  14.935 -0.0721  0.1518 -0.4155
 2905W        W19752  16.610  12.102   4.232  0.0540  0.0023  0.3834
 2906W        W19753   1.969   4.845   2.295 -0.2425 -0.0638 -0.0831
 2907W        W19754  14.039  14.634  13.754  0.0064 -0.2017  0.2042
 2908W        W19755   9.652   3.325   1.337  0.0158  0.0639  0.0102
 2909W        W19756  15.451   8.953  13.086  0.0377  0.2899 -0.1612
 2910W        W19757  18.731   7.368  10.964 -0.0239  0.0158  0.0516
 2911W        W19758  17.804   9.424   4.949 -0.1128  0.3590 -0.0661
 2912W        W19759  18.448  11.243  12.905 -0.0692  0.3745 -0.0312
 2913W        W19760  18.524  11.895  15.060 -0.1152  0.1679 -0.1196
 2914W        W19761   1.819   3.809   4.430  0.2192  0.0553 -0.3274
 2915W        W19762   2.430   1.721   1.187 -0.0601 -0.0262 -0.0727
 2916W        W19763   7.065  12.129   0.549  0.1948  0.1700  0.0700
 2917W        W19764   6.906  17.051   3.942  0.0558  0.0808 -0.0232
 2918W        W19765  18.492  10.300  12.183  0.0713  0.1069 -0.2361
 2919W        W19766  11.955   1.679  11.544  0.0239 -0.1365 -0.3896
 2920W        W19767   3.480   8.184   4.047  0.0606  0.0007  0.0420
 2921W        W19768  15.601   1.667  15.454  0.4531 -0.2135  0.1253
 2922W        W19769   7.685  10.459  15.415 -0.2871 -0.1125  0.1288
 2923W        W19770   3.767   9.968  12.918 -0.1182  0.1844 -0.1600
 2924W        W19771   0.288   9.898  15.150  0.1614  0.0313 -0.0213
 2925W        W19772  15.974  18.431  13.546 -0.0451 -0.0659 -0.2739
 2926W        W19773  13.056  16.505   3.925 -0.1444  0.0708 -0.0267
 2927W        W19774   1.316  16.803   4.452 -0.0349 -0.1418  0.1132
 2928W        W19775  11.022  16.724   5.269 -0.1904  0.0186  0.2455
 2929W        W19776   5.812  18.742   2.165 -0.0758 -0.0954  0.0060
 2930W        W19777   2.115   9.274   1.586 -0.3094  0.1235  0.0564
 2931W        W19778   5.000   1.623   0.967 -0.0650 -0.2699 -0.0505
 2932W        W19779  12.885  11.606   2.831 -0.0983  0.2975  0.0975
 2933W        W19780  14.788   0.728   2.140 -0.2695  0.0651 -0.1046
 2934W        W19781   6.115  11.423   4.385  0.4783 -0.1205  0.1495
 2935W        W19782   3.605   5.122  14.736  0.0402 -0.0725  0.1124
 2936W        W19783   7.805  18.222  10.617 -0.0143 -0.1022 -0.0796
 2937W        W19784   1.645  18.236  12.881  0.2386 -0.0846 -0.0905
 2938W        W19785   3.656   6.483   4.359 -0.0954  0.0227  0.1252
 2939W        W19786   5.429  15.127  12.342  0.2562  0.0662  0.0912
 2940W        W19787  11.374  11.374  10.902  0.1419  0.2795 -0.0025
 2941W        W19788  10.635   3.595  14.435 -0.0545 -0.1795 -0.0137
 2942W        W19789   1.716   6.327   1.194  0.0065 -0.1565 -0.0551
 2943W        W19790  10.368   7.517  14.722 -0.0297 -0.2033 -0.0980
 2944W        W19791   9.820  16.412   3.398 -0.1157 -0.0079 -0.0441
 2945W        W19792  18.660  11.098   2.095 -0.0195 -0.4631  0.5488
 2946W        W19793   2.346   3.316   4.811 -0.1782  0.0014  0.2979
 2947W        W19794   4.722  16.848   2.004 -0.0013  0.0479 -0.2113
 2948W        W19795   3.019   8.548  10.935 -0.1138  0.0259  0.1105
 2949W        W19796  17.528   9.747   3.294 -0.1092 -0.0117 -0.5439
 2950W        W19797  12.716   2.725  14.391  0.1148 -0.0087 -0.3016
 2951W        W19798   1.405  14.790  15.407  0.1527 -0.0596 -0.1968
 2952W        W19799   4.008  12.572   1.201  0.0003 -0.2349  0.0232
 2953W        W19800  18.323   7.397  14.865 -0.4220  0.1830 -0.1128
 2954W        W19801   6.257   4.595  12.697  0.0956  0.1736  0.3326
 2955W        W19802  16.276   3.393  14.271 -0.0665  0.1995  0.3693
 2956W        W19803   0.421   6.606   4.621 -0.1673 -0.0278  0.0006
 2957W        W19804  17.631   9.150  12.959  0.1725  0.0356 -0.2333
 2958W        W19805  15.751   9.335   0.371  0.0831  0.0972 -0.2716
 2959W        W19806  16.113   0.502   4.215 -0.1641  0.0702  0.0195
 2960W        W19807  14.358   7.820  10.063 -0.4256  0.3085  0.1377
 2961W        W19808   3.188  12.957   1.726 -0.2260 -0.2537 -0.0740
 2962W        W19809  17.498   2.979  11.454  0.1043 -0.1367  0.0448
 2963W        W19810   0.105   6.975   4.853  0.1021  0.0082  0.1619
 2964W        W19811   1.456  14.657  13.212  0.2324  0.0092  0.1940
 2965W        W19812  12.288   1.935  13.345  0.1738  0.0781 -0.0045
 2966W        W19813   4.159   9.370   3.664  0.0880 -0.3274  0.3120
 2967W        W19814  17.192   3.238   1.808  0.0477 -0.1168  0.0530
 2968W        W19815   6.989  10.871  10.466 -0.1990  0.1213 -0.1252
 2969W        W19816  12.358   4.635   3.568 -0.0661 -0.0117 -0.3345
 2970W        W19817  11.431   3.809  12.354 -0.2480  0.1489  0.3490
 2971W        W19818  15.814  18.236   5.240 -0.1611  0.0185 -0.1539
 2972W        W19819   9.144  16.997   0.809  0.4323  0.2732  0.1161
 2973W        W19820  16.148   4.147   1.290 -0.3705 -0.0265  0.3739
 2974W        W19821  11.919   6.417   3.255 -0.0712  0.1789  0.4352
 2975W        W19822  11.938   2.460  14.776  0.2879 -0.0013  0.1937
 2976W        W19823  10.933  12.689  12.091  0.0034 -0.3849  0.0333
 2977W        W19824  18.594   6.900  10.914 -0.0737 -0.1210 -0.1509
 2978W        W19825  10.367  13.916  12.391 -0.0089 -0.0665  0.1196
 2979W        W19826   3.709   1.424  11.660  0.1003  0.6276 -0.3241
 2980W        W19827  18.422   1.226   0.101  0.2394  0.5160  0.1933
 2981W        W19828  14.700  13.064  14.619  0.1553  0.3863  0.2605
 2982W        W19829  10.971   3.738  13.972  0.2010 -0.0940  0.2322
 2983W        W19830  10.717  11.546   2.428  0.1888 -0.1250  0.1033
 2984W        W19831   8.276  14.414   2.271  0.0028  0.2647 -0.0477
 2985W        W19832   0.574  17.780   2.385  0.0096 -0.0108  0.0756
 2986W        W19833  15.054   9.621   0.394  0.1689 -0.0951 -0.0231
 2987W        W19834  15.702   3.866  14.798 -0.0626  0.0259 -0.2303
 2988W        W19835   2.394   6.760  12.518 -0.0689 -0.2263 -0.2412
 2989W        W19836   9.877   8.123   3.430 -0.0937 -0.1575  0.2220
 2990W        W19837   2.997   7.096   2.572  0.0036  0.1599  0.0601
 2991W        W19838  17.970  14.251   2.005  0.0480  0.0614  0.2238
 2992W        W19839   4.775  17.388  11.504 -0.1275 -0.1969 -0.1398
 2993W        W19840   8.300  10.039  13.673  0.1794  0.1279  0.0028
 2994W        W19841  15.014  10.313   4.624 -0.1526  0.1209 -0.0211
 2995W        W19842  14.545   5.764   0.253  0.3048 -0.0284  0.2445
 2996W        W19843   1.637   7.648   1.070  0.0296  0.0642  0.2302
 2997W        W19844  15.830   9.412  10.431 -0.2146  0.0678 -0.2218
 2998W        W19845   0.904  13.597  13.073 -0.0400  0.2443  0.0803
 2999W        W19846  12.696   0.484   3.402 -0.2913  0.0799  0.0059
 3000W        W19847  11.698  15.854  12.917 -0.4925 -0.1264 -0.2113
 3001W        W19848   2.991   8.942   4.146  0.2268 -0.0361  0.0618
 3002W        W19849   7.173   6.657  15.445  0.3009 -0.1878 -0.0598
 3003W        W19850   0.736   4.145  14.795  0.2883 -0.0023  0.1229
 3004W        W19851  16.292  13.011  14.933 -0.2326  0.0851  0.1875
 3005W        W19852   3.298  17.311  15.400 -0.1613 -0.1089 -0.2421
 3006W        W19853   6.524   0.355  14.619  0.0562 -0.1341 -0.1588
 3007W        W19854   9.872   4.974  11.874 -0.0224  0.1785 -0.0208
 3008W        W19855   1.590  13.390  14.568  0.0283  0.0047  0.0712
 3009W        W19856  18.598   2.029  15.147  0.4810 -0.2277  0.0142
 3010W        W19857  11.391  10.803   2.315  0.1155  0.1658 -0.0711
 3011W        W19858   8.766   7.663   2.212 -0.2464  0.3937 -0.1198
 3012W        W19859   0.649  17.283   1.938 -0.5234  0.1223 -0.0933
 3013W        W19860  14.974  15.265  10.655  0.0302 -0.0255  0.1344
 3014W        W19861   6.457  17.286  12.893 -0.0085 -0.0746  0.2621
 3015W        W19862  15.928   8.143  13.631  0.0755  0.0041 -0.2387
 3016W        W19863  14.042   0.977  12.445  0.3633 -0.0566  0.1270
 3017W        W19864   0.737   1.286   0.063  0.2732  0.1508  0.2103
 3018W        W19865   5.965   5.268   2.616  0.2773 -0.1215 -0.1179
 3019W        W19866  12.859   0.922   1.869  0.0291  0.2620  0.1959
 3020W        W19867  10.319  17.429  15.244 -0.2119  0.0886  0.4300
 3021W        W19868   1.768   5.070   3.444  0.0912  0.0822 -0.1044
 3022W        W19869  18.095   7.869  10.857 -0.1448 -0.1672  0.3292
 3023W        W19870   4.910  12.110   2.725 -0.1077  0.1923  0.0537
 3024W        W19871  12.826  18.023  15.228  0.1331 -0.1189  0.0301
 3025W        W19872   3.356  17.434  10.493  0.1307 -0.0574 -0.0530
 3026W        W19873  16.902   4.251   1.664 -0.1275 -0.5881  0.2302
 3027W        W19874   7.105  16.014   3.045 -0.0051  0.2641 -0.1623
 3028W        W19875   4.299  12.910   3.706 -0.2768  0.0646 -0.1650
 3029W        W19876  10.937  11.998  14.574  0.1601  0.3639  0.1770
 3030W        W19877  15.905  10.347   3.868  0.2812 -0.2252 -0.1829
 3031W        W19878  16.123   8.872  15.442  0.0601  0.1175  0.0686
 3032W        W19879   9.791   5.657   0.367 -0.4699 -0.1998  0.4236
 3033W        W19880   8.128  16.173  11.280 -0.0148 -0.3363  0.2191
 3034W        W19881  18.405   6.173   5.015  0.0531 -0.0101 -0.6488
 3035W        W19882   4.825  13.717   3.775 -0.0693 -0.3394  0.2088
 3036W        W19883   0.347  18.404  11.244 -0.0232 -0.0092 -0.1673
 3037W        W19884   7.686  17.992  14.837  0.0444 -0.0956  0.0498
 3038W        W19885  17.966  16.113   1.612 -0.1297 -0.2956 -0.1091
 3039W        W19886  17.475   0.737  14.431 -0.0399  0.2554  0.0101
 3040W        W19887   0.074   9.438  12.701 -0.0858  0.1332 -0.0887
 3041W        W19888  12.448  18.303   3.765  0.0615  0.0102  0.1120
 3042W        W19889  16.619   8.569   1.412  0.0424  0.2143  0.1190
 3043W        W19890   6.590   3.532  13.839 -0.0001 -0.1084  0.1858
 3044W        W19891   0.027  16.148  15.540 -0.0739  0.2046 -0.1514
 3045W        W19892  14.809   4.862   1.247  0.2712 -0.2206 -0.0313
 3046W        W19893   1.926  10.358  11.349  0.0410 -0.0315 -0.0304
 3047W        W19894  15.083   1.325  14.479  0.1649  0.2321 -0.1594
 3048W        W19895   8.457   5.539   2.221 -0.0948  0.0447 -0.1646
 3049W        W19896  13.562   7.558   1.803 -0.2940 -0.1153  0.2363
 3050W        W19897  12.113   7.379   0.854  0.1409  0.1764  0.2145
 3051W        W19898  18.831  18.161   4.676 -0.2805  0.2628  0.1422
 3052W        W19899   4.733  14.968   2.734  0.1619  0.1278  0.0620
 3053W        W19900  10.461  18.213   2.621 -0.1263  0.0353 -0.2427
 3054W        W19901   0.219   6.024  13.881  0.1954 -0.0071 -0.0825
 3055W        W19902   0.569   4.326  11.123  0.2285  0.0220  0.3012
 3056W        W19903   9.525   0.193   4.307  0.1705 -0.1746  0.1500
 3057W        W19904  17.739   7.544   4.730 -0.1467 -0.1307  0.0170
 3058W        W19905   9.257  14.355  15.524  0.1254  0.4249  0.0530
 3059W        W19906   7.312  17.829   1.907  0.3655 -0.2572 -0.2205
 3060W        W19907  12.373   9.901   2.186  0.0467  0.2434  0.5362
 3061W        W19908   5.258   6.607  14.211 -0.0264 -0.0611  0.2317
 3062W        W19909   4.758   6.993  12.675 -0.0520  0.0287  0.2350
 3063W        W19910  16.326  12.871   2.283 -0.2169 -0.1966  0.1550
 3064W        W19911  13.798  17.748  14.882  0.1670  0.5739 -0.0400
 3065W        W19912  17.298  16.179   4.890 -0.1130  0.3280 -0.0680
 3066W        W19913   2.744  12.118  10.530  0.0296 -0.0409  0.5552
 3067W        W19914   7.741   9.777  15.047 -0.2445  0.2469 -0.3069
 3068W        W19915   3.966  12.428   0.697  0.2098 -0.0510 -0.0114
 3069W        W19916   0.431   9.813  14.404 -0.1945  0.2161 -0.1610
 3070W        W19917   7.795  11.436  12.446  0.2759 -0.0891  0.1160
 3071W        W19918  17.121   5.395  11.353 -0.0987 -0.0771  0.4110
 3072W        W19919  12.673   5.721  13.839 -0.1149 -0.0263  0.3180
 3073W        W19920   2.709   1.182  11.916 -0.0740  0.0189 -0.1786
 3074W        W19921  14.413   0.673   3.689  0.1075  0.0110  0.0021
 3075W        W19922  11.735  13.322   2.050  0.0118 -0.2307  0.1249
 3076W        W19923   0.413   5.638   4.963  0.1694  0.2483  0.0010
 3077W        W19924   3.592  11.747   0.318  0.1830  0.2940 -0.1960
 3078W        W19925  15.442   2.347  13.682  0.2061  0.1441  0.3131
 3079W        W19926   2.692  14.933   2.771 -0.3827  0.3014  0.1586
 3080W        W19927   1.081   3.294   5.105 -0.0333  0.2350  0.0003
 3081W        W19928   0.514   8.935   0.418  0.0898  0.1710 -0.0786
 3082W        W19929   3.414   9.249   2.037 -0.2209  0.0185  0.3933
 3083W        W19930  10.933   6.724   2.316 -0.1386  0.0884  0.1025
 3084W        W19931  17.348  12.728   5.030  0.0091  0.4429 -0.1671
 3085W        W19932   5.917   4.254  13.320  0.2371 -0.3477  0.2252
 3086W        W19933   0.084   8.652   5.891  0.1466 -0.0295  0.5870
 3087W        W19934  13.449  10.648   2.769 -0.0801 -0.3246 -0.1387
 3088W        W19935   3.683  13.486   1.147 -0.0982  0.2109  0.0422
 3089W        W19936   4.022  13.217   4.379  0.1636 -0.0059 -0.1862
 3090W        W19937   3.195  14.205   1.548  0.0068 -0.0867 -0.1172
 3091W        W19938   0.023   0.736   1.493  0.0905  0.3409 -0.2916
 3092W        W19939   1.831   4.190   1.632  0.1256  0.1400 -0.0444
 3093W        W19940   1.707   5.877   1.413 -0.0179 -0.3710 -0.1744
 3094W        W19941  16.938  17.002   2.465 -0.0891 -0.1515  0.0357
 3095W        W19942   3.244   9.730  10.964 -0.1860 -0.0158 -0.0626
 3096W        W19943   2.561   3.130   4.339  0.2091  0.1124  0.3420
 3097W        W19944  17.804   3.212  11.151  0.1552 -0.0115 -0.0484
 3098W        W19945   3.206  13.594  14.262  0.2146 -0.0725 -0.2179
 3099W        W19946  15.896  17.918  13.648 -0.0316  0.2331  0.0530
 3100W        W19947  13.405   2.048  12.215  0.0244  0.3773  0.3090
 3101W        W19948  18.136   8.481  13.027 -0.1937 -0.0681 -0.0916
 3102W        W19949   8.272  17.168   2.039  0.1617  0.0785  0.0596
 3103W        W19950  10.456   3.425  11.842  0.0766 -0.2155  0.0335
 3104W        W19951  14.631  18.823   5.388 -0.1054  0.0345 -0.2039
 3105W        W19952   0.794  15.967   2.524  0.1973 -0.2786 -0.0049
 3106W        W19953   4.188   0.669   0.455  0.3973 -0.3109 -0.2311
 3107W        W19954   4.824  15.774   2.163 -0.1676  0.1917  0.5500
 3108W        W19955   7.246  14.500  15.344 -0.1825  0.2251 -0.1668
 3109W        W19956   0.255   4.307   3.921 -0.0266 -0.2718  0.0995
 3110W        W19957  15.268   5.529   3.148  0.0545 -0.1716  0.0228
 3111W        W19958  15.506   9.714   0.125  0.1912  0.1320 -0.0775
 3112W        W19959   2.318   8.833  12.300 -0.0652 -0.2492  0.1768
 3113W        W19960   4.495  14.866   2.159 -0.1724 -0.0695  0.1277
 3114W        W19961   9.228  12.402   3.975  0.3163  0.1625  0.1234
 3115W        W19962  13.249  18.364  12.577 -0.3235  0.0115  0.0021
 3116W        W19963   4.345  16.651   0.292  0.1215 -0.0207 -0.2299
 3117W        W19964   7.454   7.365  11.552 -0.1602  0.0108 -0.1828
 3118W        W19965   4.619  12.898   3.350  0.0737 -0.2017 -0.0324
 3119W        W19966   6.069   4.987  14.306  0.1012 -0.0938 -0.0899
 3120W        W19967   2.024   6.781   2.869 -0.1173  0.0279 -0.2019
 3121W        W19968   8.937  15.454   3.374  0.4224 -0.0606  0.2019
 3122W        W19969  12.728  12.608   3.712 -0.0887  0.1284 -0.1392
 3123W        W19970  11.886  17.450  12.895 -0.1244 -0.2579 -0.3116
 3124W        W19971   5.724  16.898  13.932 -0.0278 -0.1909  0.0630
 3125W        W19972   8.032   1.366   3.887 -0.3873 -0.0907 -0.0514
 3126W        W19973   2.345   7.571  14.532 -0.3159 -0.2764 -0.2066
 3127W        W19974  14.685   1.859   4.234  0.0267 -0.0496 -0.0376
 3128W        W19975  17.461  18.167   2.021  0.2692  0.5469  0.3181
 3129W        W19976  11.569   3.676   0.855 -0.0062  0.0365 -0.1677
 3130W        W19977   0.796   2.178   3.816  0.1351  0.2009  0.1365
 3131W        W19978   8.765  17.238  12.750  0.1228 -0.1023  0.2077
 3132W        W19979  16.202   5.152   3.130  0.0244 -0.0716  0.0624
 3133W        W19980   2.965  12.902  12.911  0.3119  0.3872 -0.3039
 3134W        W19981   8.127  12.510  14.095 -0.1778  0.0938 -0.1010
 3135W        W19982  12.919  10.683   4.937 -0.1247 -0.0832  0.1095
 3136W        W19983  14.913  10.083   5.545 -0.1656  0.1010 -0.0341
 3137W        W19984   2.147  15.886   4.310  0.1885 -0.0600  0.0940
 3138W        W19985   1.700  17.673  12.821 -0.0044  0.0284 -0.2047
 3139W        W19986   3.666  18.527   2.375 -0.2227 -0.0099  0.0386
 3140W        W19987   8.673   0.103   2.066  0.1212  0.1850  0.0211
 3141W        W19988  15.164  16.595  11.501  0.0760 -0.1754 -0.1547
 3142W        W19989  12.312   6.017   0.898  0.0379 -0.3326  0.0534
 3143W        W19990   1.997  11.973  14.870 -0.1090 -0.2776  0.2765
 3144W        W19991   9.018  17.266  13.202  0.1125 -0.2406  0.2790
 3145W        W19992  11.319   0.137  11.223 -0.1003  0.0002  0.1715
 3146W        W19993  16.799   5.923  14.276 -0.2736 -0.1598  0.2986
 3147W        W19994   4.902   5.984   4.633 -0.1092  0.0625  0.0264
 3148W        W19995   6.846   8.620   3.146  0.3574 -0.1712 -0.4112
 3149W        W19996  17.731   0.464   3.146  0.0230 -0.1086 -0.3310
 3150W        W19997   7.677   6.414   5.157 -0.0945  0.0380  0.1177
 3151W        W19998   3.542  18.664  12.110  0.0800 -0.2769  0.0389
 3152W        W19999  16.478   1.331   5.527 -0.5360  0.1730 -0.0648
 3153W        W20000  15.382   1.710   4.214  0.2593 -0.0415 -0.0510
 3154W        W20001   1.666  18.588  14.155  0.0692 -0.2100 -0.0250
 3155W        W20002  14.333   0.730  13.449  0.2028  0.1853  0.0674
 3156W        W20003   1.274   4.946  11.265 -0.0011 -0.0082  0.0305
 3157W        W20004   1.399  13.490   0.325  0.1486  0.1857 -0.2541
 3158W        W20005   0.634   6.220  14.230 -0.3117 -0.2111  0.2049
 3159W        W20006  11.543   2.775   4.141 -0.1500 -0.3743  0.0303
 3160W        W20007   9.264  18.112   4.863  0.1169 -0.1928  0.0486
 3161W        W20008   3.621  18.163   3.303  0.3812  0.0928  0.1618
 3162W        W20009  15.493   1.380  11.291 -0.0930  0.1754  0.0968
 3163W        W20010   9.873   0.334  15.060  0.0406 -0.1988  0.2034
 3164W        W20011   7.350   0.411   0.384  0.1308 -0.5160 -0.0862
 3165W        W20012   2.190  12.830  15.108 -0.0683 -0.1998  0.1858
 3166W        W20013   1.317  10.320   2.082  0.0356 -0.4393 -0.1336
 3167W        W20014   8.435   7.535  11.299  0.1092  0.1361 -0.0908
 3168W        W20015  13.522   2.486   1.147  0.1495 -0.1355 -0.0335
 3169W        W20016  15.390  12.903  13.501 -0.0952 -0.1401  0.2276
 3170W        W20017  18.113  16.962  13.700  0.0624  0.1231  0.0255
 3171W        W20018  15.064   0.615   1.725 -0.0547  0.1860 -0.1074
 3172W        W20019   9.639   7.326   2.166  0.0847  0.0269 -0.2269
 3173W        W20020   3.926   4.024   4.414 -0.0317  0.1068 -0.2506
 3174W        W20021  12.801  15.020  14.380 -0.3992  0.0900 -0.3193
 3175W        W20022  12.831  13.709  13.224 -0.5082  0.4005 -0.0952
 3176W        W20023   2.468   5.744   4.363 -0.2535 -0.3959  0.0109
 3177W        W20024   6.290  16.803   1.685  0.1560 -0.1037 -0.0974
 3178W        W20025   5.393  11.734   4.664 -0.1244 -0.0007 -0.2684
 3179W        W20026  11.057  13.507  11.981 -0.0128 -0.1629  0.2379
 3180W        W20027  18.785  13.806   3.102 -0.0876 -0.0006  0.0276
 3181W        W20028   7.373  11.216  14.760 -0.1645  0.1932  0.2316
 3182W        W20029   6.073   5.000  12.475  0.0588 -0.2743 -0.2130
 3183W        W20030  10.678   6.993   5.930  0.0400  0.0274  0.0690
 3184W        W20031  11.041  16.635   4.783  0.0687 -0.0837  0.0934
 3185W        W20032  11.665  15.150   3.465  0.1341  0.2245 -0.4980
 3186W        W20033   8.973  11.049  14.983 -0.0008  0.1010 -0.3691
 3187W        W20034   3.023   9.238  13.447  0.2241  0.0477  0.3864
 3188W        W20035  10.715   4.169   2.951  0.0664  0.2241  0.0355
 3189W        W20036  11.540   2.485   4.553 -0.2347 -0.1477  0.0471
 3190W        W20037   4.264  18.241  11.822 -0.2951 -0.1024 -0.1962
 3191W        W20038   5.850   4.252  10.985 -0.1944 -0.0549  0.0029
 3192W        W20039  16.998   3.283  10.995 -0.0701 -0.1580 -0.1870
 3193W        W20040   4.999  18.037   1.137 -0.0559  0.2300  0.1616
 3194W        W20041  16.991  10.649  11.435  0.0494 -0.1484 -0.0778
 3195W        W20042  18.632   0.322  13.624  0.1877 -0.1842 -0.2628
 3196W        W20043   3.755  10.620   2.287  0.1959 -0.0817  0.1742
 3197W        W20044   4.772   7.500  14.208 -0.2472 -0.0403 -0.0810
 3198W        W20045  16.706   8.739   3.006 -0.1167 -0.0020 -0.0218
 3199W        W20046   5.502  11.440   1.656 -0.2608 -0.3637 -0.1183
 3200W        W20047  11.911   9.146   4.012 -0.0007  0.0075  0.0466
 3201W        W20048   0.382  17.524  11.730  0.3300  0.0098  0.1304
 3202W        W20049  16.653   1.198   1.313  0.0343  0.2172  0.1411
 3203W        W20050  15.311  16.960  14.324 -0.1732 -0.3079 -0.1254
 3204W        W20051   4.795   1.656   4.255  0.3314  0.2544 -0.0192
 3205W        W20052   0.059  18.419   1.664  0.0062 -0.0587 -0.0454
 3206W        W20053   0.135   5.766  14.679 -0.0235  0.0537 -0.1009
 3207W        W20054  10.710  15.488   3.130 -0.1127 -0.0075  0.0999
 3208W        W20055   9.554  12.402   4.384  0.0219  0.3126  0.0897
 3209W        W20056  17.568  18.061  14.347  0.1938 -0.4147 -0.2797
 3210W        W20057   8.938   1.485   1.656 -0.2548  0.1543  0.1962
 3211W        W20058   2.358  17.389   3.117  0.1726  0.1170  0.1765
 3212W        W20059  15.886  11.665   1.418 -0.2119 -0.0675 -0.2716
 3213W        W20060   0.085  18.813  12.256 -0.1196 -0.0589 -0.0966
 3214W        W20061  11.602   9.990  12.267  0.0969  0.0612 -0.1242
 3215W        W20062   4.150   8.460   5.654  0.0287 -0.3094  0.0394
 3216W        W20063  12.706  15.971  13.608 -0.1541 -0.0387 -0.1775
 3217W        W20064   8.874  13.211   1.563  0.1333  0.3078  0.0547
 3218W        W20065  16.086   6.287   0.893 -0.2646 -0.0468 -0.6492
 3219W        W20066   6.536  18.683  14.400  0.0806 -0.1373  0.0459
 3220W        W20067   1.144  16.119  12.851  0.1668  0.1001  0.1990
 3221W        W20068   2.417  11.807   1.953 -0.2162  0.1501  0.1901
 3222W        W20069   4.221   1.375   2.330 -0.1504  0.0315 -0.1200
 3223W        W20070   9.232  15.735   3.698 -0.0740  0.1343  0.0040
 3224W        W20071   2.507   3.807  13.335 -0.1043  0.0321 -0.0963
 3225W        W20072   9.949   7.856  10.845  0.1277 -0.1830  0.2233
 3226W        W20073   2.915   5.656   4.787 -0.1074 -0.1775  0.0645
 3227W        W20074   4.929   3.499  14.604 -0.0672 -0.1432  0.2223
 3228W        W20075   0.357   2.514  13.059  0.0135  0.4092 -0.0001
 3229W        W20076   7.073  13.823  14.229 -0.1459 -0.0560  0.0362
 3230W        W20077   9.785   4.555   4.884 -0.1463  0.1505 -0.2122
 3231W        W20078   3.751   8.700  12.812  0.1916 -0.3794 -0.0689
 3232W        W20079  13.893   1.966  13.052 -0.3137  0.1027  0.1460
 3233W        W20080   0.750   3.516   0.283  0.1490 -0.0947  0.0201
 3234W        W20081   7.437   3.207   4.024 -0.3434  0.4672 -0.1505
 3235W        W20082  16.395   3.631   3.889 -0.1069 -0.2788  0.1901
 3236W        W20083  14.834   0.860  14.578 -0.4416 -0.0304  0.1365
 3237W        W20084   7.629   9.868   9.642  0.1823 -0.0862  0.0576
 3238W        W20085   5.283  13.238   2.072 -0.1578  0.0568 -0.0401
 3239W        W20086   8.596  13.447  14.619  0.0415  0.1625  0.0962
 3240W        W20087  18.072  10.859   2.747  0.1374  0.0987  0.1006
 3241W        W20088   7.838   9.336   3.081 -0.0119 -0.1170  0.2305
 3242W        W20089  12.494   9.333   1.008  0.0621 -0.2175  0.0096
 3243W        W20090   7.419  11.627   2.305  0.1117 -0.1490 -0.0114
 3244W        W20091   3.456   8.545   9.953  0.0974  0.0017 -0.2459
 3245W        W20092   6.002  12.648   3.169 -0.0744 -0.3035 -0.0214
 3246W        W20093   1.948  13.096  13.043  0.1354 -0.1299  0.1401
 3247W        W20094   4.383   3.090  12.889  0.1554 -0.5207 -0.1203
 3248W        W20095   1.844  11.737   0.246 -0.0864  0.1213 -0.1132
 3249W        W20096   9.268   7.362   3.465  0.2268 -0.0710  0.3678
 3250W        W20097  11.722   3.777  12.843 -0.1962  0.0015 -0.1796
 3251W        W20098  16.928   3.643   3.962  0.2487 -0.1318  0.1135
 3252W        W20099   2.756  15.588   2.002 -0.0820 -0.0237  0.1442
 3253W        W20100   7.727   3.254   2.684  0.0726  0.0262  0.2614
 3254W        W20101  16.882   3.034   3.301  0.1669 -0.0804  0.0391
 3255W        W20102   1.306   1.616   0.598 -0.2008  0.0403  0.0659
 3256W        W20103   9.699   1.455  14.112  0.0382 -0.3134  0.3299
 3257W        W20104   8.936   6.780  12.034 -0.1055  0.2274 -0.0571
 3258W        W20105  14.840  16.962  14.314 -0.1944 -0.2007 -0.0868
 3259W        W20106   6.059   3.147   5.177 -0.1990 -0.1063  0.0252
 3260W        W20107   0.101   4.277   0.253  0.1764 -0.4172  0.0612
 3261W        W20108  14.989  18.804  13.123 -0.2148  0.2579  0.0628
 3262W        W20109  17.449   3.344   0.379 -0.0629  0.2550  0.3761
 3263W        W20110   0.140  10.057   5.174 -0.1530 -0.0622 -0.2403
 3264W        W20111  17.902  13.307   0.102  0.4909  0.2617 -0.3544
 3265W        W20112  18.409   8.714  13.900  0.1122 -0.0584 -0.2040
 3266W        W20113  14.634   6.780  11.321 -0.0668 -0.2721 -0.0360
 3267W        W20114   9.512  11.071   4.473 -0.2018  0.0966  0.2695
 3268W        W20115  12.046  18.738   5.208 -0.0861  0.2015  0.0635
 3269W        W20116  17.224  17.722   1.802  0.1180  0.1681  0.3821
 3270W        W20117   0.672   7.996  14.514 -0.0745 -0.2284  0.1469
 3271W        W20118   2.748  17.814   2.871 -0.1859  0.2332 -0.0054
 3272W        W20119  13.994   8.692   1.271 -0.1695  0.0718  0.0648
 3273W        W20120  17.690   9.387  14.573  0.1836  0.1678 -0.0076
 3274W        W20121  11.314  13.316  14.599 -0.2928 -0.1384  0.0097
 3275W        W20122  17.581   8.632  12.984 -0.0148  0.0846  0.1962
 3276W        W20123  14.779  12.248  15.086 -0.1950  0.1541  0.0278
 3277W        W20124  18.068  18.746   0.469  0.1063 -0.3204  0.1248
 3278W        W20125  12.298  14.046  15.261 -0.0237  0.0943 -0.1720
 3279W        W20126  11.015  11.581  13.306 -0.0219  0.2791 -0.1244
 3280W        W20127  11.027   9.052  11.625 -0.0098  0.0314 -0.0481
 3281W        W20128  10.679  14.888  14.700 -0.3079 -0.0638  0.2378
 3282W        W20129   5.225  15.381  12.943 -0.2309 -0.0901  0.0448
 3283W        W20130  11.302  15.556  14.231  0.2535 -0.0152 -0.2173
 3284W        W20131  18.721   2.166  10.474  0.0484 -0.0744 -0.1224
 3285W        W20132   0.888  13.896  13.510 -0.0309  0.2183 -0.0056
 3286W        W20133  18.417   0.174  14.015  0.1241  0.0662 -0.0555
 3287W        W20134   3.415  10.738   4.877 -0.0002  0.1864  0.1608
 3288W        W20135  18.708  13.719   3.631  0.0957  0.1783  0.0461
 3289W        W20136   8.115  16.300  14.330 -0.3848 -0.5209 -0.1707
 3290W        W20137  10.575   5.008  14.596  0.0079 -0.1285 -0.2090
 3291W        W20138   2.068  14.074  13.359 -0.0154  0.2756  0.0628
 3292W        W20139   3.273  16.386   4.885  0.0730 -0.0369 -0.0090
 3293W        W20140   2.547  11.996  14.880 -0.0495  0.5203  0.3235
 3294W        W20141  12.541   1.913   5.429 -0.0314 -0.0613  0.3245
 3295W        W20142  17.777  16.913   3.120 -0.1487 -0.0970 -0.1648
 3296W        W20143   1.943  11.081   2.129 -0.3897 -0.1905  0.0645
 3297W        W20144   6.270   0.582  12.037 -0.0302 -0.2705 -0.2754
 3298W        W20145   2.418   5.165   2.423 -0.0703  0.0838  0.2057
 3299W        W20146  10.440  17.209   2.252  0.0307 -0.0869  0.2152
 3300W        W20147   0.581   7.823  12.470 -0.2435 -0.1197  0.0166
 3301W        W20148   6.719   3.216  12.955  0.0084  0.2231  0.1248
 3302W        W20149   0.966   4.902   0.906 -0.0456 -0.1186  0.0670
 3303W        W20150  12.619   0.520   1.639  0.1451  0.0212 -0.0393
 3304W        W20151   4.738  13.997  12.720 -0.0738 -0.3827 -0.0121
 3305W        W20152  10.470  13.783   2.621 -0.1135  0.1878 -0.2449
 3306W        W20153   4.519  10.774   4.154  0.2201  0.2026  0.1051
 3307W        W20154  15.779  13.402  12.584  0.3286 -0.2809  0.1288
 3308W        W20155  12.174   0.302   1.146 -0.2590 -0.2262 -0.1933
 3309W        W20156  11.173   7.885  14.055  0.0254 -0.2063  0.1618
 3310W        W20157  15.407  11.742   3.570 -0.2786 -0.0221 -0.0512
 3311W        W20158   2.453  11.005  11.777 -0.4329  0.0298 -0.1215
 3312W        W20159   2.516  14.094  14.815 -0.0613 -0.0243 -0.2362
 3313W        W20160  15.721  13.120  14.292 -0.0824  0.0174  0.3826
 3314W        W20161  15.078   0.420  14.367  0.2934 -0.1986 -0.0724
 3315W        W20162  12.501  12.768   0.297  0.0957 -0.0612  0.0322
 3316W        W20163   9.123   1.856   2.887  0.2996  0.0429  0.0180
 3317W        W20164  12.761  11.035   2.100  0.0631 -0.0791  0.0933
 3318W        W20165  18.116   7.549   3.179 -0.2386  0.3111 -0.3976
 3319W        W20166   8.761   1.501   6.089  0.0730  0.2149  0.1547
 3320W        W20167   1.532  10.814   2.544  0.0239  0.0058  0.2430
 3321W        W20168  11.890  15.106  14.931 -0.1980 -0.0930 -0.0427
 3322W        W20169  18.073  17.481  12.355  0.0721  0.1207  0.1255
 3323W        W20170  12.947   3.292   0.818  0.1112  0.1853  0.0750
 3324W        W20171   9.424  11.637   3.087  0.0734  0.2301  0.2375
 3325W        W20172  14.989   9.187   1.180  0.1901  0.0268  0.2068
 3326W        W20173   3.376   3.794   4.299 -0.2696 -0.0282 -0.1053
 3327W        W20174  16.703   6.654   1.647 -0.4758 -0.4932 -0.1568
 3328W        W20175   1.547  16.647  12.047  0.0399 -0.2986 -0.0992
 3329W        W20176  18.167   9.345   1.646  0.4132  0.3000 -0.1397
 3330W        W20177   1.025  17.872   0.707  0.0070  0.3302 -0.3070
 3331W        W20178  17.339   5.915   2.885 -0.0990 -0.0336  0.2458
 3332W        W20179   3.231   5.366  13.528 -0.0690  0.0518  0.2582
 3333W        W20180   5.678  18.023  10.423 -0.3736 -0.3533 -0.0123
 3334W        W20181  14.045  16.306  13.189 -0.1284  0.1387  0.0606
 3335W        W20182   0.098   1.194  10.712  0.2519 -0.2797 -0.1090
 3336W        W20183  14.881   1.917   4.967 -0.2482 -0.3249  0.0641
 3337W        W20184  15.720   6.588   3.558  0.0210 -0.0440 -0.4598
 3338W        W20185   0.006   5.228   0.926  0.3283 -0.1305  0.0206
 3339W        W20186  18.225   3.743   2.977  0.1206  0.0632  0.0927
 3340W        W20187   3.917  12.850  11.887  0.2429 -0.0876  0.0208
 3341W        W20188  12.324  13.626  15.537 -0.0102  0.0759  0.0070
 3342W        W20189  10.376  12.220   5.968  0.2290  0.1131 -0.0113
 3343W        W20190   7.454   2.709   1.478  0.2449  0.1894 -0.0013
 3344W        W20191   5.816   1.715  15.022 -0.0664 -0.1444  0.2745
 3345W        W20192   6.203  12.178   3.697  0.3691 -0.2126  0.1644
 3346W        W20193   0.005  13.680  13.529 -0.0369 -0.2169 -0.1771
 3347W        W20194  18.775  14.332   0.208  0.2426 -0.2007  0.3924
 3348W        W20195  15.002   0.951   0.243  0.3927 -0.0530  0.1034
 3349W        W20196  17.330   6.633  14.100  0.2116 -0.1279  0.1990
 3350W        W20197  16.040   4.731  11.675  0.3196  0.0560  0.2445
 3351W        W20198  18.779   3.296  15.147  0.0197 -0.2123  0.1386
 3352W        W20199   6.542  14.076   5.003  0.0405 -0.3993 -0.2908
 3353W        W20200   3.894  15.250   3.955  0.0203  0.1450  0.1860
 3354W        W20201  11.554   1.155  14.256  0.2086  0.1035  0.0612
 3355W        W20202   7.740  11.589   4.914  0.0260 -0.0955 -0.1708
 3356W        W20203  15.736   6.309   2.412  0.0015  0.6563 -0.0509
 3357W        W20204   1.460  11.600   1.487 -0.1625  0.0741 -0.1361
 3358W        W20205  14.741  17.260   0.913 -0.0115 -0.4776 -0.1962
 3359W        W20206  15.762   9.957   1.045 -0.0365 -0.0759 -0.5456
 3360W        W20207   7.293   9.139   4.555  0.4620 -0.2872 -0.2855
 3361W        W20208   0.372   9.277   3.153 -0.2178  0.0781  0.2563
 3362W        W20209   8.843  18.393   4.619 -0.0463 -0.3213 -0.1888
 3363W        W20210  11.037   8.167  14.430  0.2450  0.2188 -0.2362
 3364W        W20211   8.040   9.174   1.121 -0.2522 -0.4746 -0.0632
 3365W        W20212   2.131   5.894   5.631  0.0717  0.0593 -0.1476
 3366W        W20213   6.309   4.461  14.556  0.0823  0.0567 -0.0762
 3367W        W20214  16.779  13.793  15.215 -0.2806 -0.1116 -0.2314
 3368W        W20215   6.044  10.168   0.269  0.3464  0.3768  0.0553
 3369W        W20216  15.762   8.523   9.745 -0.2868  0.0849  0.1751
 3370W        W20217  16.618  12.388   3.570  0.2270  0.0105  0.0500
 3371W        W20218   1.720   9.287  12.925 -0.3057 -0.1251 -0.2125
 3372W        W20219   7.529   1.088   0.680 -0.1750 -0.5289 -0.0145
 3373W        W20220   2.879  17.963   0.224 -0.2119 -0.0211 -0.0508
 3374W        W20221  16.065  10.878  11.607 -0.2501 -0.0487  0.1180
 3375W        W20222  12.424   3.210  13.349  0.0195  0.1346 -0.2789
 3376W        W20223   8.356  17.805   1.814 -0.0805  0.1331 -0.2815
 3377W        W20224  14.160  14.749   2.992  0.2128 -0.1083  0.2761
 3378W        W20225  12.822   6.891  10.717  0.2436 -0.0265 -0.3438
 3379W        W20226  13.800  17.262   3.192  0.1495 -0.0845 -0.1581
 3380W        W20227  11.336  15.088   1.824 -0.5475  0.2023 -0.2502
 3381W        W20228   5.277   7.494   3.220 -0.2130 -0.1495  0.0884
 3382W        W20229  10.332  18.056  14.597  0.0482  0.1110  0.2438
 3383W        W20230   0.173   1.610  11.016 -0.2201 -0.0938 -0.3048
 3384W        W20231   1.935   7.485  12.437  0.0124  0.2399 -0.0430
 3385W        W20232   3.214   2.789   0.681 -0.2685  0.0472 -0.3080
 3386W        W20233   0.386  16.960  11.021 -0.2816 -0.1556  0.2857
 3387W        W20234   1.653  12.159   2.135 -0.1906 -0.0464  0.0753
 3388W        W20235  17.446   5.232   4.582 -0.1421  0.2468 -0.0242
 3389W        W20236   6.125   8.039   3.783 -0.0854  0.2697  0.0143
 3390W        W20237   2.357  11.946  15.334 -0.2977 -0.1515 -0.0593
 3391W        W20238  12.964  10.996   1.045  0.1534 -0.1381  0.1266
 3392W        W20239   0.285  13.371  14.944  0.0799 -0.0730  0.1452
 3393W        W20240   5.334  10.411   2.992  0.3024 -0.0131  0.4827
 3394W        W20241  17.064  13.095   1.141  0.0335  0.0033  0.0370
 3395W        W20242  10.997   9.371   3.660  0.0662 -0.0536 -0.1678
 3396W        W20243   6.264   6.361   0.101  0.1131 -0.0666 -0.0285
 3397W        W20244  15.539   5.642   4.942 -0.4735  0.0027  0.0519
 3398W        W20245  10.072   4.569   3.468  0.2660 -0.2888 -0.4246
 3399W        W20246  13.076  17.491   2.110  0.0856  0.2819 -0.2027
 3400W        W20247  13.973   0.979   0.836  0.0456  0.1513  0.1778
 3401W        W20248   7.758  15.603   2.022  0.2258 -0.2560  0.0766
 3402W        W20249  18.792   3.462   3.803 -0.0698  0.0631  0.3802
 3403W        W20250   2.918  14.009  10.574 -0.0585  0.0795  0.1681
 3404W        W20251  12.289  14.231  14.798 -0.2645 -0.1066 -0.0798
 3405W        W20252  10.009  16.482  14.044  0.3433  0.3301  0.0144
 3406W        W20253   6.971  15.436   0.157 -0.3133  0.2703 -0.1415
 3407W        W20254  12.028   9.951  14.624  0.0341 -0.3657  0.3829
 3408W        W20255  12.519   5.633  15.543 -0.2105  0.3561 -0.0514
 3409W        W20256  15.556   1.201  12.717 -0.1149 -0.1500  0.1484
 3410W        W20257   0.048   6.855  11.462  0.0430  0.2748  0.0705
 3411W        W20258  17.281  18.833   3.642  0.1856  0.0164  0.1897
 3412W        W20259  14.587   3.549  11.993  0.1016  0.1273  0.0282
 3413W        W20260  13.820  10.788  14.738  0.1466 -0.3510  0.1712
 3414W        W20261  14.039  10.339  10.021 -0.0104 -0.2071 -0.1194
 3415W        W20262   1.942  11.484  15.162 -0.2111 -0.1666 -0.1149
 3416W        W20263  10.430  14.676  10.799 -0.0853  0.2051 -0.1282
 3417W        W20264   4.029  15.931  12.233  0.1311  0.1215 -0.2004
 3418W        W20265  11.739   3.093   4.550  0.0363  0.2834  0.2432
 3419W        W20266  13.530  12.478  13.331  0.0995 -0.1880  0.0147
 3420W        W20267  14.810  16.781   1.328 -0.3350 -0.2254 -0.2049
 3421W        W20268  13.008  11.589   2.326  0.1718 -0.1092  0.0136
 3422W        W20269  17.668  12.439  14.251  0.2236 -0.1053  0.1661
 3423W        W20270   2.268  11.334  12.251 -0.0256  0.3166 -0.3102
 3424W        W20271  16.272   2.337  12.491  0.1120  0.3198 -0.1729
 3425W        W20272  13.298  16.812  10.151  0.1486  0.1111  0.0091
 3426W        W20273  16.581   7.361  12.747 -0.0485  0.1510  0.0405
 3427W        W20274  12.812  12.356  12.523  0.1090  0.1215 -0.2765
 3428W        W20275  12.125  11.917  13.601 -0.3232 -0.2100 -0.0408
 3429W        W20276  15.753  11.202  10.699 -0.0448  0.1338 -0.2998
 3430W        W20277   3.767   5.235  13.671 -0.2667  0.3350  0.0731
 3431W        W20278   1.673  10.880   1.165  0.2149  0.0145 -0.2054
 3432W        W20279   5.874   3.616  14.706 -0.2151  0.3398  0.1302
 3433W        W20280  14.760   6.629  12.499  0.0707 -0.1489 -0.0796
 3434W        W20281  18.264   3.603  14.110 -0.1680  0.1148 -0.1787
 3435W        W20282  12.769  10.410  10.196 -0.3021 -0.2294  0.2031
 3436W        W20283  11.894  16.736   2.864 -0.1677 -0.1021 -0.2918
 3437W        W20284  11.349   4.483   4.042 -0.0949  0.1470 -0.2617
 3438W        W20285   4.031   6.213   4.081  0.1291 -0.4036 -0.2936
 3439W        W20286   3.325  11.264  13.575 -0.2935 -0.0909 -0.3711
 3440W        W20287   8.461   0.055   3.077  0.3790 -0.0883  0.0808
 3441W        W20288   5.917   8.121  12.228 -0.0761  0.2119 -0.0069
 3442W        W20289   6.068   6.608   4.930  0.0600  0.0537  0.1434
 3443W        W20290  18.431   6.062  13.137 -0.0245 -0.2887 -0.0718
 3444W        W20291   9.454  17.456  12.861  0.0767  0.0306 -0.1956
 3445W        W20292  11.217  14.290   4.620 -0.0859 -0.2062 -0.3045
 3446W        W20293   7.953  14.545  12.930  0.0860 -0.1401 -0.0049
 3447W        W20294  10.184   8.454   4.584  0.0330  0.1215  0.0630
 3448W        W20295  16.629   7.873  14.120 -0.3329  0.1052  0.1060
 3449W        W20296  10.095   6.334  12.326  0.1484 -0.3057  0.0343
 3450W        W20297  12.696   9.886   0.282  0.4576 -0.1616  0.0007
 3451W        W20298   4.040   9.276  10.762  0.1537 -0.0024  0.0741
 3452W        W20299   0.972   5.724   3.010 -0.3881  0.0669  0.0749
 3453W        W20300   3.932   3.569   0.973  0.0283 -0.1393 -0.0109
 3454W        W20301  12.027  10.629  11.254 -0.3629  0.0087  0.0435
 3455W        W20302  14.008   8.146  11.445 -0.2271 -0.1307 -0.1431
 3456W        W20303   9.980  15.327   1.366 -0.2746 -0.0383  0.0990
 3457W        W20304   9.170   9.448  15.409  0.2446  0.2154  0.0564
 3458W        W20305  10.278   3.636   5.614 -0.0450 -0.0027 -0.3578
 3459W        W20306  13.165   7.182   5.775 -0.0091 -0.5098 -0.1079
 3460W        W20307   1.283   6.937  13.143 -0.0720  0.0234  0.1709
 3461W        W20308   4.841   0.473   4.140  0.2252  0.1576  0.0905
 3462W        W20309  10.064  14.537  14.673  0.1071  0.4153  0.2148
 3463W        W20310   8.396   6.790   0.100 -0.0299  0.1170 -0.0880
 3464W        W20311  10.225  16.199   3.144  0.0331  0.3334  0.3365
 3465W        W20312  15.344   3.681   3.601 -0.0910 -0.2699 -0.0325
 3466W        W20313   5.594   6.637   2.097 -0.2587 -0.1113 -0.2015
 3467W        W20314  15.272  13.367   3.047 -0.3868  0.3265  0.1657
 3468W        W20315  14.326  13.115   0.610 -0.0348 -0.0613  0.2055
 3469W        W20316   1.689  10.761  13.310 -0.1061 -0.0516  0.4083
 3470W        W20317   5.949  16.067  12.979  0.0017 -0.0329  0.1319
 3471W        W20318   1.013  13.729   5.237  0.5010  0.0564 -0.0601
 3472W        W20319  14.879   8.744  11.861  0.4268  0.3286 -0.1727
 3473W        W20320   5.660  15.565   4.743  0.3541  0.0042  0.1237
 3474W        W20321  15.930  11.814   4.990  0.0195 -0.1631  0.1130
 3475W        W20322  11.994  13.678  14.355  0.1639 -0.3343  0.0391
 3476W        W20323   3.555  11.577   3.106 -0.3032  0.0116 -0.0333
 3477W        W20324   5.773  12.202  13.871  0.0533  0.2624  0.1230
 3478W        W20325  10.796   1.761  12.928 -0.0217 -0.3384 -0.0147
 3479W        W20326   5.014  10.319  14.990  0.2665 -0.1721 -0.0823
 3480W        W20327  10.673   8.544  14.327  0.0115 -0.2013  0.1179
 3481W        W20328  13.310   7.954   0.440  0.0046  0.0842  0.0161
 3482W        W20329  18.010   6.472   4.956 -0.1377  0.0065 -0.1249
 3483W        W20330   3.062   9.157   2.932  0.0033 -0.1050 -0.1460
 3484W        W20331  18.472  11.462   2.959 -0.0342  0.3151 -0.1684
 3485W        W20332  16.592   7.859  11.079  0.2360  0.0632 -0.0266
 3486W        W20333   2.551   3.995   2.574  0.2893 -0.0542  0.1395
 3487W        W20334  13.835   0.465   0.119 -0.1469  0.0034  0.2208
 3488W        W20335  16.808  17.322  13.434 -0.1531  0.0844  0.0580
 3489W        W20336   9.886   7.055   1.813 -0.5360  0.1962 -0.0520
 3490W        W20337   4.268  11.283   5.060  0.2654 -0.0636  0.0302
 3491W        W20338   4.074  15.122  14.179  0.0094 -0.3847 -0.1411
 3492W        W20339   8.416  17.948  12.431  0.2879 -0.0127 -0.1310
 3493W        W20340   9.194   0.877  12.859 -0.0114  0.1322 -0.3182
 3494W        W20341   0.425   0.524   2.776 -0.0348  0.0090 -0.1033
 3495W        W20342  12.403   5.505  13.280  0.0251  0.0317 -0.0265
 3496W        W20343   7.447   4.255   2.847 -0.0092  0.0234  0.3037
 3497W        W20344  14.457   5.299  12.880  0.3488  0.0429  0.0450
 3498W        W20345   2.299   6.118  13.697 -0.0423  0.2203 -0.0071
 3499W        W20346  18.690   2.760   9.588  0.0167 -0.1484  0.1173
 3500W        W20347  14.066   4.139  15.042  0.2223 -0.1699 -0.4119
 3501W        W20348  10.357   2.040  15.216 -0.6068 -0.1531  0.1106
 3502W        W20349   1.526   5.669  12.640  0.3056 -0.0541 -0.3257
 3503W        W20350   7.306  13.692   1.415  0.3381 -0.0527 -0.2245
 3504W        W20351  18.434   0.024   2.715  0.4625  0.0952  0.2787
 3505W        W20352  14.473  12.943   3.899  0.0660  0.2097 -0.0609
 3506W        W20353   4.553  15.247   0.180  0.1470 -0.0287 -0.2423
 3507W        W20354   1.309  12.377  14.235  0.1165  0.3241 -0.3036
 3508W        W20355  13.594  15.117   3.673  0.1116  0.0818 -0.0945
 3509W        W20356   0.347  13.933  12.296  0.0113  0.0330  0.2576
 3510W        W20357  12.032   5.193   4.909  0.3199  0.3144  0.0685
 3511W        W20358   3.613   5.313  10.990  0.0261 -0.1252 -0.1226
 3512W        W20359  11.918   1.223  13.910 -0.1533 -0.0070 -0.3250
 3513W        W20360  15.292  18.290   2.551  0.1020  0.2704 -0.1775
 3514W        W20361   6.141   2.314  11.945  0.4688 -0.1702 -0.0187
 3515W        W20362  11.682   6.660   1.618 -0.1689  0.0701  0.1916
 3516W        W20363   2.190   5.025   4.082 -0.2217  0.3402  0.0321
 3517W        W20364  14.701  13.785   0.416  0.1228 -0.0166  0.1672
 3518W        W20365   6.919  18.132  11.771  0.0557  0.3282  0.3493
 3519W        W20366  18.186  17.318   1.980 -0.0140 -0.0019  0.0216
 3520W        W20367  18.493   8.733   2.862 -0.0368 -0.1900 -0.2202
 3521W        W20368   0.899  14.922   4.260 -0.0573 -0.2115 -0.1240
 3522W        W20369  17.698   1.740  14.022 -0.3658 -0.2412  0.4599
 3523W        W20370   1.569   6.984   2.893 -0.0349 -0.3968 -0.1912
 3524W        W20371  10.448  12.425   2.182  0.1822 -0.2841  0.0202
 3525W        W20372  14.141   4.855  12.791  0.3799 -0.0189  0.3084
 3526W        W20373   2.515   5.316  14.329  0.0138  0.0621  0.0754
 3527W        W20374  15.045   5.457   0.182  0.4624 -0.3201  0.3164
 3528W        W20375  10.384   8.678  13.339 -0.0229  0.0891  0.0305
 3529W        W20376  14.309  11.252   0.687  0.1236  0.0928 -0.1734
 3530W        W20377  12.178  10.709  14.629  0.0403  0.0865 -0.1417
 3531W        W20378   7.134   4.006   3.640  0.2010  0.1495  0.1125
 3532W        W20379   7.633   1.645   4.680 -0.0562 -0.1800 -0.1785
 3533W        W20380  11.198   5.411  15.017  0.2091  0.2580  0.1833
 3534W        W20381   6.251   9.280   4.817 -0.2402  0.0276  0.2300
 3535W        W20382  14.602  15.894   1.108 -0.1471 -0.3136  0.1924
 3536W        W20383   6.486   2.815   5.629 -0.1696  0.0391 -0.1182
 3537W        W20384   5.431  17.322   2.816  0.0277 -0.3671 -0.1249
 3538W        W20385  12.269   3.922  13.847  0.1450  0.5633 -0.1519
 3539W        W20386  10.503  13.726  13.304 -0.0540  0.3426 -0.2606
 3540W        W20387   7.227  18.290   9.812  0.3522 -0.4526 -0.1761
 3541W        W20388  11.561  18.557  15.180 -0.2338  0.3054  0.1151
 3542W        W20389   2.837   3.929  13.716 -0.2732 -0.2415  0.2315
 3543W        W20390   7.655   7.209   0.413  0.1290  0.0348 -0.2281
 3544W        W20391  13.557  15.607   3.756  0.1030 -0.1612  0.1324
 3545W        W20392   1.891  11.322   5.478  0.1293  0.0045  0.1111
 3546W        W20393  18.629   3.608  15.496 -0.1703  0.1994 -0.0013
 3547W        W20394   7.886  12.856   1.463 -0.0335 -0.0594 -0.0184
 3548W        W20395  14.739  13.345  12.663  0.1888  0.1329 -0.0580
 3549W        W20396   3.177   0.167   3.127 -0.0635 -0.0852  0.0043
 3550W        W20397  11.089   3.907  11.925 -0.0823 -0.1317 -0.3432
 3551W        W20398   6.200  13.006   4.675 -0.1659 -0.0517 -0.2152
 3552W        W20399  13.244   8.355  10.539 -0.0478 -0.0874 -0.0319
 3553W        W20400   4.079  16.333   2.637 -0.4122  0.0406 -0.2006
 3554W        W20401  15.703  15.134   2.338  0.1498 -0.2338  0.1353
 3555W        W20402  18.321  13.843  13.080 -0.1846 -0.2277  0.2066
 3556W        W20403  10.150  15.444   0.006  0.2229 -0.1870  0.0553
 3557W        W20404   6.674  18.675   1.781 -0.1040 -0.3431 -0.0394
 3558W        W20405   2.188  17.091  11.900  0.4635 -0.2503 -0.0661
 3559W        W20406  18.200   8.211   2.491 -0.3068 -0.0130  0.0797
 3560W        W20407  17.893   1.234   3.787  0.3957  0.0352 -0.1790
 3561W        W20408   8.645   2.674  15.428  0.1254 -0.1572  0.0623
 3562W        W20409   8.512   0.797   0.608  0.0405  0.1983 -0.2437
 3563W        W20410   5.672  17.067  13.122  0.1230 -0.0553 -0.0507
 3564W        W20411  12.010  14.448   4.296  0.1449 -0.3543  0.1416
 3565W        W20412   9.010  14.443  10.932 -0.2495  0.1454  0.0073
 3566W        W20413  15.245   0.497   0.500 -0.1882  0.0761 -0.1474
 3567W        W20414   0.746   5.299   2.381 -0.1217 -0.1089 -0.0236
 3568W        W20415   6.281  17.076   3.035  0.2499  0.1011  0.2939
 3569W        W20416   4.090  12.493   0.192  0.3411 -0.1299 -0.1502
 3570W        W20417   4.920   4.274  15.288  0.1850  0.2234  0.0364
 3571W        W20418  14.649   6.746  13.758 -0.0481  0.0476  0.1147
 3572W        W20419   0.115  15.339  11.032  0.2938  0.1906 -0.0262
 3573W        W20420   2.062   8.952   1.163  0.1740  0.0073 -0.1066
 3574W        W20421   9.915  15.257   5.266  0.2437 -0.1723 -0.4114
 3575W        W20422   6.597   8.120   0.777  0.1360  0.1662 -0.0456
 3576W        W20423  13.212   1.851  11.293  0.0533  0.3159 -0.1026
 3577W        W20424  18.096   2.220   0.093  0.4548 -0.0013 -0.1289
 3578W        W20425   9.761  17.731   2.211 -0.1324 -0.0115  0.0493
 3579W        W20426  17.578   5.682   4.628 -0.0109  0.0542 -0.0300
 3580W        W20427  15.945  15.308  10.071  0.0994  0.2237  0.1392
 3581W        W20428  18.126   3.100  12.543  0.0136  0.2650 -0.0996
 3582W        W20429  15.861   7.048  10.923  0.0755 -0.0338  0.1420
 3583W        W20430   5.258  11.759  15.558  0.0594 -0.0686  0.2297
 3584W        W20431  13.197   6.465   6.032  0.1231 -0.1155  0.1240
 3585W        W20432  14.081  17.659  15.413 -0.1611  0.0642 -0.1080
 3586W        W20433  12.325   7.276   1.406  0.0728  0.0067 -0.1174
 3587W        W20434  14.561  18.370   4.360  0.0206  0.0554 -0.0030
 3588W        W20435   0.360   9.485  13.320  0.0765 -0.0263  0.0004
 3589W        W20436   9.500  17.249  13.335 -0.1464  0.3172  0.0610
 3590W        W20437  14.451   7.494   0.662 -0.1502  0.0711 -0.1684
 3591W        W20438   1.836  17.648   2.417 -0.0292 -0.1652 -0.1582
 3592W        W20439  16.274   7.735  12.646  0.0479  0.1040  0.0463
 3593W        W20440  18.814   2.827  11.605 -0.2770  0.1421  0.0447
 3594W        W20441  16.893   0.915  14.592  0.0087 -0.1459 -0.1994
 3595W        W20442   9.771  13.611  11.735  0.0162  0.0351 -0.1707
 3596W        W20443  17.582   2.364  11.406 -0.0827 -0.0210  0.0728
 3597W        W20444   3.458  14.429   4.927  0.2064 -0.1738 -0.2940
 3598W        W20445   3.109  16.276   1.482 -0.1498  0.3721 -0.1577
 3599W        W20446  11.648   2.749   3.332 -0.3050  0.1559 -0.1084
 3600W        W20447  10.233   6.439  11.818  0.0901  0.0112 -0.1088
 3601W        W20448   1.924  17.134  10.174  0.0784  0.0591  0.0783
 3602W        W20449  14.677   7.998  14.868  0.1034  0.2170 -0.2605
 3603W        W20450   7.873   8.175   3.097  0.3672 -0.0440 -0.0088
 3604W        W20451   2.995   3.851   2.258  0.1915  0.1597  0.1435
 3605W        W20452  15.796  13.166   3.025  0.1961  0.0442  0.1809
 3606W        W20453   4.243  12.907   0.001 -0.2664  0.3259  0.2101
 3607W        W20454  11.008   2.636   4.189 -0.0360 -0.2911 -0.2639
 3608W        W20455   0.585   9.938   2.864 -0.3041  0.1869  0.0405
 3609W        W20456   9.769   2.105   3.751 -0.4036  0.4898  0.0509
 3610W        W20457  15.098  15.176  11.125 -0.1726 -0.1089 -0.4276
 3611W        W20458  11.436  18.581   0.689 -0.1872  0.2400  0.0983
 3612W        W20459   2.006   5.827   2.702  0.0783  0.1100 -0.2325
 3613W        W20460   0.656   7.371   0.722  0.2723 -0.0706 -0.0745
 3614W        W20461   1.197   7.347  11.341  0.1535  0.0383 -0.0636
 3615W        W20462  15.176   2.820   1.309  0.0754  0.1911 -0.3312
 3616W        W20463   0.318  10.341  12.936 -0.0059 -0.2544 -0.0697
 3617W        W20464   7.138   4.639   0.362  0.1473 -0.0361  0.0193
 3618W        W20465  11.177   6.220   1.091 -0.0749  0.2570 -0.2759
 3619W        W20466  15.105   7.936  10.736  0.1702 -0.0409 -0.0124
 3620W        W20467   8.758   8.900   4.292  0.1313  0.3657  0.0431
 3621W        W20468  10.287   5.164  14.971  0.0315  0.2952  0.1963
 3622W        W20469  15.187  16.088   1.847 -0.2550  0.0259 -0.0045
 3623W        W20470   3.611   3.638  13.328  0.0536  0.0551 -0.1194
 3624W        W20471   3.779  13.359   4.851  0.1776 -0.0086 -0.0086
 3625W        W20472  16.101   0.789   0.332 -0.0805 -0.2911 -0.2460
 3626W        W20473  11.022   7.552  12.933  0.1419 -0.0755  0.0875
 3627W        W20474   5.888  15.282   0.868  0.1819  0.0179 -0.1213
 3628W        W20475   5.280  14.651   4.816 -0.2393  0.4101 -0.1638
 3629W        W20476   3.440   0.433   2.697  0.3406 -0.2024  0.0049
 3630W        W20477  18.674  17.815  10.773  0.0345 -0.0894 -0.1028
 3631W        W20478   1.190   5.063  12.487 -0.3450 -0.1357 -0.1882
 3632W        W20479   5.171   9.892   1.916 -0.2039 -0.0875  0.0868
 3633W        W20480   8.259  12.160  12.637 -0.2199  0.1545 -0.0593
 3634W        W20481   6.291  13.388  11.568 -0.1648  0.1419 -0.1615
 3635W        W20482  11.117  18.601   2.048 -0.0313 -0.4840 -0.1481
 3636W        W20483  17.324   3.222   4.204  0.0437  0.0633 -0.1937
 3637W        W20484   6.997   0.730   3.523 -0.0281  0.1086  0.0326
 3638W        W20485   8.774   5.642   4.089  0.1423 -0.1348 -0.1260
 3639W        W20486  12.519   7.193  12.508 -0.2444  0.0006  0.1131
 3640W        W20487  15.439   2.267  14.514  0.1365 -0.1037  0.2126
 3641W        W20488   8.301   2.232  13.281  0.1310 -0.0946  0.4332
 3642W        W20489  11.257   0.435   1.331  0.0776  0.1414 -0.0903
 3643W        W20490  12.073   4.250  12.837  0.3081  0.3014 -0.4596
 3644W        W20491   1.147  16.082   0.897 -0.0395 -0.2164 -0.0137
 3645W        W20492   5.202  17.109  12.857  0.0274 -0.3112  0.1594
 3646W        W20493   4.085  11.097   0.053 -0.1297  0.0269  0.1208
 3647W        W20494   0.649   1.669  12.957 -0.0434  0.1230 -0.0164
 3648W        W20495   3.960   9.014   1.660  0.2161 -0.1958 -0.0612
 3649W        W20496  15.437   2.245   0.576 -0.1256 -0.1272 -0.1247
 3650W        W20497   4.437  12.755   1.033  0.2417 -0.1270  0.2394
 3651W        W20498   8.509  15.245   2.653  0.2376 -0.0349 -0.2546
 3652W        W20499   5.794   9.103   1.008  0.1554  0.2707 -0.2043
 3653W        W20500  11.640   2.081  15.006 -0.1440  0.2797  0.0705
 3654W        W20501   4.000   8.250   0.713 -0.1776 -0.0708  0.1129
 3655W        W20502  12.317  12.249   2.263  0.0972  0.1200 -0.1318
 3656W        W20503   0.849  16.595  11.721  0.0710  0.0936 -0.1838
 3657W        W20504  12.075  17.615   0.074  0.0093  0.0920  0.1344
 3658W        W20505   3.318   8.960  10.846 -0.1493  0.1141  0.1349
 3659W        W20506  17.407   9.037  14.551 -0.2634  0.0274 -0.0983
 3660W        W20507   9.747  11.905   4.438 -0.2660 -0.0375 -0.1383
 3661W        W20508  14.414   6.800  13.163  0.1413  0.2588  0.1254
 3662W        W20509   5.586   8.771   4.520  0.3644  0.0824  0.0464
 3663W        W20510  12.783   1.166   1.350  0.4331  0.1511 -0.0906
 3664W        W20511  12.870   4.626   5.843 -0.1630  0.1360 -0.1381
 3665W        W20512  11.666   0.301   1.580  0.1473  0.1226  0.0395
 3666W        W20513   3.988   2.828   0.229 -0.1499 -0.0938  0.2215
 3667W        W20514   1.325  14.826   3.926 -0.0607  0.0236  0.3436
 3668W        W20515   6.364   8.337  12.318  0.3883  0.0130  0.0056
 3669W        W20516   8.901  10.544  14.829  0.2820  0.2565 -0.1703
 3670W        W20517   4.227  13.556  10.953  0.1252 -0.0201 -0.1793
 3671W        W20518   8.059   2.824   3.803 -0.4144 -0.0922 -0.2980
 3672W        W20519   1.845   1.853  11.637 -0.2631  0.2563  0.0305
 3673W        W20520  18.818   8.419   5.451 -0.2384 -0.1629 -0.3317
 3674W        W20521  14.843   7.175   5.352  0.1177  0.1193 -0.0793
 3675W        W20522   0.130  17.148  11.464  0.1731  0.0552  0.1777
 3676W        W20523  17.503   7.484  11.617  0.4121 -0.3613  0.1665
 3677W        W20524   5.465  12.410  14.263 -0.0359 -0.1010  0.2542
 3678W        W20525   8.026   5.600  12.115 -0.3512 -0.1265 -0.1089
 3679W        W20526   2.740  11.402  12.030 -0.0442  0.1307 -0.2491
 3680W        W20527   1.173   8.277  11.708 -0.0585 -0.0520 -0.0002
 3681W        W20528  13.567  17.325   0.133 -0.1750 -0.3739  0.3357
 3682W        W20529   9.619  16.136   4.844 -0.0379  0.0201 -0.3277
 3683W        W20530   7.278  16.133  12.247 -0.0546 -0.2562 -0.0120
 3684W        W20531   7.946  14.673   1.008 -0.0095  0.1482  0.2383
 3685W        W20532   7.196   2.696  12.762 -0.2406  0.1712 -0.4364
 3686W        W20533  16.526   7.806  14.810  0.1246  0.1547 -0.0957
 3687W        W20534  14.125   7.118   1.622  0.1264  0.1602 -0.3428
 3688W        W20535  17.543  10.251   4.079  0.3281 -0.0380  0.0158
 3689W        W20536  14.398   3.494   2.286 -0.1218  0.3105 -0.1729
 3690W        W20537  16.709  10.348  14.123 -0.1020  0.0714  0.1306
 3691W        W20538   9.605  14.440   4.808 -0.1239 -0.1565  0.1477
 3692W        W20539  11.032  15.899   3.128  0.0217 -0.1001  0.0686
 3693W        W20540   7.910   1.769  11.108  0.3288  0.0140  0.0748
 3694W        W20541  17.225  18.127  11.867  0.2030 -0.2151 -0.0591
 3695W        W20542   7.593  18.720  12.390 -0.1156  0.3882 -0.1574
 3696W        W20543   3.173  17.208  12.777 -0.0092 -0.0635 -0.2350
 3697W        W20544   9.972   8.185   0.764  0.2077  0.0595 -0.1370
 3698W        W20545   6.269   2.670   4.874  0.3191 -0.1338  0.4638
 3699W        W20546  14.265  12.780   2.145 -0.1754  0.3336  0.2613
 3700W        W20547  18.257   0.740  11.532  0.0991  0.4481  0.0536
 3701W        W20548   3.910   9.359   2.612 -0.0341 -0.1608 -0.1024
 3702W        W20549  17.524  10.268   5.893 -0.0346  0.3086  0.0251
 3703W        W20550   9.243  14.697   5.312 -0.0162 -0.0334 -0.0735
 3704W        W20551   4.145  16.016  13.219  0.3040  0.1456 -0.2713
 3705W        W20552  17.978  12.820   0.995 -0.0454 -0.1828 -0.1047
 3706W        W20553   5.304   2.553   2.902 -0.0645  0.2224 -0.1130
 3707W        W20554   0.011   6.160  10.695 -0.1260 -0.2163  0.0229
 3708W        W20555  16.366  11.423   1.404  0.1335  0.4120 -0.1252
 3709W        W20556   0.046   1.282  14.616  0.0024  0.5708 -0.2945
 3710W        W20557   6.480  12.547  12.062 -0.1084 -0.1118  0.1364
 3711W        W20558   5.839  11.082   2.630  0.4160  0.0003  0.0533
 3712W        W20559   6.785  14.667   2.472  0.4190 -0.1293  0.0941
 3713W        W20560   1.812  13.118   0.966 -0.1033  0.1116 -0.2148
 3714W        W20561   9.308   0.516   1.003  0.1009 -0.1485  0.0396
 3715W        W20562   3.251   8.259   3.083 -0.1371 -0.1448  0.1236
 3716W        W20563   6.974   3.933  14.129 -0.2562 -0.3141  0.0557
 3717W        W20564   0.657  17.871  11.512 -0.0319  0.2310 -0.0443
 3718W        W20565   7.305  10.269  12.743  0.1714  0.1045 -0.1982
 3719W        W20566  14.802   8.689   4.338  0.1328  0.0544 -0.3092
 3720W        W20567  17.048  17.157   1.071  0.0829  0.0232  0.0145
 3721W        W20568  13.073   9.134  11.440  0.2060 -0.0690 -0.2363
 3722W        W20569  13.168  18.349   1.458  0.2339  0.0353 -0.0552
 3723W        W20570   8.049   2.844   2.202  0.0879  0.2674  0.0311
 3724W        W20571  14.522   5.590  12.309 -0.1276 -0.1266 -0.1991
 3725W        W20572   1.877   5.494   0.622  0.0137  0.0064 -0.2223
 3726W        W20573  14.178   0.589   2.519  0.1894 -0.1592  0.0775
 3727W        W20574   8.281   3.267  10.364  0.1164  0.1183 -0.1884
 3728W        W20575  15.211   1.620  12.097  0.1653  0.0727  0.0610
 3729W        W20576   7.393  15.618   2.816  0.2417 -0.0670  0.1514
 3730W        W20577  12.362   6.978  10.892  0.1817  0.2130 -0.0721
 3731W        W20578  11.667  11.347  11.843 -0.0254 -0.0111  0.0140
 3732W        W20579   3.870   0.095  11.318 -0.1942 -0.0529 -0.0064
 3733W        W20580   0.929   5.447  13.704 -0.2332 -0.2317 -0.3346
 3734W        W20581   1.251   1.800   4.755  0.1207 -0.0440  0.0559
 3735W        W20582  10.116   4.312   1.988  0.2020  0.0178  0.0465
 3736W        W20583  11.172  16.827  12.795  0.1017  0.0269 -0.1832
 3737W        W20584   5.298  10.045  13.648 -0.2391  0.4242  0.3172
 3738W        W20585  15.956   8.660   4.958 -0.1998 -0.0585 -0.3646
 3739W        W20586   2.661  10.967  12.244 -0.2729  0.0311 -0.0982
 3740W        W20587   3.725  10.387  12.644  0.2823 -0.2112  0.0400
 3741W        W20588   5.626   5.606  13.372  0.4323  0.0692 -0.1036
 3742W        W20589  18.140   7.489  11.733 -0.3084  0.1648  0.0204
 3743W        W20590  14.954   5.960   5.476 -0.0437 -0.3539 -0.0015
 3744W        W20591  16.302  11.860  13.643  0.1415  0.0661 -0.1313
 3745W        W20592  18.108   7.389  12.256 -0.0179  0.1805 -0.0632
 3746W        W20593  10.530  16.339   3.972 -0.1606 -0.1540 -0.1170
 3747W        W20594  11.716   8.843   1.877  0.1651 -0.2548 -0.0462
 3748W        W20595  17.762  13.620   0.525 -0.0534 -0.2296  0.1194
 3749W        W20596  14.773  14.260   4.052  0.0049 -0.0083 -0.1945
 3750W        W20597  12.965  12.431   1.950  0.0719  0.0752  0.1191
 3751W        W20598   9.301   1.722   0.475  0.2457  0.0809  0.1381
 3752W        W20599   7.209   7.118   3.350  0.1399  0.2418  0.1936
 3753W        W20600   7.350   7.988   4.462  0.2239  0.0150 -0.0655
 3754W        W20601  10.125   4.674  15.358  0.2155  0.1733 -0.2357
 3755W        W20602  13.777   3.405   1.595 -0.1033 -0.0766  0.2539
 3756W        W20603  14.336   9.884   0.894 -0.1464 -0.2411 -0.0051
 3757W        W20604  18.696   7.128  15.299 -0.0354 -0.1221 -0.0802
 3758W        W20605  15.760   7.103   4.426 -0.2297 -0.0480  0.0482
 3759W        W20606  17.991  11.676   2.215 -0.0837 -0.1259 -0.1866
 3760W        W20607  11.498  17.147  13.110 -0.1323 -0.1675  0.1826
 3761W        W20608  14.275  13.734  11.334 -0.2640  0.3219 -0.0676
 3762W        W20609   6.067  18.415   2.392 -0.0077  0.0317  0.0455
 3763W        W20610  15.581   4.156   2.376  0.1303  0.3187 -0.0426
 3764W        W20611   1.619  10.307  13.147 -0.1178 -0.4696  0.2207
 3765W        W20612   5.665   6.317  10.800  0.1698 -0.1289  0.0473
 3766W        W20613   7.820   8.290   2.164  0.1283 -0.0159 -0.1006
 3767W        W20614  17.977   9.722   3.929  0.0316 -0.0952 -0.1047
 3768W        W20615  12.053   6.495  13.465 -0.2321 -0.3052 -0.0239
 3769W        W20616   9.283  18.302  15.374 -0.2053 -0.2240  0.2777
 3770W        W20617   5.234  13.701  14.132  0.0149  0.0904 -0.3513
 3771W        W20618   6.702  16.710   4.635  0.2134 -0.1522 -0.0650
 3772W        W20619   4.725   1.563  10.074  0.2443  0.3743 -0.2315
 3773W        W20620   9.665  14.899   2.848 -0.0069 -0.0654 -0.0217
 3774W        W20621  13.291   1.734   2.412 -0.0240 -0.5757  0.2857
 3775W        W20622   3.761  14.405  11.016  0.1799  0.2308  0.1168
 3776W        W20623   2.969   7.823  11.707 -0.3366  0.1044 -0.0027
 3777W        W20624   1.645  16.303  14.079 -0.0291  0.2128 -0.0232
 3778W        W20625   9.676  12.669  12.643 -0.0205  0.0812  0.2633
 3779W        W20626  16.287  15.871  15.520  0.1541 -0.1616  0.2551
 3780W        W20627  10.750  18.136  14.170  0.2166  0.1848  0.2096
 3781W        W20628  18.358   9.208  15.236  0.1219 -0.1941 -0.0671
 3782W        W20629   2.257  16.826   1.133 -0.0217 -0.0684 -0.1552
 3783W        W20630   2.827   3.712  12.862  0.2882  0.1853  0.0607
 3784W        W20631  12.260  13.474   1.799  0.5340  0.0078 -0.3172
 3785W        W20632   3.123   4.982  11.149  0.1684 -0.3068 -0.2810
 3786W        W20633   0.055  14.268   9.961  0.1213 -0.0567 -0.2859
 3787W        W20634   9.794   6.346   0.505  0.3355 -0.2027 -0.0305
 3788W        W20635  18.134   3.301  11.572  0.0206 -0.2139 -0.1743
 3789W        W20636  18.127   0.242   0.131 -0.1375 -0.2132 -0.2869
 3790W        W20637  16.495   8.516  11.643  0.0096  0.0017  0.0584
 3791W        W20638   0.419  18.096   3.316  0.0772 -0.1865  0.1167
 3792W        W20639   8.347   1.065   3.543  0.3873  0.3264  0.2019
 3793W        W20640  14.619   1.949   2.880 -0.0261 -0.1090 -0.3699
 3794W        W20641   1.477   1.692  15.266  0.1130  0.0731 -0.1893
 3795W        W20642  16.272  16.870  13.623 -0.3867  0.1005  0.2131
 3796W        W20643  13.784  14.316   1.794 -0.0274  0.2084  0.2609
 3797W        W20644  17.892  10.928  11.972 -0.0047 -0.0973  0.1037
 3798W        W20645  14.620   0.823   1.521 -0.1712 -0.1746  0.0856
 3799W        W20646   4.433  14.565   4.461  0.2628 -0.0573  0.0643
 3800W        W20647  15.255  13.211  12.719 -0.4727  0.1871 -0.0596
 3801W        W20648  12.602   3.234  12.848 -0.3513 -0.1007  0.1724
 3802W        W20649  17.575   4.222  14.335  0.1147 -0.0915  0.0808
 3803W        W20650  14.068   7.360  15.500  0.0289  0.2249 -0.0016
 3804W        W20651  12.318  15.852  14.384 -0.0620 -0.2289  0.4221
 3805W        W20652  17.985   3.437   3.298 -0.0894  0.1141 -0.0228
 3806W        W20653  12.497  14.571   2.775 -0.0697  0.1731  0.0155
 3807W        W20654  15.336  12.070   1.202 -0.0370  0.1452 -0.1122
 3808W        W20655   5.873   9.875  13.774  0.3004 -0.2713  0.0673
 3809W        W20656   0.815  13.948   4.159 -0.0809 -0.1438 -0.0713
 3810W        W20657   7.078  11.484  15.107 -0.2150  0.0553  0.2106
 3811W        W20658   9.453   2.603   1.408 -0.0717 -0.2981  0.0488
 3812W        W20659   7.563   2.393  12.025 -0.0556 -0.1773 -0.0590
 3813W        W20660   4.373   0.358  10.547  0.3858  0.1249  0.2645
 3814W        W20661   2.185   6.093   6.208 -0.2620 -0.0502 -0.3064
 3815W        W20662  12.750   8.169  10.565 -0.3232  0.0831 -0.0502
 3816W        W20663   5.330  11.009   2.963 -0.2663  0.5315 -0.0325
 3817W        W20664   4.490   5.783   3.279 -0.1667 -0.1433 -0.2181
 3818W        W20665   5.709   2.984   2.201  0.0690  0.2875 -0.1321
 3819W        W20666   3.382   7.029   4.202 -0.1006 -0.0666 -0.2626
 3820W        W20667  17.667   1.614   2.159 -0.1910 -0.0427  0.2199
 3821W        W20668  18.070   7.096  13.906 -0.1309 -0.3821  0.0124
 3822W        W20669   1.794   4.165   0.336  0.1325  0.0674  0.3889
 3823W        W20670  18.066   6.009   5.480 -0.2278  0.0159 -0.1722
 3824W        W20671  16.284  18.557   0.340  0.0279  0.0067  0.1089
 3825W        W20672  13.323  16.710   2.684  0.4468  0.1036 -0.1639
 3826W        W20673  10.411   4.060  14.343  0.1637 -0.0780 -0.2296
 3827W        W20674   0.454   4.884   3.089  0.1410 -0.0138  0.1136
 3828W        W20675  11.593   8.940  14.500  0.1384 -0.0590 -0.0655
 3829W        W20676  14.943  12.021  15.482 -0.1580  0.0390  0.2223
 3830W        W20677  14.510   5.524   3.340 -0.3245 -0.2838 -0.1669
 3831W        W20678  18.102   4.990  14.512  0.0227 -0.0204 -0.4832
 3832W        W20679   7.887  10.925  12.385  0.2222  0.0858 -0.1265
 3833W        W20680  16.406  11.395  13.379  0.2268 -0.1733  0.0075
 3834W        W20681   8.681   1.349   2.614  0.1242 -0.0942 -0.0390
 3835W        W20682   3.072  13.156   2.731  0.2174  0.0046 -0.1787
 3836W        W20683  10.382  11.663   0.187 -0.0532  0.1393  0.0037
 3837W        W20684  16.037   6.571  11.311 -0.2849  0.0296 -0.1630
 3838W        W20685   7.615  12.469  12.671  0.0360 -0.0040  0.0755
 3839W        W20686   2.467   8.782   0.881 -0.2036  0.1648 -0.2846
 3840W        W20687  12.609  11.875  13.836  0.0241  0.3181 -0.2209
 3841W        W20688  18.328   2.937   0.870  0.0347  0.1031  0.0146
 3842W        W20689   1.883   0.577  13.489 -0.0924 -0.3461  0.0138
 3843W        W20690   7.903  13.798   3.993  0.2103  0.1169 -0.1023
 3844W        W20691   9.223  17.238  12.469 -0.1840 -0.1530  0.5840
 3845W        W20692   1.930  17.149   4.759 -0.2492  0.2869  0.0099
 3846W        W20693   3.763  16.829  12.086 -0.0221 -0.0907 -0.1429
 3847W        W20694  16.757   4.022   5.233  0.1912  0.0593  0.1946
 3848W        W20695   2.717   9.596  14.305  0.2141  0.2161 -0.2462
 3849W        W20696  18.520   6.421   0.743 -0.1192 -0.0502  0.0795
 3850W        W20697  17.469   8.895   1.001  0.0277  0.0448 -0.0368
 3851W        W20698   0.932  17.523  13.057  0.0914  0.1495 -0.1449
 3852W        W20699  12.383   1.107   1.645 -0.2381 -0.1561  0.0749
 3853W        W20700   8.627  10.277  13.297 -0.1251 -0.1233 -0.3898
 3854W        W20701   4.324  17.763  11.663  0.0573  0.0293 -0.0926
 3855W        W20702  10.086  12.575  10.969 -0.0780  0.1659 -0.1496
 3856W        W20703   5.737   0.217  12.630 -0.1166  0.0891 -0.0082
 3857W        W20704   5.974  17.099   2.197  0.0688  0.0464  0.1959
 3858W        W20705  12.390   4.468   0.144  0.1342  0.0068 -0.0088
 3859W        W20706   0.278   1.632  13.389 -0.2099 -0.3793  0.0702
 3860W        W20707   7.674  16.618  15.468  0.1704  0.3260  0.5823
 3861W        W20708   0.186  12.222   1.385  0.2903  0.0532  0.0551
 3862W        W20709   7.304  17.284   4.174 -0.0990  0.0886  0.3465
 3863W        W20710   3.573   1.020   0.464 -0.2279  0.2326 -0.3746
 3864W        W20711   7.212   7.992   1.442 -0.1221 -0.1294  0.4791
 3865W        W20712  12.307  14.094   4.014 -0.1342 -0.2966 -0.2872
 3866W        W20713  18.459   6.606  11.308  0.1330  0.2792  0.0264
 3867W        W20714  10.193   4.588   0.332 -0.4120 -0.3325  0.1061
 3868W        W20715   1.975   0.045  12.150  0.3380  0.3542 -0.0310
 3869W        W20716   8.431   8.089   0.830 -0.1600 -0.1246 -0.0817
 3870W        W20717   7.401   1.836  11.133 -0.6268 -0.3372  0.0449
 3871W        W20718  12.143   8.319  12.930  0.2364  0.2276 -0.1328
 3872W        W20719  17.962   9.880  12.736  0.1068 -0.4308 -0.2158
 3873W        W20720  10.932   8.433   0.943 -0.5153 -0.1574 -0.1252
 3874W        W20721   3.828  18.696   1.877 -0.2571  0.0767 -0.0369
 3875W        W20722   0.443   0.652  15.501  0.0061 -0.3750  0.1997
 3876W        W20723  17.295  15.886  10.796  0.4377  0.1365  0.1094
 3877W        W20724  12.887  16.278   1.092 -0.0327 -0.1072  0.1035
 3878W        W20725   5.350  17.739   4.423 -0.3274 -0.1859  0.0166
 3879W        W20726  15.894   1.174   4.736 -0.0041 -0.0052 -0.1085
 3880W        W20727   9.386   5.768   4.043 -0.0165 -0.1824  0.3421
 3881W        W20728   3.941  14.431   0.949  0.0409 -0.1521 -0.1760
 3882W        W20729  10.346   7.116   5.225 -0.2304 -0.1097 -0.2285
 3883W        W20730  14.925   4.304   0.595  0.0696 -0.1459 -0.0713
 3884W        W20731   3.877  11.265   1.202 -0.1619  0.0302 -0.0284
 3885W        W20732  11.901   0.171  13.822 -0.2658 -0.2305 -0.0940
 3886W        W20733   6.253   9.056   3.900  0.2302 -0.0171 -0.0732
 3887W        W20734  11.238  16.430   3.068  0.0007  0.3116  0.2044
 3888W        W20735  16.571  16.998   1.558 -0.1681  0.0779  0.0305
 3889W        W20736  14.640  15.612   4.384 -0.0905 -0.1888  0.1110
 3890W        W20737   2.874  11.389   2.413  0.1160 -0.3334 -0.1631
 3891W        W20738  12.192   9.052   4.881 -0.1287 -0.1671  0.1577
 3892W        W20739   2.204   5.992   3.138  0.1889  0.1050  0.1373
 3893W        W20740  18.220   7.240  15.436  0.0971  0.0069  0.1847
 3894W        W20741   3.481   6.804   1.799 -0.3582  0.2645  0.0523
 3895W        W20742   9.899   2.376  15.344 -0.1424 -0.0725 -0.0483
 3896W        W20743  10.924  17.879   0.143 -0.1929 -0.2884 -0.2960
 3897W        W20744   4.113   6.102  11.494 -0.1283  0.2956  0.0501
 3898W        W20745   5.865  18.558  11.069 -0.2359 -0.0849 -0.2479
 3899W        W20746   1.357   1.704  13.255 -0.0592  0.1765  0.0785
 3900W        W20747   7.365  11.968   1.924  0.0384  0.1765  0.0765
 3901W        W20748   4.793  15.310   1.550 -0.0290  0.1768 -0.1188
 3902W        W20749   1.852   3.778  13.214  0.1074  0.3823 -0.0391
 3903W        W20750  17.881   5.333  13.435 -0.0505 -0.2232  0.0785
 3904W        W20751  13.390  10.024  11.901  0.2019  0.0894  0.1145
 3905W        W20752   3.503   5.277   4.827  0.0599 -0.1988  0.1106
 3906W        W20753   6.300  17.482  12.421  0.2980 -0.0716 -0.0884
 3907W        W20754   2.945   7.936   0.862  0.1762 -0.0622 -0.0971
 3908W        W20755  15.885  15.491  10.808 -0.0529  0.0981  0.0008
 3909W        W20756   9.605   7.528  13.549 -0.1254  0.0109  0.1909
 3910W        W20757  12.537   3.910  10.646 -0.3878 -0.0167  0.2037
 3911W        W20758   3.425  18.247   2.773  0.1141  0.2197  0.0040
 3912W        W20759   9.131  12.758   2.654  0.1036  0.0185  0.2622
 3913W        W20760   7.076  18.746   0.621 -0.0381  0.2626  0.1393
 3914W        W20761   8.324  12.607  13.625 -0.0040 -0.3319 -0.0525
 3915W        W20762   7.017   6.282   2.984  0.2309  0.2358  0.1918
 3916W        W20763  17.308  12.231  11.644 -0.0856 -0.0092 -0.3012
 3917W        W20764  12.456   1.656   3.784  0.0522 -0.0973 -0.0282
 3918W        W20765   8.320   0.592   3.159  0.3509  0.5569  0.1203
 3919W        W20766  16.555   5.468   1.585 -0.0502 -0.0236  0.2130
 3920W        W20767  10.679   7.179   2.300 -0.3312  0.0834  0.0568
 3921W        W20768   6.914   9.973  15.543  0.2213 -0.0482  0.1550
 3922W        W20769  13.213   4.785   0.627 -0.1504  0.4339 -0.0683
 3923W        W20770  16.757   1.658  13.042 -0.3143 -0.3059 -0.0710
 3924W        W20771   4.023  10.865  13.309  0.0444  0.1317  0.0661
 3925W        W20772  16.419   3.573  15.239 -0.0049  0.1248  0.0348
 3926W        W20773   4.641   5.831   4.246  0.6907  0.0373 -0.0267
 3927W        W20774  10.252  13.596   4.121 -0.4015 -0.2715  0.0297
 3928W        W20775   2.623   3.438  12.519 -0.1802  0.2044 -0.0919
 3929W        W20776   1.899  12.280  13.384 -0.0586 -0.1760  0.0275
 3930W        W20777   3.982   9.339   4.977 -0.1774 -0.0368 -0.0842
 3931W        W20778   1.186   5.962   0.634 -0.1766 -0.1559 -0.2735
 3932W        W20779  15.961  16.467  11.662 -0.1038  0.1727 -0.3953
 3933W        W20780  12.385   2.614   2.149  0.1087 -0.3522 -0.2385
 3934W        W20781  12.949  13.764   0.956 -0.0248 -0.1066 -0.0866
 3935W        W20782  16.303  14.088   5.195  0.0945 -0.0875  0.0709
 3936W        W20783   8.566   1.102  11.448  0.0896  0.1516  0.1256
 3937W        W20784   8.809  14.254   0.174 -0.1223  0.0644  0.0337
 3938W        W20785  16.139  11.481   3.126  0.1674 -0.4895 -0.3247
 3939W        W20786  10.791   4.427  13.364 -0.1736  0.3326 -0.1264
 3940W        W20787   4.727   6.670  14.213 -0.0283  0.1243  0.1053
 3941W        W20788  10.910   0.250  14.420  0.0679  0.0751 -0.1914
 3942W        W20789   4.829   7.109   1.828  0.0645  0.2187 -0.2962
 3943W        W20790  13.628  12.158   2.321  0.2222  0.2379  0.0461
 3944W        W20791  11.147   1.310  11.182 -0.2373  0.2002 -0.0304
 3945W        W20792  14.476  14.324   3.103  0.1012 -0.1965 -0.0549
 3946W        W20793   8.587   7.610  15.080 -0.1454 -0.0234 -0.0344
 3947W        W20794   8.296  16.104  12.113  0.0487  0.0672  0.2740
 3948W        W20795   7.561   3.051   4.983 -0.0158  0.1201  0.1419
 3949W        W20796  13.641  14.799  12.653 -0.0778  0.1837  0.0375
 3950W        W20797  15.159   7.397  10.755  0.1190  0.0484 -0.0506
 3951W        W20798  10.959  12.544   4.874  0.2559 -0.0995 -0.2964
 3952W        W20799  12.163  12.625   0.965 -0.0631  0.0585 -0.1781
 3953W        W20800  13.847   2.001  12.468  0.2371  0.1650 -0.2219
 3954W        W20801  11.802  14.968   0.745  0.0180 -0.1867  0.0029
 3955W        W20802  13.179  12.944  11.287  0.1653  0.1130 -0.1568
 3956W        W20803   6.973  15.327  13.316 -0.1164 -0.2127 -0.0338
 3957W        W20804   7.758  16.213  13.976 -0.3355  0.2215 -0.0522
 3958W        W20805  12.650   5.604  14.469  0.3613 -0.3206 -0.1368
 3959W        W20806   0.789  12.450   2.423 -0.1185  0.3902 -0.0608
 3960W        W20807   1.755   6.985   2.442  0.0012  0.1385 -0.0563
 3961W        W20808  18.145   3.073  14.048  0.3456  0.2486 -0.0404
 3962W        W20809  11.824  14.140  11.908  0.2989  0.3716  0.0795
 3963W        W20810  18.626   7.735   1.065  0.2469 -0.3830 -0.0304
 3964W        W20811   5.827  10.418   1.588  0.2380 -0.0930  0.0413
 3965W        W20812   8.628   0.069  14.408 -0.1859  0.1210  0.1323
 3966W        W20813   1.492  17.108   1.563  0.2937 -0.0557  0.1391
 3967W        W20814   9.325  12.389  15.549  0.0504  0.0525 -0.3142
 3968W        W20815  14.504   5.402   2.368  0.2495  0.1087 -0.1961
 3969W        W20816  14.535  11.939   3.122 -0.0475  0.1866 -0.1502
 3970W        W20817   2.054  14.925  12.567  0.1474  0.0701 -0.3041
 3971W        W20818   8.133  17.157  13.900  0.0824  0.0691 -0.0683
 3972W        W20819  15.909   1.204   0.087 -0.3219  0.0062  0.0688
 3973W        W20820   9.120  17.596   0.347 -0.0027  0.2211 -0.2380
 3974W        W20821  10.908  10.536   0.285 -0.3079  0.0852 -0.1739
 3975W        W20822  10.253   0.416   1.110 -0.0331  0.0470  0.0941
 3976W        W20823  12.226  15.140   5.324  0.0137  0.2210  0.1447
 3977W        W20824   7.585   0.039   4.117 -0.2544  0.1023 -0.0257
 3978W        W20825   1.523   8.226  13.039 -0.3352  0.3562 -0.1425
 3979W        W20826   1.705   2.890   0.695 -0.0203  0.2698 -0.2562
 3980W        W20827  11.157   5.273  10.446  0.3994 -0.0686  0.2414
 3981W        W20828   8.636  18.598  13.996  0.0153 -0.3087 -0.1828
 3982W        W20829   0.591   3.027   1.712 -0.0399  0.0170 -0.2631
 3983W        W20830   8.566  12.430   5.480  0.0616  0.2867 -0.2849
 3984W        W20831  11.395   3.618  14.222 -0.2850 -0.1509 -0.0509
 3985W        W20832   3.033  17.659  12.776  0.0090 -0.1141  0.0955
 3986W        W20833  15.084   4.855  14.819 -0.1103  0.0671  0.1636
 3987W        W20834   5.317  12.245   0.041  0.1066 -0.1828  0.0094
 3988W        W20835  16.724  16.753   4.337 -0.0928 -0.1695  0.2547
 3989W        W20836   2.885  12.621  13.412  0.3937  0.0976  0.2348
 3990W        W20837   9.302   2.702   4.026  0.3592 -0.0166 -0.0730
 3991W        W20838  12.302   2.407   1.624  0.0617 -0.1707  0.1044
 3992W        W20839   3.623  12.551  13.562  0.5126  0.3398 -0.0825
 3993W        W20840  17.444  17.389   1.419 -0.0658  0.3114 -0.0271
 3994W        W20841  13.249   8.267   9.549 -0.1921 -0.2059  0.1388
 3995W        W20842   9.858  16.361   1.714  0.2482  0.0096 -0.1646
 3996W        W20843  13.815   4.703  14.544  0.2002 -0.1666 -0.1002
 3997W        W20844   0.473   5.954  13.013 -0.1242  0.0835 -0.1172
 3998W        W20845  15.770   7.817  12.642 -0.2847  0.0150  0.0292
 3999W        W20846  12.106   0.079   0.435  0.5570  0.0526 -0.2392
 4000W        W20847   9.419   4.834  14.454 -0.1740  0.0088 -0.0259
 4001W        W20848  14.231  17.115  11.596 -0.0421  0.1972  0.0778
 4002W        W20849  15.040  11.236   1.507  0.1559 -0.0343  0.2918
 4003W        W20850  13.220  18.328   2.442 -0.0298 -0.0609  0.0809
 4004W        W20851  14.396   5.646  14.517 -0.2878 -0.0475 -0.3084
 4005W        W20852   3.290   2.996  12.067 -0.0078  0.0449 -0.3991
 4006W        W20853  14.466   9.771  14.269  0.0281 -0.1527 -0.2120
 4007W        W20854  17.322  14.919  12.440 -0.0844  0.1586 -0.3523
 4008W        W20855   2.559  10.829   2.477  0.0999 -0.1395  0.0260
 4009W        W20856  16.001  13.420   2.034 -0.1992 -0.3356  0.2496
 4010W        W20857  16.177   9.482   2.284 -0.3967  0.0035 -0.0761
 4011W        W20858   9.596  18.050   5.206 -0.1405  0.0810 -0.6669
 4012W        W20859   0.856  10.583  14.650  0.0564 -0.2746 -0.2675
 4013W        W20860  12.791   4.760   1.724  0.2673 -0.0135  0.0940
 4014W        W20861   9.287  12.716   3.527 -0.1483  0.2620 -0.2204
 4015W        W20862  15.464   4.617   1.422 -0.4466  0.1288 -0.2586
 4016W        W20863   3.991  15.555  13.605 -0.3294  0.0134  0.2078
 4017W        W20864  12.774  14.360   3.156 -0.4246 -0.1778  0.0577
 4018W        W20865   7.583   7.425   5.201  0.0244 -0.2112  0.1468
 4019W        W20866  18.610  13.360  13.188 -0.2677 -0.3659 -0.2132
 4020W        W20867   4.332  12.259   0.991  0.0878  0.0238 -0.0372
 4021W        W20868   0.522   3.750   5.090  0.0796 -0.0217  0.0763
 4022W        W20869   9.714   5.335  11.439  0.2160 -0.4515  0.0146
 4023W        W20870  16.771   4.530  14.754 -0.0111 -0.0843  0.3028
 4024W        W20871   6.951   5.797  11.980 -0.1395  0.2017 -0.1955
 4025W        W20872   0.335  12.355   3.789 -0.2833  0.2334  0.1232
 4026W        W20873  10.318   8.134  12.554  0.0450 -0.1437  0.0040
 4027W        W20874  10.731   1.592   3.205 -0.1932 -0.0827 -0.2501
 4028W        W20875   6.380  15.850  13.162 -0.5211 -0.1290  0.1943
 4029W        W20876  13.979  12.061  14.640 -0.2503  0.0652  0.2238
 4030W        W20877  17.274   4.491  14.664 -0.1177  0.0110 -0.0835
 4031W        W20878   5.995   6.268  12.306 -0.0642 -0.1352  0.1350
 4032W        W20879   2.996   1.149   4.529  0.0662 -0.3342 -0.4079
 4033W        W20880   6.750   5.193   5.057 -0.0714  0.0095  0.0983
 4034W        W20881  16.325   9.520   3.406 -0.0545 -0.2724  0.0542
 4035W        W20882   4.611  18.592  15.523  0.1574 -0.1630  0.2681
 4036W        W20883   3.176   5.913  14.754  0.0951  0.2215  0.0695
 4037W        W20884  18.826   2.879  13.043 -0.1763 -0.1912 -0.0425
 4038W        W20885  15.618  14.189  15.529 -0.0734 -0.2432  0.2850
 4039W        W20886  17.192   8.549  11.533  0.0451 -0.1697 -0.0864
 4040W        W20887   8.793  13.744  12.348 -0.3108 -0.0751  0.2350
 4041W        W20888   0.201   9.331  14.316  0.3088  0.0045  0.3424
 4042W        W20889  14.700   3.561  12.983  0.2459  0.0423 -0.0235
 4043W        W20890   2.932  10.257   4.396 -0.2837  0.0331  0.1864
 4044W        W20891  10.420  13.074  11.930  0.0823  0.0479 -0.0489
 4045W        W20892   1.094  17.331   1.378  0.0977 -0.1875 -0.0394
 4046W        W20893  12.025   5.259   2.904  0.2533  0.1555 -0.1977
 4047W        W20894  13.461  10.179  14.166  0.1712 -0.0483 -0.2861
 4048W        W20895   6.732  17.914  13.434  0.1784 -0.2185 -0.1642
 4049W        W20896  11.349  10.562   1.643 -0.1496 -0.0616 -0.2861
 4050W        W20897   0.510  17.995   1.499 -0.2396 -0.1323  0.1523
 4051W        W20898  10.874   2.056  15.009  0.1555  0.2146 -0.2263
 4052W        W20899   8.306  13.574   4.632 -0.1420 -0.0869 -0.3004
 4053W        W20900  10.556   2.169   1.942  0.0298 -0.0138 -0.2153
 4054W        W20901  16.981  16.780  12.897  0.2799 -0.1276  0.4538
 4055W        W20902  16.578  14.134  10.470  0.3445 -0.1213 -0.3127
 4056W        W20903  15.740   9.357  12.998 -0.2155 -0.1518 -0.0489
 4057W        W20904   9.515  13.808  15.552 -0.1179  0.1740 -0.0885
 4058W        W20905   7.228  17.730   0.326  0.0076  0.2351  0.0533
 4059W        W20906  10.770   3.979   2.218 -0.3429 -0.4093  0.0342
 4060W        W20907  12.809   2.034  10.480  0.2167  0.3444 -0.0145
 4061W        W20908   4.691  14.704  15.373  0.0197  0.0563 -0.3836
 4062W        W20909  18.105   1.792   1.038 -0.2263  0.0512 -0.1373
 4063W        W20910   1.584   5.378  12.230 -0.1668  0.0836 -0.1357
 4064W        W20911   0.155   4.322  13.037 -0.2274  0.0089 -0.0691
 4065W        W20912  14.147   5.668   4.611  0.3795 -0.2971 -0.0388
 4066W        W20913   5.322   8.440   1.648 -0.2379  0.2308  0.2529
 4067W        W20914  18.285   4.642   2.695  0.0178  0.2972 -0.2707
 4068W        W20915   5.635   6.902  14.441  0.3640 -0.1621 -0.1451
 4069W        W20916  18.520  12.128  12.167  0.1680 -0.1706  0.2766
 4070W        W20917   0.772  14.233  12.107 -0.2921  0.1882  0.0001
 4071W        W20918   0.723   1.824  13.902 -0.1764  0.1573  0.0978
 4072W        W20919   7.938  15.499   4.719  0.0481  0.2237  0.1628
 4073W        W20920  18.613   2.794   2.194  0.0096  0.0598 -0.0028
 4074W        W20921  13.918  17.957  11.218 -0.0091  0.2658  0.0524
 4075W        W20922   3.032   8.511  14.749  0.3683  0.0667  0.1971
 4076W        W20923   9.816  18.018  14.507  0.0862  0.1980  0.0866
 4077W        W20924  16.229  17.012  15.045  0.1729 -0.3623 -0.0667
 4078W        W20925   6.830   1.398   1.979 -0.0890 -0.0939  0.0113
 4079W        W20926   1.514   1.037   3.554  0.2678  0.3623  0.0849
 4080W        W20927  14.157  11.114  11.971  0.2795 -0.0808 -0.0003
 4081W        W20928   3.689  10.499  15.385 -0.2634  0.1678  0.2926
 4082W        W20929   7.449  18.587  13.301 -0.3980  0.2541 -0.0369
 4083W        W20930  12.388   2.200   2.377  0.0336  0.0014  0.1062
 4084W        W20931   7.514   2.910   2.366 -0.0336  0.0067  0.0384
 4085W        W20932   4.112   3.275   2.770 -0.1116 -0.2767 -0.3426
 4086W        W20933   6.618   1.259   5.719 -0.3265 -0.3686 -0.1479
 4087W        W20934   8.521   4.085   1.474  0.3047 -0.1419  0.1985
 4088W        W20935  11.887   9.094  10.025 -0.0563  0.2022 -0.2965
 4089W        W20936   2.458  17.714   4.133 -0.0714 -0.0033  0.0784
 4090W        W20937  10.063  11.127   4.865 -0.2598  0.1401  0.0202
 4091W        W20938  11.523  10.482   4.136 -0.2647 -0.1928  0.1011
 4092W        W20939   5.064   8.567   4.491  0.0187 -0.0997 -0.4017
 4093W        W20940   6.311  13.009   3.117 -0.1922 -0.0316 -0.0823
 4094W        W20941  17.019   0.763  15.337  0.3966  0.3242 -0.1552
 4095W        W20942   3.831  10.538  13.754 -0.2573  0.1802  0.0581
 4096W        W20943   7.417   2.223   1.686  0.4555  0.0983 -0.1512
 4097W        W20944   2.503  11.057   0.624  0.3556 -0.1483  0.1163
 4098W        W20945  15.498   2.250   3.856  0.2359  0.0884  0.0054
 4099W        W20946   7.927   3.963   1.252 -0.0188 -0.0470 -0.1968
 4100W        W20947  14.668   6.976  14.754 -0.0918  0.1588  0.0753
 4101W        W20948   9.697  11.001  11.274  0.2376  0.0887  0.2692
 4102W        W20949  17.517   6.966   3.531  0.2111  0.0996  0.2922
 4103W        W20950  13.216   3.186  12.939  0.1317  0.1125  0.1648
 4104W        W20951  10.370  14.389  12.673 -0.0154  0.1028  0.0369
 4105W        W20952   5.683   0.812  14.956  0.1830  0.2154  0.3022
 4106W        W20953  14.554   1.352   1.699  0.1427 -0.1470 -0.1321
 4107W        W20954  14.097   8.580  11.800  0.1261 -0.0687 -0.1189
 4108W        W20955   8.392  18.366  12.763 -0.2059  0.0891 -0.2150
 4109W        W20956  11.053  10.696   4.150  0.3242  0.1126 -0.1171
 4110W        W20957   4.879  10.811  14.781  0.0586  0.0227 -0.0808
 4111W        W20958   6.988  13.860   4.781 -0.1282 -0.0293  0.1850
 4112W        W20959   0.711  17.362  13.655 -0.1384  0.1955 -0.1164
 4113W        W20960   2.687   1.809   3.636  0.0205  0.1014  0.0598
 4114W        W20961   7.674   2.948  13.640  0.0649 -0.1433  0.3409
 4115W        W20962   9.445  12.691   5.482  0.0421 -0.5253 -0.2312
 4116W        W20963   8.176   2.883   4.286 -0.2415 -0.0741  0.2616
 4117W        W20964  11.664  12.419  11.678  0.3383 -0.1191 -0.3346
 4118W        W20965   9.693   9.796  12.822  0.0150 -0.1372  0.0251
 4119W        W20966   4.615   3.629  11.579 -0.2491 -0.2131  0.1124
 4120W        W20967  12.756  17.554  14.933  0.1443  0.0560  0.1024
 4121W        W20968   3.532   2.330   0.727  0.1979  0.1670 -0.0057
 4122W        W20969   7.802   6.826   2.410 -0.1687 -0.1105 -0.1912
 4123W        W20970  17.692  17.480  11.578 -0.2258 -0.1158 -0.0370
 4124W        W20971  13.688   6.804   2.851 -0.1785  0.3464  0.1399
 4125W        W20972   3.670   2.919   5.229 -0.0993  0.0163 -0.1839
 4126W        W20973  18.534   9.489   5.452  0.2800  0.0407  0.3419
 4127W        W20974   2.870  13.116  12.396  0.0355  0.1807  0.0712
 4128W        W20975   8.586   9.581  10.257 -0.0518  0.1940 -0.1934
 4129W        W20976   3.683   7.347  14.393 -0.0258 -0.1793 -0.2109
 4130W        W20977   9.998  15.514  12.663  0.2221  0.1689  0.1618
 4131W        W20978  17.705   4.804   1.660 -0.1521  0.0741 -0.0802
 4132W        W20979   3.070   7.528   1.198  0.1896 -0.2467  0.0095
 4133W        W20980   0.399  17.253   0.516  0.1327 -0.1130  0.0264
 4134W        W20981  12.544   3.946   4.803  0.1813 -0.1388  0.1848
 4135W        W20982  11.489  11.341  14.973  0.2205 -0.1545  0.0460
 4136W        W20983   1.735   7.108   0.782  0.2264  0.2490 -0.2336
 4137W        W20984  12.978   0.521   5.435 -0.1022 -0.3045  0.1046
 4138W        W20985   8.002   4.287   0.231  0.2116  0.1665 -0.2735
 4139W        W20986  13.532   3.893   3.842 -0.1453 -0.1263 -0.0905
 4140W        W20987   6.640   6.357   3.332  0.0836 -0.0216  0.3157
 4141W        W20988   9.275   7.114  15.546 -0.0262  0.3903 -0.0356
 4142W        W20989   4.099  15.061   4.384  0.1264 -0.0291  0.2576
 4143W        W20990  12.439   3.830  13.049 -0.1508  0.1362  0.2758
 4144W        W20991  14.269  14.992   4.962 -0.0419 -0.2071 -0.0620
 4145W        W20992   1.327   6.264  13.573 -0.0325 -0.0719 -0.0096
 4146W        W20993   9.651   0.279   3.064  0.0949  0.0797  0.2743
 4147W        W20994  15.583  13.125   1.308 -0.3285  0.0316 -0.3058
 4148W        W20995  14.065   2.568   4.572 -0.1690 -0.0217 -0.2931
 4149W        W20996   6.065   7.355   0.675  0.0226 -0.0361  0.1740
 4150W        W20997  10.237  12.719   3.316 -0.3603  0.3192  0.2097
 4151W        W20998   5.606   8.642  13.646  0.0034 -0.0893  0.0564
 4152W        W20999   5.512   2.234   5.208 -0.1395 -0.4044  0.2186
 4153W        W21000  14.008  16.782   0.946  0.2191  0.1456  0.0974
 4154W        W21001  13.173   3.585   2.511 -0.2075  0.1122 -0.4201
 4155W        W21002  16.477   5.644   3.123  0.0934  0.0550 -0.0539
 4156W        W21003  12.596  13.569   1.381 -0.0022 -0.2569  0.1114
 4157W        W21004   6.711  15.711   5.351  0.0771  0.1281  0.1182
 4158W        W21005  15.298   1.178  11.762  0.0004 -0.0418  0.0440
 4159W        W21006  12.065   8.713  14.562  0.1204 -0.1123 -0.1325
 4160W        W21007   5.986  13.215  14.463  0.3922 -0.1008  0.0339
 4161W        W21008  14.781  15.754   4.881 -0.3123 -0.2008 -0.1556
 4162W        W21009   2.568   2.361   0.288 -0.1071 -0.0182  0.1450
 4163W        W21010  10.077  15.635   2.448  0.1226  0.1084  0.1401
 4164W        W21011  15.800   9.846   3.724  0.0569  0.0744 -0.2777
 4165W        W21012  13.791   7.707  12.576 -0.1288 -0.0139 -0.1288
 4166W        W21013  12.809  13.394   1.811 -0.1588  0.0187  0.1943
 4167W        W21014   3.597  16.810   2.439  0.1238 -0.0369  0.3105
 4168W        W21015   0.936  13.796   0.165  0.0202 -0.0470 -0.1272
 4169W        W21016   0.514   4.112   1.536  0.0318  0.2167  0.2850
 4170W        W21017  10.500  16.548  10.857  0.2644 -0.3018 -0.2026
 4171W        W21018   4.906  17.366  15.419  0.2075 -0.0004 -0.2445
 4172W        W21019  12.937   6.746   1.777 -0.1371  0.2720  0.2463
 4173W        W21020  11.295   7.077   2.322 -0.4184 -0.1534 -0.2899
 4174W        W21021   3.082   4.366   3.173  0.2043  0.0045  0.3926
 4175W        W21022  10.959  13.327   5.386  0.3414  0.0492  0.2140
 4176W        W21023   5.117   0.072   3.789 -0.0380  0.0285  0.1187
 4177W        W21024   0.427  11.648  13.387 -0.0364  0.1331  0.0643
 4178W        W21025  15.016  18.149  11.943  0.1162 -0.0521 -0.0275
 4179W        W21026  15.329   9.472  11.473 -0.2980  0.0044  0.0036
 4180W        W21027  17.781   7.809  14.269  0.2800  0.0191 -0.1540
 4181W        W21028   7.385   4.271  13.981  0.1217  0.2488  0.2001
 4182W        W21029   1.296   0.584   3.988 -0.0085  0.2324  0.0870
 4183W        W21030   5.075   5.033  14.426 -0.1221  0.0133  0.2441
 4184W        W21031   9.740   7.692   3.721  0.1927  0.0090 -0.0852
 4185W        W21032   5.633   4.335   1.508 -0.1420  0.0491  0.0823
 4186W        W21033   0.400  12.149  14.330  0.1939  0.4039  0.1724
 4187W        W21034   4.796  16.971  12.593 -0.0356  0.0063  0.2287
 4188W        W21035  11.468   9.989  13.690  0.2227  0.1744 -0.1904
 4189W        W21036  10.089   6.643  14.166 -0.1194  0.3047 -0.3902
 4190W        W21037  14.414   9.091   4.043  0.0099  0.0937  0.0646
 4191W        W21038   6.033  15.829  11.002 -0.1832 -0.3705 -0.0895
 4192W        W21039   9.733   8.462  15.538  0.2113 -0.0450 -0.2355
 4193W        W21040  13.574   5.686   3.137  0.0692 -0.2257  0.1353
 4194W        W21041  12.682  14.477  15.155  0.2170 -0.0173  0.2192
 4195W        W21042  10.007   9.350   5.537  0.1234 -0.4259 -0.0435
 4196W        W21043   1.263   9.299   1.893 -0.0186  0.2171 -0.1864
 4197W        W21044  18.115   5.782  11.765 -0.3515  0.1103  0.1401
 4198W        W21045   0.434   6.952   0.927  0.1030  0.3459 -0.1485
 4199W        W21046   9.209  14.933  14.258  0.0804  0.0073 -0.1619
 4200W        W21047   4.115  14.342  14.867 -0.3051  0.0315 -0.0635
 4201W        W21048   7.777  11.890   2.603  0.2464  0.0326 -0.1115
 4202W        W21049   2.166  18.110  13.708 -0.0686 -0.2272 -0.0210
 4203W        W21050  10.446   5.093  14.057  0.1058 -0.1378  0.0398
 4204W        W21051  11.880   7.626  11.347 -0.0246 -0.0771 -0.0569
 4205W        W21052  17.877   7.967   1.499  0.0528 -0.0550 -0.0587
 4206W        W21053   1.128  16.617  12.787  0.1512  0.3163 -0.3841
 4207W        W21054  11.937   0.222   2.612 -0.1496  0.2152 -0.3182
 4208W        W21055   0.201   9.454  15.395  0.0637 -0.0477 -0.0401
 4209W        W21056  12.358   5.965  13.360  0.0522  0.2384  0.0302
 4210W        W21057  13.836  11.519   1.553  0.0616 -0.0043 -0.0711
 4211W        W21058  10.641   0.671   4.352 -0.0234 -0.0282 -0.1252
 4212W        W21059   4.112   2.785   3.555 -0.0164  0.1948  0.2194
 4213W        W21060   7.937  17.450   3.231  0.2148 -0.1297  0.0995
 4214W        W21061   9.198   9.465   3.291 -0.0624  0.1613  0.0013
 4215W        W21062   7.068   3.832   1.601 -0.4876  0.0627 -0.3281
 4216W        W21063   8.008  12.095   1.145  0.1285 -0.0278 -0.0253
 4217W        W21064  17.968   3.358   2.614  0.2621 -0.0407  0.1450
 4218W        W21065   3.910  14.975  12.263 -0.0391  0.0281 -0.1289
 4219W        W21066   8.130   7.671   3.016 -0.2062  0.0799  0.0057
 4220W        W21067  12.828  14.105   1.392 -0.2745  0.3796 -0.2321
 4221W        W21068  14.621   8.875   5.789 -0.2362  0.0855 -0.0213
 4222W        W21069   2.723  10.123   2.959  0.5896  0.0593  0.0170
 4223W        W21070   7.348   9.679  12.746  0.1205 -0.2906 -0.3300
 4224W        W21071   5.566   4.678  15.276  0.4561  0.2991 -0.1002
 4225W        W21072  14.589  12.165  13.166  0.0279 -0.0126 -0.0862
 4226W        W21073   0.803  17.117  11.735 -0.0468 -0.2726 -0.1501
 4227W        W21074   2.979   1.960  11.739  0.0286 -0.1963  0.2158
 4228W        W21075  11.398   3.573   1.749  0.3582  0.0841 -0.1128
 4229W        W21076  18.046  16.597  11.600 -0.0775  0.0168 -0.1345
 4230W        W21077   6.529  16.163   9.859 -0.0913 -0.0391 -0.1249
 4231W        W21078  14.281   7.245  13.464 -0.2192 -0.0244  0.0228
 4232W        W21079  11.738  13.038   3.731  0.1270 -0.1571 -0.0747
 4233W        W21080   1.237   3.004   1.050  0.0597 -0.1183  0.2135
 4234W        W21081  15.338   7.976   4.827  0.0969 -0.0865  0.3076
 4235W        W21082  17.308   1.410  11.518  0.1637 -0.2951  0.0878
 4236W        W21083  10.813   8.878  12.200  0.0473  0.1772 -0.0975
 4237W        W21084  11.493   0.423  12.438  0.1800 -0.0856  0.1780
 4238W        W21085   2.573   9.222   4.299 -0.0401 -0.2375  0.1470
 4239W        W21086  18.649  14.012   1.727 -0.0852 -0.0021 -0.3348
 4240W        W21087  15.768   2.595   2.686 -0.1328  0.0524 -0.1323
 4241W        W21088   5.875  15.056  13.408  0.0276  0.1305  0.1402
 4242W        W21089  14.569   6.170  14.612  0.0143 -0.1588  0.0210
 4243W        W21090  14.676  16.126   4.562  0.0013 -0.0440  0.1559
 4244W        W21091  12.756  18.606   2.500  0.3398  0.3197 -0.0249
 4245W        W21092   7.868  15.196   1.186  0.1947  0.2733 -0.3733
 4246W        W21093  16.844   9.475  14.612  0.0126 -0.1528  0.0240
 4247W        W21094  16.153  14.430  12.122 -0.0688  0.1618  0.0810
 4248W        W21095   9.641  12.471   5.855  0.2405 -0.0136  0.0403
 4249W        W21096   4.593  13.167   2.906  0.2206 -0.0610 -0.2224
 4250W        W21097   2.700   7.312   2.234 -0.0838 -0.0285 -0.0236
 4251W        W21098  11.556   8.409   5.892 -0.1140 -0.0960  0.0350
 4252W        W21099   1.109  11.973  11.133  0.1818 -0.0772  0.1390
 4253W        W21100   7.642   3.500  14.806  0.0088  0.0432 -0.3599
 4254W        W21101   1.536   8.637   5.558  0.2288  0.0076  0.2137
 4255W        W21102   4.797  16.604   0.494  0.1239 -0.0704 -0.1946
 4256W        W21103   5.467   1.357   5.112 -0.1706  0.2694  0.0813
 4257W        W21104   1.282   6.197   3.799 -0.0528 -0.2777 -0.0464
 4258W        W21105   4.811  12.576   2.454  0.0995 -0.1255  0.0618
 4259W        W21106   0.414   0.575   4.304 -0.2146  0.1511 -0.2339
 4260W        W21107   9.242   9.171  14.112  0.0885  0.1530 -0.0344
 4261W        W21108  15.626   0.414  13.711  0.1638 -0.2919  0.1103
 4262W        W21109   1.291  12.410  11.213  0.2998  0.1302  0.2055
 4263W        W21110  13.007   7.998   4.436  0.1992  0.2390 -0.0770
 4264W        W21111   7.204  14.997   3.772 -0.3845 -0.1688  0.0290
 4265W        W21112   2.995  11.879   3.552  0.0703  0.2614  0.1337
 4266W        W21113   2.040   8.456   0.974  0.1854  0.0984  0.0805
 4267W        W21114   5.310  15.441   4.441  0.0948 -0.1594  0.3137
 4268W        W21115  14.230   6.166   3.822 -0.0162 -0.0248 -0.0648
 4269W        W21116   8.338   1.554   4.284  0.0754 -0.1224 -0.1331
 4270W        W21117   4.685  18.590   2.450 -0.2035 -0.1357 -0.1050
 4271W        W21118   4.984  13.484   2.921  0.1349  0.1539  0.0111
 4272W        W21119   7.163   3.891   2.581  0.0521  0.0955 -0.2961
 4273W        W21120   9.557   6.045  13.673 -0.0818 -0.1442 -0.1736
 4274W        W21121   9.173  11.087  13.559 -0.1374  0.0763 -0.0003
 4275W        W21122   1.501   8.194  10.950 -0.3233 -0.2927 -0.4983
 4276W        W21123  13.682  14.149   2.746 -0.0606  0.0736 -0.0103
 4277W        W21124   4.911  12.430  11.577 -0.2570  0.0495  0.5046
 4278W        W21125   9.853   2.814  15.178  0.2224  0.0413  0.1065
 4279W        W21126  13.004  16.275   0.566  0.0531  0.3511  0.0204
 4280W        W21127   3.098  17.195  14.341 -0.2401 -0.1544  0.0364
 4281W        W21128   1.903   9.471   5.489 -0.0539 -0.1922  0.0311
 4282W        W21129  10.554   1.935  11.440 -0.0794  0.3115 -0.0361
 4283W        W21130   1.766  10.457   5.872 -0.2362  0.3276  0.2465
 4284W        W21131   1.013   3.462   1.032  0.0352  0.1795  0.0909
 4285W        W21132   2.984  17.155  12.304  0.1168 -0.1743 -0.1515
 4286W        W21133  12.821  12.378   2.575 -0.0463 -0.0565 -0.0788
 4287W        W21134  16.647  10.779  14.386 -0.4211  0.3655  0.1053
 4288W        W21135   2.652   3.823  15.490  0.1660  0.0229 -0.0258
 4289W        W21136   2.612   9.730   0.205 -0.0538  0.1860 -0.1728
 4290W        W21137   2.755  11.146   1.170 -0.0398 -0.1644  0.4123
 4291W        W21138   7.404  10.001  15.303  0.1254 -0.0965 -0.0776
 4292W        W21139   5.640   7.955  11.025  0.2233 -0.0958 -0.0282
 4293W        W21140  14.641  16.116   3.280 -0.1185 -0.2014  0.1433
 4294W        W21141  10.611   4.241  13.888  0.0133  0.0754  0.1562
 4295W        W21142   0.982  11.951   1.636  0.1383  0.0916  0.0939
 4296W        W21143  10.150  14.499   3.810  0.2972  0.0282 -0.2579
 4297W        W21144   5.199  15.576  11.290  0.1216  0.0204  0.0360
 4298W        W21145   3.093  15.236   1.967  0.3061  0.1273 -0.0723
 4299W        W21146   0.518  16.343  15.454 -0.2003 -0.0898  0.0261
 4300W        W21147  11.931  10.046   3.518  0.0388  0.1043  0.1839
 4301W        W21148   5.929  14.441  10.173  0.0174 -0.0007 -0.0625
 4302W        W21149   1.615   2.131   0.181  0.2895 -0.0144 -0.0645
 4303W        W21150  14.875   4.355   1.435 -0.1706  0.1899  0.1112
 4304W        W21151   0.951   1.283   0.524  0.0438 -0.1823 -0.2934
 4305W        W21152  14.170   1.717  13.608 -0.1034  0.1425 -0.1284
 4306W        W21153   2.693   6.188   3.922  0.1206 -0.0304 -0.0975
 4307W        W21154   8.218   9.710  15.033 -0.0100 -0.2211 -0.1873
 4308W        W21155   8.226   5.872  13.567 -0.2152  0.1636  0.3507
 4309W        W21156   1.749   6.444   5.912  0.0447 -0.0491 -0.0643
 4310W        W21157   7.147  10.651   3.208 -0.2608 -0.1262 -0.1657
 4311W        W21158   0.804  18.439  13.764  0.0125 -0.0245  0.0893
 4312W        W21159   5.054   8.198   3.814  0.2954  0.3154  0.0602
 4313W        W21160   8.207  18.100  12.000 -0.1728 -0.0507 -0.0684
 4314W        W21161  11.621   4.875  11.717  0.0499  0.0078  0.1641
 4315W        W21162  13.096  17.028   1.835  0.0331 -0.1445 -0.1713
 4316W        W21163   8.154  15.601  13.022 -0.1481  0.0221  0.0843
 4317W        W21164   9.186  17.415   2.903 -0.1179 -0.0867  0.2817
 4318W        W21165   6.587   1.797   4.661 -0.1665  0.2063  0.0516
 4319W        W21166   5.458  11.198   0.307 -0.3743 -0.1146 -0.1918
 4320W        W21167   0.545   0.020  13.466  0.1616 -0.0452  0.2480
 4321W        W21168   6.517  15.897   3.834  0.2236  0.2016 -0.0370
 4322W        W21169  17.748  12.537  11.590  0.0889 -0.0064 -0.3820
 4323W        W21170  12.130  11.124   1.246  0.0508 -0.0125 -0.1714
 4324W        W21171  18.018   1.503  14.385  0.0473 -0.0757 -0.3973
 4325W        W21172  11.248  15.477   3.009  0.2632  0.2523  0.1223
 4326W        W21173   3.350   7.859   0.223 -0.0559  0.2741  0.0405
 4327W        W21174   0.270  14.109   0.618 -0.1882 -0.3120  0.1045
 4328W        W21175   6.863   0.409  15.017  0.1792  0.6489 -0.0695
 4329W        W21176  16.424   3.501   0.198 -0.1907  0.0930  0.2697
 4330W        W21177  11.417  14.337  12.249 -0.1416 -0.0774 -0.1226
 4331W        W21178   0.650   9.933  13.082 -0.3872  0.1437  0.1172
 4332W        W21179  16.852  11.312  14.310  0.3219  0.1599 -0.2177
 4333W        W21180   7.218   1.954  11.559 -0.0795 -0.0919  0.1337
 4334W        W21181   1.879   0.308  15.552  0.1854 -0.1743 -0.3767
 4335W        W21182   1.996   3.016   2.396 -0.0536  0.0397 -0.2633
 4336W        W21183   4.411   4.956  12.056 -0.2410  0.5493 -0.0886
 4337W        W21184  15.622   2.965  14.749 -0.0675 -0.0702  0.0352
 4338W        W21185   3.749   7.559  13.913  0.1574 -0.1707  0.1146
 4339W        W21186   8.351   0.894   2.626  0.1783  0.0651  0.2041
 4340W        W21187  11.408  18.305  13.451  0.2457 -0.1045  0.1160
 4341W        W21188  13.779  16.672   1.433  0.1156 -0.0193 -0.1966
 4342W        W21189   5.149  11.316  15.402  0.1464  0.1138 -0.1174
 4343W        W21190  17.446  17.018   4.787 -0.1868 -0.0859  0.0766
 4344W        W21191   3.316   1.919  12.402 -0.1323 -0.2592  0.1054
 4345W        W21192   4.496  13.934  12.240 -0.2219  0.4168  0.1973
 4346W        W21193   4.083   8.878  13.968 -0.0921  0.1539 -0.2126
 4347W        W21194   6.092  12.071   2.522  0.2158 -0.0020  0.2514
 4348W        W21195  16.200   5.561  11.336  0.2790  0.0945  0.1650
 4349W        W21196  12.674  17.397   2.614 -0.1728 -0.0361  0.0691
 4350W        W21197  12.340  15.586  13.375  0.1341  0.4478  0.0341
 4351W        W21198  13.597  10.502  15.444  0.1429  0.2950  0.1901
 4352W        W21199   1.103   8.704   3.641 -0.0925 -0.0243  0.0598
 4353W        W21200   7.717   3.097   0.075 -0.1921  0.4304  0.4246
 4354W        W21201  15.392   4.162   1.095 -0.0900  0.3025 -0.0847
 4355W        W21202  13.411   3.456  11.254 -0.0729 -0.0699 -0.0116
 4356W        W21203   8.426   3.605   1.987  0.1115  0.1455  0.1310
 4357W        W21204  14.357   1.282  11.928  0.0515 -0.4232  0.1092
 4358W        W21205  16.738  12.557   4.049  0.4048 -0.3257  0.2219
 4359W        W21206  10.611   8.149   4.586 -0.2533  0.1103  0.2019
 4360W        W21207  12.265   1.580  13.871  0.0139  0.1978 -0.1314
 4361W        W21208  12.622  15.838   0.214 -0.0368 -0.1462  0.3096
 4362W        W21209   1.730  10.634  12.414 -0.0144  0.4786 -0.2823
 4363W        W21210   1.263  14.450  12.298  0.0332  0.1407  0.1854
 4364W        W21211  11.450  17.361   4.609  0.1667 -0.0825 -0.1559
 4365W        W21212  12.308   5.506  12.660 -0.2466  0.2635 -0.0256
 4366W        W21213  10.093   2.987   1.462 -0.0004 -0.1227 -0.1638
 4367W        W21214  13.902  13.154   3.100  0.0541  0.1674 -0.2152
 4368W        W21215  13.449  12.681  14.754  0.0391  0.0356  0.0114
 4369W        W21216   2.482   7.064  13.729  0.1749  0.2940 -0.1772
 4370W        W21217   4.385   8.135  14.407 -0.1251 -0.1009  0.2844
 4371W        W21218  17.805   4.476   4.610  0.1636  0.2713  0.2890
 4372W        W21219   1.602  14.232  15.539 -0.1956  0.1925  0.0074
 4373W        W21220  16.967   9.777   1.013  0.0252  0.1205 -0.0680
 4374W        W21221   5.163   3.425  13.723 -0.2497  0.2200  0.2036
 4375W        W21222   4.510   5.108  15.119 -0.1373 -0.1745 -0.1561
 4376W        W21223   8.296   7.959  13.683 -0.0632  0.1014 -0.0917
 4377W        W21224  14.782   9.368   0.063  0.3169 -0.0743  0.2225
 4378W        W21225  14.885  11.809   4.694 -0.0013  0.1240 -0.1881
 4379W        W21226  17.397   2.488   4.353 -0.0960  0.2573 -0.0549
 4380W        W21227  16.924  12.883  11.773  0.0787 -0.0833 -0.1185
 4381W        W21228   5.446   5.709  15.551 -0.3733  0.0495 -0.0876
 4382W        W21229   5.622  16.444   2.402  0.1156 -0.1484 -0.2448
 4383W        W21230   7.842  12.883  13.894 -0.1531 -0.1280 -0.0475
 4384W        W21231   5.678  16.407   2.922 -0.2850 -0.2633  0.0140
 4385W        W21232   3.345   9.479  13.143 -0.2525  0.1093  0.0542
 4386W        W21233  17.819  17.745   0.693 -0.2083  0.0221  0.2045
 4387W        W21234  17.495   4.039  13.660  0.0979 -0.0787  0.0893
 4388W        W21235   2.905  13.882  13.016 -0.1575  0.1935  0.0892
 4389W        W21236   9.788   7.610   4.878 -0.1584 -0.2159  0.2285
 4390W        W21237  17.553   4.369   2.025  0.0860 -0.1440  0.1251
 4391W        W21238   2.633   6.716   4.490  0.0145  0.0105  0.1636
 4392W        W21239  13.618  16.672   0.173 -0.2466  0.1450 -0.1524
 4393W        W21240   9.620   8.512   3.639 -0.1179 -0.0452 -0.2339
 4394W        W21241   8.619  16.143   2.262 -0.1455  0.0387  0.2826
 4395W        W21242  10.625  11.627  12.140 -0.1615 -0.1613  0.0847
 4396W        W21243   7.517   9.611  11.692  0.3976  0.2350 -0.1362
 4397W        W21244   1.215  16.768   3.936 -0.1252 -0.0311 -0.0899
 4398W        W21245   6.715  12.928  12.304  0.2432  0.0817  0.3914
 4399W        W21246  15.572  11.206  14.411  0.0507 -0.0843  0.0440
 4400W        W21247   9.006   9.973   2.491  0.0206 -0.2403 -0.0848
 4401W        W21248  12.230  11.335   5.203  0.0616  0.0147 -0.2039
 4402W        W21249  15.653   6.219   0.677 -0.0728  0.1458  0.1654
 4403W        W21250   8.190  13.612   2.120 -0.0936 -0.3103  0.2124
 4404W        W21251   9.976  17.731  14.951  0.0755  0.0847  0.0543
 4405W        W21252   2.578   7.009  11.578  0.1092  0.1927 -0.2401
 4406W        W21253   9.827  18.805   3.778  0.0694  0.0709 -0.0489
 4407W        W21254   3.870   9.727  11.597  0.0020  0.0251 -0.0915
 4408W        W21255  13.486   4.581   0.239  0.1673 -0.0193 -0.4364
 4409W        W21256  15.966  10.934  14.570 -0.0949 -0.1429  0.0607
 4410W        W21257  16.710   3.607  14.483  0.3130  0.1785  0.1358
 4411W        W21258   6.739  17.209  14.136  0.0597  0.0749  0.0109
 4412W        W21259   1.556   0.524   3.511 -0.0948 -0.1226  0.1546
 4413W        W21260  14.304  11.607   3.452  0.2719  0.4538  0.0027
 4414W        W21261  16.448   8.520   5.736 -0.1774 -0.0235 -0.0703
 4415W        W21262   2.212  15.489   0.266 -0.0415 -0.1951  0.0196
 4416W        W21263  11.906  16.628   0.124  0.3874 -0.4728 -0.0461
 4417W        W21264   9.578   2.620  12.849  0.0782  0.2199 -0.1650
 4418W        W21265  17.508   1.828   3.137  0.1505 -0.2259  0.2496
 4419W        W21266   1.970  18.016   5.104  0.2221 -0.0119  0.1074
 4420W        W21267   2.568  14.197  15.340 -0.0179 -0.1183  0.1463
 4421W        W21268   3.717   3.022   3.468  0.1478  0.0024 -0.0559
 4422W        W21269   6.541   4.550   1.542  0.3017  0.1311  0.0000
 4423W        W21270   6.943  16.164   3.610 -0.1322 -0.1411 -0.2900
 4424W        W21271   7.138   4.693   4.446  0.3194  0.0135  0.1799
 4425W        W21272   9.877   7.155   4.966 -0.0011 -0.1276  0.0592
 4426W        W21273   6.586  11.961   0.469 -0.0858  0.1349  0.0765
 4427W        W21274   2.884   6.630  12.502 -0.1386 -0.2549 -0.0141
 4428W        W21275  11.092  10.243  14.537  0.0924 -0.1211 -0.2374
 4429W        W21276   0.325  14.484   2.857  0.1093 -0.1442  0.2261
 4430W        W21277  15.026  15.331  14.763  0.1544  0.1094 -0.0099
 4431W        W21278  11.046   9.478   4.379  0.4141  0.1732 -0.0061
 4432W        W21279   3.635   8.785  11.727 -0.0807 -0.1281  0.1039
 4433W        W21280   4.257  17.828  14.408  0.1512 -0.1729  0.0435
 4434W        W21281   9.789   2.668   4.821 -0.3446 -0.0055  0.0567
 4435W        W21282   9.334   6.987   3.097 -0.0566 -0.2890  0.1023
 4436W        W21283   3.940   4.551   4.418 -0.1747  0.1543 -0.0439
 4437W        W21284  13.804   9.532  10.501 -0.2592  0.4519  0.0423
 4438W        W21285  12.558  13.666  11.432  0.0699 -0.0773  0.2153
 4439W        W21286  16.047   4.082  11.690  0.3111  0.0371 -0.3293
 4440W        W21287   8.446   8.407  11.997 -0.1483  0.1752  0.1267
 4441W        W21288   3.312  15.965   9.704  0.3910  0.0265 -0.0094
 4442W        W21289   6.298   5.524  14.990  0.0871 -0.2039 -0.0912
 4443W        W21290   4.617   9.903   5.629  0.2514  0.1911 -0.2744
 4444W        W21291  10.283   9.581  13.523 -0.3746  0.1944 -0.3708
 4445W        W21292  10.769   8.117  15.193 -0.0294  0.0511 -0.0119
 4446W        W21293  16.212   2.710  12.178  0.1448 -0.0409  0.4229
 4447W        W21294  17.056   3.884   3.521  0.1068  0.2350  0.1876
 4448W        W21295  16.080  10.111   3.303 -0.2683 -0.1902  0.0896
 4449W        W21296  12.437  18.037   4.704 -0.0572 -0.0533 -0.0775
 4450W        W21297   6.791   7.726   3.366 -0.5125  0.2885  0.1657
 4451W        W21298  11.374  14.605  13.334  0.0909 -0.0677  0.2143
 4452W        W21299   2.176  13.374  13.350  0.2197  0.0749 -0.0156
 4453W        W21300  13.283   4.760   1.748 -0.0607 -0.1672  0.0320
 4454W        W21301   8.307   7.668   3.513 -0.2318  0.0469  0.1441
 4455W        W21302   8.216   7.467  11.814  0.0979  0.2037  0.3152
 4456W        W21303   8.200   2.906   0.045 -0.2969  0.3332 -0.0083
 4457W        W21304   1.825   5.334   3.853  0.1581  0.0580  0.2376
 4458W        W21305  11.811  11.634  10.935  0.2863 -0.0835  0.2822
 4459W        W21306   1.881   3.472   2.016  0.0571  0.0185 -0.1350
 4460W        W21307   7.010   9.311   4.133 -0.1953 -0.2673 -0.2464
 4461W        W21308  10.465  18.581   3.496  0.0988  0.2597  0.1774
 4462W        W21309   1.372   7.060  14.113  0.3484 -0.2633 -0.2821
 4463W        W21310   8.784   4.463   3.692 -0.0862  0.1258  0.3213
 4464W        W21311  10.631  12.529   3.590  0.2999 -0.0516  0.1017
 4465W        W21312   0.417   6.445   2.172 -0.0136 -0.1945  0.1682
 4466W        W21313   7.343  10.665  14.861 -0.0255  0.0402  0.0745
 4467W        W21314   0.363  16.865  11.734  0.1066  0.1153 -0.0022
 4468W        W21315  13.805  13.443  12.530  0.2595  0.1159 -0.1329
 4469W        W21316  14.974  13.107  13.622 -0.2445 -0.1596 -0.2722
 4470W        W21317  14.744   2.346   5.148  0.2937  0.0925 -0.1745
 4471W        W21318   9.587  11.298   1.537  0.0308  0.1378  0.2242
 4472W        W21319   5.019  11.960  11.803  0.5138  0.4543 -0.1555
 4473W        W21320   3.318  15.897   0.033 -0.1327  0.0428 -0.2796
 4474W        W21321   5.109  14.098  13.353 -0.1628  0.1916  0.2292
 4475W        W21322   7.694  12.703   3.349  0.1533 -0.2483 -0.0736
 4476W        W21323   2.181   6.628  12.118  0.1790 -0.0563 -0.3518
 4477W        W21324  15.784   7.598  15.315 -0.1478 -0.1536  0.2524
 4478W        W21325  11.916  11.802   5.191  0.0992  0.0329 -0.0310
 4479W        W21326   3.741  16.382  12.307 -0.0661  0.1707 -0.1786
 4480W        W21327  15.358  13.553  13.819  0.1961  0.0071 -0.0347
 4481W        W21328   5.121   9.645  12.242 -0.1932 -0.0552  0.1905
 4482W        W21329  17.371   2.692   0.350  0.0019  0.1719 -0.2841
 4483W        W21330  11.437  13.820  12.060 -0.0752 -0.0746 -0.0967
 4484W        W21331  17.338  16.959  11.096 -0.1671  0.1152  0.2732
 4485W        W21332  13.922  18.357  10.799 -0.0653  0.1585 -0.0162
 4486W        W21333  14.160   2.873   3.807 -0.3874  0.1401 -0.1405
 4487W        W21334  12.050  17.919   5.101 -0.2324  0.3804 -0.2742
 4488W        W21335   4.103  16.957   4.267 -0.2741 -0.0554 -0.0047
 4489W        W21336  15.715  17.158  13.039 -0.1822  0.1682  0.2353
 4490W        W21337   3.248   8.532  12.522 -0.1835 -0.0187 -0.1734
 4491W        W21338  11.508  16.990   3.954  0.0311  0.1772  0.3959
 4492W        W21339  18.484   8.172  15.317  0.0159 -0.0143  0.2009
 4493W        W21340   2.956   7.562  14.589  0.0480 -0.0055 -0.0631
 4494W        W21341  14.246   0.349   4.227 -0.0181  0.0029 -0.0693
 4495W        W21342  13.093  12.244  13.389  0.1151  0.2375 -0.1456
 4496W        W21343  15.512  13.592   1.365 -0.0879  0.3669 -0.0214
 4497W        W21344  16.253   9.114   5.629  0.1410  0.2296  0.1371
 4498W        W21345   4.228   1.025  15.225 -0.2784  0.1212  0.0592
 4499W        W21346   5.175   3.820  15.400  0.0556  0.0743 -0.1141
 4500W        W21347   5.882   1.712  12.813 -0.0684 -0.2377 -0.0378
 4501W        W21348  15.581  15.712  13.326  0.2979  0.2708 -0.3060
 4502W        W21349  11.182   8.054  14.917 -0.0094 -0.2884 -0.3815
 4503W        W21350  14.940   9.679  11.211  0.0332  0.1473  0.1971
 4504W        W21351  13.777  10.134  13.755  0.4865  0.0262  0.0463
 4505W        W21352   6.225  15.174  11.899  0.0605  0.3285  0.1233
 4506W        W21353   8.633   7.874  10.517  0.1208 -0.1922  0.4806
 4507W        W21354   5.680  16.725  14.420  0.3845 -0.0221 -0.2708
 4508W        W21355  10.291   3.290  14.606 -0.0186  0.0447  0.0122
 4509W        W21356  16.536   4.716  11.953 -0.0018 -0.3845 -0.3643
 4510W        W21357  15.771  10.436  12.474 -0.2758 -0.0435 -0.0352
 4511W        W21358   5.760  10.291  15.027 -0.0961 -0.3020  0.0688
 4512W        W21359   6.760   5.242   0.875 -0.0730 -0.1272  0.0704
 4513W        W21360   8.316  10.913  12.665 -0.1180  0.1478  0.3446
 4514W        W21361   9.591  14.002   2.011  0.1883  0.0647  0.1047
 4515W        W21362  13.864   6.848   1.258  0.3417 -0.1486 -0.0136
 4516W        W21363   2.665  17.374  11.984 -0.3120 -0.0854 -0.1245
 4517W        W21364  18.162  16.909   2.720 -0.1759 -0.1591  0.0714
 4518W        W21365   5.650   6.807   4.782  0.1452 -0.2729  0.3054
 4519W        W21366  14.227   9.467   3.742 -0.1970 -0.0531  0.0201
 4520W        W21367  16.357  17.089   4.370 -0.1202 -0.0497  0.0739
 4521W        W21368   1.301   4.230  14.671 -0.3743 -0.0464  0.3942
 4522W        W21369  13.118  14.988   1.704  0.0203 -0.1623 -0.0557
 4523W        W21370  11.286  11.643   0.530 -0.0097  0.0740  0.0355
 4524W        W21371  10.399   1.801  13.689 -0.1841 -0.4966 -0.0308
 4525W        W21372   0.041   5.685   3.401 -0.0540 -0.4778 -0.2239
 4526W        W21373  16.758   8.514   1.874  0.2716  0.1729  0.3281
 4527W        W21374   3.999   2.919   3.090 -0.0234 -0.4619  0.1064
 4528W        W21375  14.651  12.049   0.307  0.0367 -0.0472 -0.0706
 4529W        W21376  10.927   1.646  15.492 -0.0750  0.0415  0.2717
 4530W        W21377  10.390  11.995   5.479  0.2957  0.0403 -0.1306
 4531W        W21378   1.410   2.935  13.875 -0.0042  0.0272  0.2395
 4532W        W21379  10.832   7.259   5.492  0.2101 -0.0803  0.0164
 4533W        W21380   5.573   1.201  12.164  0.2663  0.2741 -0.1194
 4534W        W21381   2.862   0.054   1.955 -0.0335  0.1139 -0.0335
 4535W        W21382  16.540  14.947  12.785  0.1240  0.2110  0.0049
 4536W        W21383  15.132  10.800   4.853 -0.1111  0.0022 -0.1889
 4537W        W21384   6.716  18.425  12.608 -0.1071 -0.0522  0.0478
 4538W        W21385   5.942  14.263  13.929  0.2152 -0.1338 -0.1343
 4539W        W21386   1.347  15.725  11.814 -0.3889 -0.1341 -0.0387
 4540W        W21387   5.553  14.090  13.585  0.1732  0.2965  0.1069
 4541W        W21388   5.753   9.185  13.503  0.3774  0.1305  0.0220
 4542W        W21389   6.078  10.215  13.446 -0.0316 -0.2019  0.0563
 4543W        W21390  15.546   6.629  11.299  0.0543  0.1042 -0.1681
 4544W        W21391  10.476   8.903   4.776 -0.0698 -0.1637 -0.2598
 4545W        W21392   3.240  12.204   4.977  0.0529 -0.0053 -0.1926
 4546W        W21393   8.288   3.258   2.636  0.0266  0.2588 -0.0987
 4547W        W21394  15.977   1.350  11.151  0.2339  0.0634  0.1198
 4548W        W21395   5.746   9.211  10.022  0.1401 -0.0047  0.6875
 4549W        W21396   2.050   4.373  15.491  0.1483 -0.1985  0.1551
 4550W        W21397   9.216   7.866  15.486  0.1662 -0.0585 -0.2358
 4551W        W21398  15.523   5.961   1.912  0.1785  0.0336  0.1426
 4552W        W21399   1.290   6.088   3.290 -0.1406  0.0600 -0.2860
 4553W        W21400   8.757  17.857   0.786  0.0596 -0.0565 -0.0560
 4554W        W21401  12.404  17.876   3.006 -0.0739 -0.2973 -0.3052
 4555W        W21402   5.637   6.518   6.042  0.0850 -0.1900 -0.1530
 4556W        W21403  10.902  16.788  14.212  0.1447  0.0364  0.0672
 4557W        W21404   6.115  10.658   0.338 -0.2232 -0.3074 -0.0372
 4558W        W21405   3.801  14.601   3.555 -0.1024 -0.1550  0.2123
 4559W        W21406  16.872   8.879  11.819  0.0344 -0.2283  0.2413
 4560W        W21407   9.039   6.439   4.789 -0.2566 -0.1643  0.0166
 4561W        W21408   9.137  10.792  11.695  0.0268 -0.2718  0.0342
 4562W        W21409  14.861   2.523   2.203 -0.1512 -0.1653 -0.0354
 4563W        W21410   8.855   7.470  13.991  0.2380 -0.0892 -0.3540
 4564W        W21411  18.268   6.706   4.059  0.1008 -0.0598  0.2168
 4565W        W21412  13.013  11.486  14.005 -0.2654  0.0072  0.0871
 4566W        W21413   5.275   0.416   4.480  0.0172  0.0849  0.2047
 4567W        W21414  17.047   9.781   5.217 -0.1783  0.1290 -0.3019
 4568W        W21415  15.064   6.319   3.809  0.0785 -0.0890 -0.1107
 4569W        W21416  18.011   9.603  15.391  0.4103 -0.0297 -0.0418
 4570W        W21417   2.446  13.321  13.759 -0.1808 -0.0367 -0.1631
 4571W        W21418   6.177   7.285  15.495  0.2212 -0.1735  0.1335
 4572W        W21419  14.402  10.568  13.710  0.1588 -0.3020 -0.2275
 4573W        W21420   9.857  13.963   2.426  0.2030 -0.0545 -0.1109
 4574W        W21421  11.553   5.806  12.249 -0.3511  0.0768 -0.1571
 4575W        W21422   8.275  14.487   5.716 -0.2903 -0.1342 -0.1169
 4576W        W21423  11.305   2.268   5.938 -0.0478 -0.2351  0.1568
 4577W        W21424   3.121   4.131  12.760  0.1902 -0.0374 -0.0282
 4578W        W21425  18.012  15.003  10.129  0.0722  0.0877  0.0263
 4579W        W21426  13.986  15.865   2.872 -0.0078 -0.2402  0.4491
 4580W        W21427  10.322  14.603   0.070 -0.1396 -0.2794 -0.0525
 4581W        W21428  17.749  13.741   4.743  0.1923 -0.0625 -0.1560
 4582W        W21429   1.764  14.313  11.429  0.0822  0.1724 -0.0536
 4583W        W21430   4.424   6.185   4.616  0.0299 -0.0682  0.1419
 4584W        W21431  16.011  17.708  14.125  0.0142  0.0167  0.0816
 4585W        W21432  10.000  14.703  12.662  0.1843  0.0061  0.0268
 4586W        W21433  17.539  14.060   3.897 -0.1082  0.1267 -0.3279
 4587W        W21434   9.108  18.715   2.350  0.2838 -0.1576  0.1500
 4588W        W21435  16.181   6.823   1.839  0.3239  0.2294  0.0068
 4589W        W21436  17.723   4.527   3.229  0.0382  0.2620  0.3138
 4590W        W21437   2.766  13.548   0.629  0.2870 -0.0636  0.0013
 4591W        W21438   5.965   9.434   3.806  0.1597 -0.1008 -0.2382
 4592W        W21439   5.089  13.758   1.021  0.0989 -0.0883 -0.1711
 4593W        W21440  15.984  10.402  14.626 -0.0853 -0.3775 -0.0738
 4594W        W21441   9.984  15.405  12.008  0.0878  0.1030  0.2561
 4595W        W21442   2.093   0.558   4.351  0.1958 -0.0717 -0.3412
 4596W        W21443  15.845  17.055   3.291 -0.2300  0.0468  0.4382
 4597W        W21444  10.706   8.889   3.777  0.1121  0.1719 -0.1140
 4598W        W21445  13.464   4.875   2.797  0.1092  0.2265  0.1736
 4599W        W21446  12.215   9.879  13.839 -0.0601  0.1178  0.4442
 4600W        W21447  15.488  13.305   1.783 -0.2419  0.0070 -0.1497
 4601W        W21448   0.071   6.718  12.418 -0.1579  0.1501  0.0299
 4602W        W21449  13.407  14.657  10.402 -0.0430  0.2325  0.0376
 4603W        W21450   4.897  10.463   4.663 -0.0871 -0.0490 -0.2510
 4604W        W21451  17.806  11.631  13.324  0.0513  0.4005  0.1442
 4605W        W21452   7.911   0.518   1.613 -0.0540  0.0123 -0.2695
 4606W        W21453  10.064   7.455  13.766 -0.1088  0.3478  0.1528
 4607W        W21454  10.634  14.848  13.936 -0.1897  0.2493  0.0628
 4608W        W21455   5.510  15.971  12.037  0.2246  0.0386  0.2582
 4609W        W21456  18.102   2.513  10.579  0.0643 -0.0283 -0.1318
 4610W        W21457   6.940  13.189  11.374 -0.1955  0.1538  0.3843
 4611W        W21458  17.132   2.377   9.709  0.1898 -0.1162  0.0376
 4612W        W21459   3.652  12.444  14.901  0.2198  0.3728  0.0039
 4613W        W21460  12.792   0.706  15.425 -0.2326  0.0560 -0.1637
 4614W        W21461  13.255   2.521   0.283 -0.0294  0.2627  0.1646
 4615W        W21462   9.339   6.649   0.334 -0.1562  0.0349 -0.4335
 4616W        W21463  17.189  17.256  12.034  0.0290 -0.3042 -0.0023
 4617W        W21464  11.704   8.933  12.465 -0.1012  0.0707 -0.0724
 4618W        W21465   0.139  11.356  11.712  0.1687 -0.0092  0.3662
 4619W        W21466  14.959   2.355   1.566  0.2047  0.4083 -0.1095
 4620W        W21467   8.315  14.016  13.928  0.0138  0.0015 -0.1818
 4621W        W21468   5.076  18.302   1.731  0.1277  0.0478  0.3397
 4622W        W21469   1.051  10.198  11.200  0.3041  0.2272  0.0114
 4623W        W21470  12.681   1.908   2.636 -0.3691 -0.3160  0.0905
 4624W        W21471  10.520  10.836   0.675 -0.0406  0.1941  0.2149
 4625W        W21472  17.990  17.378   3.816 -0.3003 -0.0046 -0.0150
 4626W        W21473   2.421  15.737  10.994 -0.0622  0.4735  0.2593
 4627W        W21474  11.786   8.717   0.964 -0.0872  0.0685 -0.1946
 4628W        W21475   2.163  14.782  14.683  0.2670  0.1683 -0.0602
 4629W        W21476  15.960   4.419   5.273  0.1110 -0.3922 -0.1915
 4630W        W21477   1.503  13.670   4.311  0.2479  0.2752 -0.0034
 4631W        W21478   6.090   6.723  12.519 -0.0340 -0.1352 -0.0316
 4632W        W21479  16.925  15.249  13.140 -0.1353  0.1628  0.0959
 4633W        W21480  16.486   8.826   3.458  0.0201  0.1937  0.1438
 4634W        W21481   5.603   3.445   2.103  0.1216  0.1827  0.4688
 4635W        W21482  18.393   2.125  12.953 -0.0099 -0.1571  0.3741
 4636W        W21483  18.714  13.903   0.768  0.1914  0.3162 -0.0402
 4637W        W21484  12.579   6.196   0.216 -0.1691 -0.0471 -0.2155
 4638W        W21485  13.723   7.712  15.252 -0.2156  0.1447 -0.0246
 4639W        W21486  17.464   4.049  11.599 -0.1054 -0.1934 -0.1933
 4640W        W21487  16.662   6.767  14.848 -0.1580 -0.1939 -0.1881
 4641W        W21488  13.953  16.066  14.770 -0.0952  0.0915 -0.1982
 4642W        W21489   6.774   0.836  15.270 -0.1495  0.0696  0.0240
 4643W        W21490   0.261   2.418   0.939 -0.1394 -0.0099  0.1471
 4644W        W21491   5.311  15.987  11.609  0.0499  0.0799  0.0538
 4645W        W21492   0.290   3.786  15.355 -0.1561 -0.1036 -0.1440
 4646W        W21493  10.312   3.079   5.504  0.0338  0.3105 -0.0406
 4647W        W21494  14.674   4.334  12.196 -0.1440  0.2267 -0.3138
 4648W        W21495  18.511   7.609  12.124 -0.3013  0.0139  0.0026
 4649W        W21496   3.003  16.357   3.145  0.1951 -0.0293  0.4126
 4650W        W21497   5.519  11.451   2.185  0.1638  0.1767 -0.2954
 4651W        W21498  10.888  13.326   3.468  0.2095 -0.3554  0.2214
 4652W        W21499  12.438  10.765   0.381  0.0691 -0.0557 -0.0501
 4653W        W21500  13.066  18.789   4.762  0.4095 -0.0838 -0.3950
 4654W        W21501  10.912  15.930  13.151  0.1692  0.1937  0.0406
 4655W        W21502  12.480   7.471  10.760 -0.1240  0.2137 -0.0428
 4656W        W21503  16.483   5.636   5.527 -0.2828 -0.1393 -0.1930
 4657W        W21504  16.348  15.628   4.275 -0.3489  0.1133  0.0153
 4658W        W21505  15.900   8.125  11.671  0.0080 -0.3894 -0.1375
 4659W        W21506   7.575   3.798  10.571 -0.3028 -0.3122  0.2956
 4660W        W21507   0.240  15.292   4.775 -0.0982 -0.3417 -0.1892
 4661W        W21508   4.610  10.681   2.847  0.0675  0.3157 -0.0990
 4662W        W21509  15.399   5.006  12.524 -0.1550 -0.2739  0.0187
 4663W        W21510   9.693   4.768   0.106 -0.0844  0.0268 -0.0990
 4664W        W21511  14.136  14.299   2.746 -0.2943  0.2924 -0.0870
 4665W        W21512   6.911   5.475   4.195 -0.3433 -0.0738  0.0668
 4666W        W21513   3.091  16.934  15.243  0.4452  0.1242  0.5373
 4667W        W21514  12.118  18.151  14.197 -0.0730 -0.0738  0.1344
 4668W        W21515   2.981   4.106  15.062  0.0967 -0.0168  0.0124
 4669W        W21516  14.353   5.147   5.902 -0.0257  0.1902  0.0573
 4670W        W21517  13.107   3.633   4.061 -0.0207  0.1236 -0.2081
 4671W        W21518   9.998  18.520   0.341  0.1050 -0.2520  0.0184
 4672W        W21519   0.790   5.095   1.736 -0.0746  0.1452 -0.3240
 4673W        W21520  12.151  11.810   2.206 -0.0293  0.1246 -0.3975
 4674W        W21521  14.593   4.760  12.667 -0.2034  0.0584 -0.0848
 4675W        W21522   0.447   8.222  12.901  0.1276  0.0634  0.0967
 4676W        W21523   9.549  15.616  12.314 -0.0642  0.1524  0.2718
 4677W        W21524  17.166  15.390  10.552  0.0129 -0.1779  0.1261
 4678W        W21525  10.389   4.244  13.027 -0.0641 -0.1384  0.0208
 4679W        W21526   0.282  16.228  11.022  0.0487 -0.1136 -0.1832
 4680W        W21527   9.918   5.581   3.946  0.1249 -0.1539 -0.0328
 4681W        W21528  10.588  15.099   2.745  0.0734 -0.0285  0.1171
 4682W        W21529   0.558  17.429  12.182 -0.0701  0.4611  0.0040
 4683W        W21530  14.128  18.086  14.040  0.2036 -0.0457  0.2787
 4684W        W21531  14.819   3.068  15.358  0.1499  0.0717 -0.1793
 4685W        W21532  11.940   3.077  11.462 -0.1681  0.2844  0.1240
 4686W        W21533  15.698  12.542  12.131  0.1131  0.2102 -0.2577
 4687W        W21534  11.173  12.650   2.205 -0.0500 -0.0269 -0.1263
 4688W        W21535   7.258   3.167   5.331  0.0392 -0.0096 -0.0177
 4689W        W21536  15.093  18.225  13.620  0.1698 -0.0772 -0.2429
 4690W        W21537  16.903   3.756  13.159  0.1572  0.1357  0.0602
 4691W        W21538   5.254   6.832  12.525 -0.1901  0.1946 -0.1541
 4692W        W21539   6.054  13.102   2.594 -0.0075  0.0957 -0.0014
 4693W        W21540   6.904   9.811   0.529  0.1155 -0.3647 -0.0732
 4694W        W21541   9.801   3.562   3.196 -0.3741 -0.0639  0.0744
 4695W        W21542  16.834   0.345   2.767  0.0077 -0.2027 -0.1507
 4696W        W21543   7.511  16.550  12.517  0.0352  0.3303  0.4181
 4697W        W21544   0.136   1.753   2.119 -0.0560 -0.0467 -0.0440
 4698W        W21545   4.201   3.212  15.130  0.1323 -0.2256  0.0552
 4699W        W21546  15.200   4.185   1.809 -0.0152  0.0926  0.2861
 4700W        W21547   5.556  11.363  11.047  0.2191 -0.3240 -0.3348
 4701W        W21548   9.322  18.621   4.690 -0.0798  0.1920 -0.1556
 4702W        W21549   1.871  10.960  15.033  0.0106 -0.0240  0.1114
 4703W        W21550   9.244   2.185   2.258  0.3523  0.0862 -0.1068
 4704W        W21551   3.638   6.009   0.047  0.1633  0.3116 -0.3487
 4705W        W21552   7.702   5.036   4.063 -0.2414 -0.1964  0.3343
 4706W        W21553   3.459   2.821   1.516 -0.0327  0.0037  0.1677
 4707W        W21554   6.391   8.893  11.208  0.1487  0.0574  0.2385
 4708W        W21555   0.023   7.906   5.414  0.0285 -0.1646 -0.1552
 4709W        W21556   0.830  18.260   1.761 -0.3354  0.0581 -0.0895
 4710W        W21557   6.274  16.413  13.175  0.4728 -0.0053  0.1243
 4711W        W21558  13.766  12.554   3.591  0.0704 -0.0877  0.1347
 4712W        W21559   2.072  16.308   1.910 -0.0979 -0.2435 -0.2633
 4713W        W21560  14.303   3.900   3.052 -0.3032  0.1488 -0.0720
 4714W        W21561   0.970  15.573  13.059 -0.1955 -0.0122  0.1524
 4715W        W21562   0.175  16.754   2.548 -0.0625  0.2892 -0.1352
 4716W        W21563   2.365  11.962  11.610  0.0922  0.0435  0.1217
 4717W        W21564  10.085   3.642  14.332 -0.3195  0.3142 -0.0355
 4718W        W21565  17.904  16.961   4.582 -0.0191  0.0547  0.3488
 4719W        W21566  17.078   8.534  14.595 -0.0508  0.1561 -0.1080
 4720W        W21567  17.142  16.945  13.357 -0.0344 -0.0319 -0.3465
 4721W        W21568  12.916   3.848   0.370 -0.3400 -0.2341 -0.0704
 4722W        W21569  11.992  18.591   4.129 -0.0070 -0.0819 -0.0436
 4723W        W21570   3.634   8.149  12.413 -0.1462  0.1387  0.3372
 4724W        W21571  17.514  14.524   2.150 -0.1822 -0.1146  0.0811
 4725W        W21572   3.241   6.386  10.716 -0.2306 -0.3968  0.1391
 4726W        W21573   1.752  16.842  11.271 -0.2950  0.0592  0.0601
 4727W        W21574  14.438   8.387   1.218  0.1042  0.1683 -0.1025
 4728W        W21575   4.316   8.454  12.108 -0.1455  0.0839  0.1016
 4729W        W21576  18.293   9.317  11.942 -0.1361  0.1703  0.1469
 4730W        W21577   9.854  12.444   3.072 -0.0586 -0.0490 -0.3418
 4731W        W21578  17.165  13.365   2.809  0.2322  0.0820  0.0575
 4732W        W21579  11.166  12.854  12.743  0.2120  0.0730  0.1508
 4733W        W21580   7.877  17.314   2.351 -0.1893 -0.1440 -0.0566
 4734W        W21581   3.329  17.088  11.011  0.2103 -0.3096  0.0066
 4735W        W21582   7.595   3.237  12.666 -0.0721 -0.3151  0.2790
 4736W        W21583  15.114   0.376  11.504 -0.0195 -0.0774  0.0651
 4737W        W21584   3.738   3.689  12.458 -0.3171  0.0913 -0.4315
 4738W        W21585   6.965  17.071  14.761  0.8814 -0.0866  0.0153
 4739W        W21586  11.361   5.861  13.138  0.1568 -0.2536 -0.1731
 4740W        W21587  12.038   7.410  10.930  0.1000  0.1053  0.2230
 4741W        W21588   3.759  14.014  12.834  0.2522 -0.1718 -0.1959
 4742W        W21589   2.805   0.732   2.568 -0.2689 -0.0990  0.4436
 4743W        W21590   3.136   8.191   1.927  0.0453 -0.3146  0.2831
 4744W        W21591  11.918   8.616   2.298 -0.1016  0.1810  0.0654
 4745W        W21592  15.383  16.390   0.867 -0.2360 -0.0737  0.1086
 4746W        W21593  15.199  17.921  11.522  0.2221  0.1988  0.1132
 4747W        W21594   7.026  18.057   0.021 -0.0623 -0.0960 -0.1051
 4748W        W21595  12.484  11.047   0.811 -0.5002 -0.1855  0.0323
 4749W        W21596  17.808   1.400  10.541  0.1016 -0.0836  0.1395
 4750W        W21597   2.095  15.026  11.451 -0.0610 -0.2180 -0.0378
 4751W        W21598   6.748  15.815  15.552  0.0823  0.0916 -0.2009
 4752W        W21599  11.370  18.532   1.631  0.1712 -0.0108 -0.1499
 4753W        W21600  15.863  14.712   2.145  0.0187 -0.1949 -0.2411
 4754W        W21601   4.438  17.394   1.159  0.3016 -0.1866  0.1780
 4755W        W21602  13.164   3.783  11.561 -0.2798  0.2110  0.1102
 4756W        W21603   3.530  12.544   1.029  0.1186 -0.1320  0.0728
 4757W        W21604   5.215  14.609  15.472 -0.0152 -0.0402 -0.1005
 4758W        W21605   9.901  10.443   5.701  0.0237  0.1961 -0.4028
 4759W        W21606  15.850   0.985  14.387 -0.0154  0.0902 -0.0792
 4760W        W21607   2.155  18.332   1.843  0.0019 -0.1875 -0.3904
 4761W        W21608   6.594  11.327  10.432  0.2547  0.4680  0.0240
 4762W        W21609  15.851  15.515  13.729 -0.1363  0.0073  0.2491
 4763W        W21610  13.691  15.957  11.882 -0.0980  0.0124  0.1724
 4764W        W21611  12.760   5.628   2.023 -0.0483  0.1139  0.0463
 4765W        W21612   9.215   2.154  12.814  0.1182 -0.2814 -0.0885
 4766W        W21613  15.312  14.051   4.067 -0.1024 -0.1029 -0.1625
 4767W        W21614  13.424  15.876  12.337 -0.4835  0.0420  0.1732
 4768W        W21615   3.311   3.831   1.781 -0.2320  0.3119  0.1405
 4769W        W21616  16.511   7.463  14.447 -0.2064 -0.1163  0.2960
 4770W        W21617   8.405   3.905  11.204  0.1662 -0.0552  0.2786
 4771W        W21618  15.466  14.745  12.376  0.1249 -0.1527 -0.3396
 4772W        W21619  17.986  13.090   5.793  0.0398 -0.2681 -0.0510
 4773W        W21620  10.652   2.365  12.886  0.0211  0.0370  0.1864
 4774W        W21621   0.338   6.215  14.756  0.1838  0.0224 -0.1560
 4775W        W21622  12.771   6.215   2.053  0.1677  0.2446 -0.1044
 4776W        W21623   7.079   0.215  13.983  0.2270 -0.3009  0.0753
 4777W        W21624  17.256   5.591   4.205  0.0668  0.2366 -0.1774
 4778W        W21625  11.738  14.298  13.269 -0.1695 -0.1892  0.0218
 4779W        W21626   8.598  13.807  12.977  0.1625  0.0104 -0.0057
 4780W        W21627  18.212  11.010   4.629  0.2692  0.0375  0.0433
 4781W        W21628   0.344  14.483   2.348 -0.2151 -0.1027 -0.0690
 4782W        W21629  17.759   9.147  10.095  0.3950 -0.2180  0.0283
 4783W        W21630  11.067  14.205   0.140  0.2501  0.0996  0.0064
 4784W        W21631   2.236   4.063   4.135  0.0314  0.2336  0.1170
 4785W        W21632  14.819  10.995  11.193  0.2886 -0.0921  0.0700
 4786W        W21633   6.875  17.586  13.803  0.0371  0.2500  0.0020
 4787W        W21634   7.625  10.541   0.424 -0.0956 -0.0272 -0.1869
 4788W        W21635  18.542   5.250   0.371  0.1736  0.1026  0.4494
 4789W        W21636  18.575  13.384   5.162 -0.0232 -0.2077  0.0902
 4790W        W21637   0.070  17.875  11.435  0.0388  0.1848 -0.3461
 4791W        W21638   0.947   5.391  11.311  0.3128  0.0298  0.0448
 4792W        W21639  18.046  11.787   3.066 -0.0525  0.2678 -0.4392
 4793W        W21640   1.588  16.417   4.223 -0.0757  0.0120 -0.2317
 4794W        W21641  13.728   1.972   1.429 -0.1491  0.2406 -0.0217
 4795W        W21642   0.658  17.960   3.920 -0.1060  0.0232  0.2307
 4796W        W21643   8.882   4.959   2.734 -0.1193 -0.0124  0.0809
 4797W        W21644   0.700  17.404  14.183 -0.0386 -0.0180 -0.0759
 4798W        W21645   5.365   1.956  10.904 -0.0175 -0.0161 -0.2600
 4799W        W21646  16.593  14.515  13.627  0.1984 -0.3632  0.3843
 4800W        W21647  12.987  18.716  13.862 -0.0906  0.0669  0.1068
 4801W        W21648  17.419   9.604  11.172 -0.0729  0.0595  0.1048
 4802W        W21649  16.017  14.591  11.570 -0.1442  0.0510 -0.0043
 4803W        W21650  18.181   4.352   0.877  0.0197 -0.0777 -0.0596
 4804W        W21651  17.062  18.178  13.449 -0.2572 -0.3252 -0.0588
 4805W        W21652   9.053  15.393   0.955  0.0400 -0.2046  0.1850
 4806W        W21653   8.804   4.115  13.861  0.3059 -0.0318  0.2892
 4807W        W21654   1.294   4.869   0.041  0.1571  0.0217  0.0326
 4808W        W21655  10.574   7.990   1.672  0.0590 -0.0484 -0.4392
 4809W        W21656  14.356  15.246  13.808  0.0423  0.1105 -0.1101
 4810W        W21657   2.673  11.382  13.653 -0.2334 -0.1290 -0.1453
 4811W        W21658  13.718   4.684   5.305  0.2287 -0.0208  0.1409
 4812W        W21659   0.355   8.454   2.999 -0.0167  0.0443 -0.1846
 4813W        W21660  10.038  18.292   5.263  0.1651 -0.2439 -0.2518
 4814W        W21661  13.046  16.041   4.285  0.2174  0.1122  0.2441
 4815W        W21662   9.225   4.690   3.891 -0.1929  0.0868  0.1245
 4816W        W21663  15.549  12.413   0.660 -0.0690  0.0130 -0.0437
 4817W        W21664   6.438   4.635   3.979  0.1671  0.0467  0.0257
 4818W        W21665   5.356   4.892   5.210 -0.1122  0.1169 -0.0216
 4819W        W21666  18.067   2.234  12.589  0.0842  0.1833 -0.0563
 4820W        W21667  12.672   2.475  15.045  0.1670  0.0579 -0.2049
 4821W        W21668   8.600  17.370   1.603  0.0418  0.0943  0.0024
 4822W        W21669   1.152  18.155   3.888 -0.5332 -0.2305  0.3761
 4823W        W21670  15.241  12.268   3.463 -0.4737 -0.0620  0.0298
 4824W        W21671   6.166   2.592  11.469 -0.1291  0.1458 -0.1000
 4825W        W21672   2.676   4.927   4.431  0.0046  0.0441 -0.2062
 4826W        W21673   4.463   8.686   0.025  0.2296  0.1513 -0.0428
 4827W        W21674  10.745  14.168   2.466  0.0121  0.0192  0.1072
 4828W        W21675  17.888  17.977   3.574  0.0439  0.2854 -0.1130
 4829W        W21676  18.564   1.270  15.165  0.2931 -0.2129  0.0571
 4830W        W21677  17.124   6.819   3.812 -0.2058 -0.4349 -0.1264
 4831W        W21678  14.189  12.565   1.319 -0.1279 -0.4578  0.1947
 4832W        W21679   8.510   7.319   1.379 -0.0777  0.0657  0.2356
 4833W        W21680  14.262  13.382   4.752 -0.1435 -0.1871  0.0616
 4834W        W21681   5.272   2.589  14.667 -0.2351  0.1555  0.1877
 4835W        W21682  12.831  18.661  12.798 -0.0434  0.2781  0.2479
 4836W        W21683  10.844  11.334   6.110  0.0174 -0.1830  0.1844
 4837W        W21684   2.250   9.647   1.006  0.4479 -0.0018 -0.1803
 4838W        W21685  10.173   9.294  10.752  0.0857  0.0102  0.1588
 4839W        W21686   3.509   9.970  13.443  0.1162  0.1577  0.3130
 4840W        W21687   6.495   1.770  14.070  0.0387 -0.0256  0.0769
 4841W        W21688  15.321  16.939   2.388 -0.0923  0.0643  0.1385
 4842W        W21689  12.858   7.007   4.170 -0.0942 -0.2044 -0.0029
 4843W        W21690  15.986   1.777   4.208 -0.2162 -0.2750 -0.2118
 4844W        W21691  11.562   7.493   4.682 -0.0133  0.0137  0.1820
 4845W        W21692  11.411   4.175  14.245 -0.0308 -0.4041  0.1101
 4846W        W21693  16.561  14.461   3.793  0.0687 -0.1300  0.1101
 4847W        W21694  12.314   3.041   2.490  0.2360 -0.0331  0.0273
 4848W        W21695  13.652   2.749  14.308  0.5056 -0.1973  0.1789
 4849W        W21696  15.822  13.565  13.031  0.1171 -0.3389 -0.2588
 4850W        W21697   7.992  15.611  12.154  0.1348  0.1817  0.1893
 4851W        W21698  14.403   5.123   1.940  0.2335 -0.0152 -0.1823
 4852W        W21699   5.043   7.050   2.882  0.2024 -0.2131 -0.0872
 4853W        W21700  11.301   7.168   5.175  0.0881 -0.0692 -0.0970
 4854W        W21701  10.489   6.671  10.976  0.0369 -0.1880 -0.1747
 4855W        W21702  18.010   0.847  12.757  0.0467 -0.0029 -0.1998
 4856W        W21703  12.402   6.859   4.131 -0.1443 -0.3416  0.0970
 4857W        W21704  13.654   2.100  11.496 -0.0659  0.2043  0.0114
 4858W        W21705  10.650  11.648  15.301  0.2484  0.0594  0.0732
 4859W        W21706   6.164   8.315   0.645 -0.0083  0.0818 -0.0113
 4860W        W21707   7.459  11.096   2.206  0.0215 -0.0889  0.0968
 4861W        W21708  16.729   8.730  13.213 -0.0960 -0.0738  0.0166
 4862W        W21709  17.191   7.596  12.399  0.0923  0.0659  0.0793
 4863W        W21710   3.360   1.797   0.570 -0.1023 -0.0710  0.4565
 4864W        W21711   5.824   6.885  13.441  0.0769  0.0666 -0.0879
 4865W        W21712  17.216   7.831   0.845  0.0441 -0.1630 -0.1453
 4866W        W21713   7.754   9.483   2.602 -0.2617 -0.2243  0.1691
 4867W        W21714   0.426   4.127   3.397 -0.2167  0.2043 -0.1392
 4868W        W21715   7.743  15.378   3.196  0.2184 -0.0366 -0.2170
 4869W        W21716   4.888  11.711   4.437 -0.0870  0.0154 -0.1635
 4870W        W21717   4.417   1.128   3.241  0.1768 -0.2260 -0.4242
 4871W        W21718  16.535   7.741  10.605 -0.3219 -0.0656 -0.3359
 4872W        W21719  12.753  14.415  12.852 -0.0650 -0.0801 -0.0074
 4873W        W21720   0.501  14.224   9.672 -0.2435  0.3040 -0.3132
 4874W        W21721  13.662   1.391   0.110 -0.1262 -0.1109 -0.0319
 4875W        W21722   1.236  14.040   3.109 -0.3029  0.1540  0.0747
 4876W        W21723   7.840   3.062  11.310 -0.0475 -0.1908  0.3036
 4877W        W21724   9.078   5.220   1.531  0.2955  0.0866 -0.2990
 4878W        W21725   8.239   1.381   2.095  0.0871 -0.1771 -0.2724
 4879W        W21726   3.460   0.337   3.560 -0.0346  0.2002 -0.1770
 4880W        W21727   9.936   9.983  13.829  0.0965  0.0645  0.0604
 4881W        W21728  18.694   3.645  13.673  0.1131  0.4888 -0.1697
 4882W        W21729   9.818   9.084   3.448 -0.1535  0.3461  0.1479
 4883W        W21730   9.405   8.075   5.176  0.2518  0.0023 -0.0098
 4884W        W21731   5.614  14.348   0.597  0.2610  0.1352  0.0217
 4885W        W21732   2.392  14.646   3.074  0.2929 -0.0656 -0.1059
 4886W        W21733   6.848   3.598  13.337 -0.0023 -0.2178  0.0554
 4887W        W21734  15.244  13.580  11.368  0.0259  0.4674  0.0388
 4888W        W21735   9.119   2.511  13.139  0.1337 -0.1997 -0.1902
 4889W        W21736   3.068   7.019   2.078 -0.0991  0.0032 -0.2774
 4890W        W21737  11.311   1.872  13.301  0.3752 -0.0775 -0.2901
 4891W        W21738   6.595   1.782  10.586  0.0208  0.1081 -0.0158
 4892W        W21739   6.637  11.567   4.293 -0.2420 -0.0900 -0.2452
 4893W        W21740   4.230  14.539  15.340 -0.1195  0.3580  0.1912
 4894W        W21741  18.668  15.693  10.770 -0.0550  0.1986  0.0257
 4895W        W21742   4.372   5.299   1.422  0.1110 -0.1570  0.1220
 4896W        W21743   2.620  10.454  12.160  0.1762 -0.0473  0.1597
 4897W        W21744   0.643  10.749   2.210 -0.2397  0.2479 -0.0643
 4898W        W21745  16.743  10.749  15.502  0.2751  0.1531  0.1789
 4899W        W21746  15.170   5.242  13.735 -0.0820 -0.2562  0.0980
 4900W        W21747  13.226   0.663   3.681 -0.1074 -0.2175 -0.0665
 4901W        W21748  15.683  11.176   2.746 -0.2566  0.2020 -0.0401
 4902W        W21749   5.531   4.002   1.197  0.0240  0.1951  0.0675
 4903W        W21750   5.733  18.602  12.399 -0.0036 -0.2285 -0.0457
 4904W        W21751   0.683  18.475  11.673  0.2124  0.0893  0.0416
 4905W        W21752  15.874  11.873  12.734 -0.0181 -0.0648  0.0127
 4906W        W21753   2.516  13.603   1.414 -0.0633 -0.0260 -0.0475
 4907W        W21754  12.999   1.602   0.902 -0.1883 -0.0788 -0.0540
 4908W        W21755   9.758   0.863  11.520  0.2108  0.1411 -0.3571
 4909W        W21756  15.070  17.860   2.231 -0.0206  0.2213  0.1062
 4910W        W21757   0.733  17.496   0.958 -0.1282 -0.2110  0.0161
 4911W        W21758   7.332   5.368  12.852 -0.0012  0.0291 -0.2524
 4912W        W21759   1.610  16.476  12.583 -0.1755  0.0539 -0.2215
 4913W        W21760   7.864  15.832  14.369 -0.0946  0.0824 -0.1242
 4914W        W21761  11.946   8.190  14.612  0.2249  0.0769 -0.0687
 4915W        W21762  16.423  14.906  11.364  0.0760  0.1067  0.1306
 4916W        W21763  15.951  16.446  12.193 -0.1672 -0.3036 -0.0690
 4917W        W21764   6.927   6.732  11.865 -0.1515 -0.1507  0.5075
 4918W        W21765  15.667  15.216   1.841 -0.1288 -0.0617 -0.2699
 4919W        W21766   1.234   6.529   1.937  0.2369 -0.1671  0.3638
 4920W        W21767   7.941   6.694  14.104 -0.1546 -0.2169  0.0264
 4921W        W21768   2.462  15.192  12.722 -0.3518 -0.2800  0.2504
 4922W        W21769   0.037  18.008  10.026  0.0755  0.2196 -0.0402
 4923W        W21770   8.674   6.415  12.272 -0.2791  0.1455  0.1444
 4924W        W21771   1.661   7.306   0.324  0.1126  0.1493 -0.0031
 4925W        W21772   0.030   9.457  13.781  0.0931 -0.1081  0.2876
 4926W        W21773  11.422   3.597  10.436  0.3425 -0.1072 -0.1992
 4927W        W21774  14.663  10.486   3.850  0.0153 -0.0031 -0.1990
 4928W        W21775  13.191  18.489   0.925 -0.0551 -0.1166 -0.0186
 4929W        W21776   5.758   3.093  14.764  0.3161  0.0432  0.0290
 4930W        W21777   8.186   2.064   3.330 -0.3312  0.2214  0.0506
 4931W        W21778  15.967  16.394   5.351  0.2776  0.0854  0.1030
 4932W        W21779  14.398  11.907  12.415 -0.2854 -0.0881  0.0785
 4933W        W21780  17.912  17.093  15.468 -0.2601  0.0129 -0.0815
 4934W        W21781   0.914   4.434   3.469  0.2728 -0.1138  0.1369
 4935W        W21782  16.535  10.740   3.994  0.1436  0.0741 -0.3149
 4936W        W21783   6.560   0.418   3.689  0.0248  0.0580 -0.1596
 4937W        W21784  18.376   7.213  14.400  0.2360  0.0187  0.2230
 4938W        W21785  13.267   9.475  11.121  0.0658 -0.1098 -0.0618
 4939W        W21786   0.589   1.312  11.876 -0.0727  0.1223  0.1979
 4940W        W21787  16.737  10.246   5.151  0.3997  0.1009  0.0738
 4941W        W21788   4.043   1.888  11.889  0.2116  0.1141 -0.1239
 4942W        W21789   0.664   0.602   1.886 -0.2135 -0.0630  0.0910
 4943W        W21790  12.579   4.687   5.422  0.0808  0.3246 -0.3036
 4944W        W21791   5.501   2.002  12.989 -0.0800  0.0529  0.0671
 4945W        W21792  16.129  12.987  12.410  0.1533 -0.0884 -0.1575
 4946W        W21793   5.554  17.776   0.563  0.1378  0.0014 -0.0926
 4947W        W21794  18.124  11.210  12.291 -0.3100 -0.2020 -0.4539
 4948W        W21795  10.808   7.294   4.984  0.0201  0.2328 -0.0457
 4949W        W21796   8.206   0.868   4.600  0.1879 -0.0258 -0.0297
 4950W        W21797   1.490  14.408   4.920  0.1304  0.2101 -0.2402
 4951W        W21798  14.482   8.171   2.069  0.0392  0.5983 -0.4461
 4952W        W21799  15.060   8.208  15.383  0.1012 -0.1333 -0.1882
 4953W        W21800   4.829   2.500   3.118  0.1425  0.0103 -0.0421
 4954W        W21801  17.137  16.059  13.166 -0.0425 -0.1091 -0.0905
 4955W        W21802  17.028  13.355  10.861  0.0190  0.0787 -0.0087
 4956W        W21803  10.159  13.485  13.022  0.0764  0.0154 -0.3004
 4957W        W21804  17.095   3.159   0.992  0.3245 -0.1174  0.2067
 4958W        W21805  10.878   1.558  11.580 -0.0529 -0.2257 -0.0200
 4959W        W21806   7.742   9.013   2.691  0.2180  0.1240 -0.0935
 4960W        W21807  15.035  11.233  12.875  0.1100  0.1845 -0.1011
 4961W        W21808   5.493  11.341  14.271 -0.1009 -0.3253  0.1116
 4962W        W21809  10.327  18.552   3.969  0.0386  0.1145 -0.2227
 4963W        W21810  18.599  11.130   1.583 -0.0938 -0.3141  0.0159
 4964W        W21811  14.881  11.530  11.214  0.0092 -0.0189  0.2114
 4965W        W21812  10.601   4.153   1.765  0.1096 -0.1101 -0.1219
 4966W        W21813   7.703   0.985   4.063  0.1214  0.1547 -0.3401
 4967W        W21814  14.143   5.255   4.289  0.0909 -0.1146 -0.0951
 4968W        W21815  14.401   1.709  12.680  0.2714 -0.3293  0.2221
 4969W        W21816  18.432  10.360  14.855  0.3623  0.3137 -0.2938
 4970W        W21817   4.504  15.378   1.997 -0.1243  0.3515 -0.1815
 4971W        W21818  15.028   5.042  15.243  0.0783  0.1495 -0.1823
 4972W        W21819  14.190   2.092   4.426  0.2371 -0.0306  0.2355
 4973W        W21820   4.199   0.210  15.475 -0.1137  0.0590  0.1498
 4974W        W21821  11.266  16.620  15.540  0.0891 -0.0247  0.0115
 4975W        W21822   7.906   3.649   0.882 -0.0549  0.0843  0.1029
 4976W        W21823   8.926  15.002   4.639  0.0901  0.2441 -0.1961
 4977W        W21824  17.703  17.761   1.211  0.0603 -0.0285  0.0379
 4978W        W21825  17.853   9.783   2.358  0.1709 -0.0980  0.2284
 4979W        W21826  12.197  11.185   4.434 -0.0340 -0.0369  0.1644
 4980W        W21827  15.757  17.819   4.349 -0.2326  0.1999  0.3373
 4981W        W21828  14.120  15.142   1.633 -0.2177 -0.0885  0.1537
 4982W        W21829   4.877  10.651  12.385  0.0383  0.1809  0.2771
 4983W        W21830  10.952  17.920   1.189  0.0507  0.3435  0.1414
 4984W        W21831  12.038   4.834  12.956  0.3192  0.2183  0.0991
 4985W        W21832  16.621  17.402   1.268  0.1262 -0.2183 -0.1024
 4986W        W21833  17.905   2.150  11.716  0.3545 -0.0667  0.0489
 4987W        W21834  10.894  13.871  15.137  0.0548  0.1607 -0.2416
 4988W        W21835  18.846   8.533  15.319  0.0489 -0.0669 -0.1719
 4989W        W21836  10.119  14.447  15.163 -0.0323  0.1237 -0.2471
 4990W        W21837   9.644  12.684  15.241  0.2747  0.0492  0.1394
 4991W        W21838  14.495   3.749  15.453 -0.0999  0.1350  0.1518
 4992W        W21839   2.238   1.041  11.507 -0.0377 -0.0057 -0.0429
 4993W        W21840   2.137  18.404  14.189 -0.1444  0.2226  0.0507
 4994W        W21841  18.563   8.935  10.986  0.3302  0.2345 -0.1317
 4995W        W21842  12.877  15.775  11.408  0.0819  0.0256 -0.1213
 4996W        W21843  12.376  17.545   3.994  0.1207 -0.1311  0.1970
 4997W        W21844   4.271  18.482   2.709  0.3805 -0.0211 -0.2034
 4998W        W21845  10.991  18.145  12.905  0.2173  0.1104 -0.0848
 4999W        W21846   5.560   2.363   3.328 -0.0194  0.1521  0.0368
 5000W        W21847  13.344   4.070  14.635 -0.1464 -0.0820 -0.2257
 5001W        W21848  11.458   3.154  11.627  0.0160 -0.0923 -0.3087
 5002W        W21849   5.586  18.706  13.512 -0.2157  0.2230  0.1133
 5003W        W21850  11.982   9.320   0.940 -0.4430 -0.0486  0.1175
 5004W        W21851  16.336   3.093   5.186  0.1123  0.2202  0.0436
 5005W        W21852   1.665   2.407   1.118 -0.1100 -0.0808  0.0488
 5006W        W21853   3.507  10.176   3.126  0.0855  0.0142 -0.2333
 5007W        W21854   3.959  16.933  14.467 -0.1936 -0.2489 -0.1433
 5008W        W21855  12.433  17.917  14.934 -0.0222 -0.3112  0.0394
 5009W        W21856   2.201  17.934  15.307  0.3093 -0.2542  0.2348
 5010W        W21857  11.388   4.913  14.314 -0.0801 -0.0420 -0.2086
 5011W        W21858  11.385  12.743  12.254  0.1589 -0.2101  0.0012
 5012W        W21859   8.660  13.274  10.563 -0.3230  0.2274 -0.1317
 5013W        W21860   8.078   5.761   3.712 -0.2923 -0.1565  0.0385
 5014W        W21861   1.606   8.314  14.739 -0.0711 -0.2578  0.0021
 5015W        W21862  13.220   9.930  13.783  0.1368  0.0943 -0.2255
 5016W        W21863   0.420  15.502   2.471  0.1600 -0.0644  0.1432
 5017W        W21864  17.703  10.005  13.557  0.4001 -0.3153  0.0584
 5018W        W21865  16.930   6.859   2.240  0.1553 -0.0903  0.2101
 5019W        W21866  17.580   6.999  12.224  0.2209 -0.0383  0.1109
 5020W        W21867  13.279  13.836   0.121 -0.1412  0.1745  0.0902
 5021W        W21868  17.630  10.028   1.045 -0.2709  0.1350 -0.1608
 5022W        W21869  15.665  15.106   0.128 -0.0002 -0.0446  0.2448
 5023W        W21870  13.694   7.750  11.310 -0.2733  0.1833 -0.0577
 5024W        W21871  17.859   7.047  14.833 -0.0480  0.1538  0.0193
 5025W        W21872  17.334  13.825  13.400  0.1094 -0.0334  0.1971
 5026W        W21873   3.233   5.403   3.838 -0.2431 -0.1988  0.4730
 5027W        W21874   3.812  18.498  11.700 -0.2158  0.0531  0.0214
 5028W        W21875   7.330  10.003  14.061  0.1177  0.1795  0.2285
 5029W        W21876   8.373  10.484   2.704  0.0183  0.1828 -0.3433
 5030W        W21877  14.361   8.594   4.420  0.1232 -0.0302 -0.0540
 5031W        W21878   5.649   5.468   1.035  0.1845  0.1996 -0.0816
 5032W        W21879  17.766  17.663   2.380  0.2232  0.1650  0.0730
 5033W        W21880  13.435  16.861   4.116  0.2043 -0.1298  0.1238
 5034W        W21881   3.161   7.108   0.800  0.2482  0.3371 -0.0721
 5035W        W21882  14.526   9.470  15.068 -0.0355  0.1551  0.2763
 5036W        W21883  16.068   7.318  12.670 -0.0130 -0.1204 -0.0311
 5037W        W21884   3.321   9.630   5.765 -0.1525 -0.0687 -0.1456
 5038W        W21885   0.333  13.479  13.110 -0.2377 -0.2853  0.3469
 5039W        W21886  12.775   5.638  11.341  0.0108  0.0525 -0.2704
 5040W        W21887  16.243   7.017  14.598  0.0790 -0.0070 -0.0087
 5041W        W21888   1.630   2.509  13.750  0.0618  0.1798  0.1478
 5042W        W21889   6.247  17.685  13.134  0.2801 -0.0367  0.0201
 5043W        W21890  16.145   2.632   3.140  0.3277  0.1451 -0.0119
 5044W        W21891  14.389   5.659   4.190  0.2474 -0.0021 -0.2033
 5045W        W21892   3.695   8.727  12.274 -0.0225 -0.0889  0.0856
 5046W        W21893  13.135  16.923   3.719 -0.0615 -0.0191  0.0955
 5047W        W21894   6.130   6.442  15.089 -0.1477  0.1800  0.1719
 5048W        W21895  18.132  11.013  15.345  0.0453  0.0175 -0.2111
 5049W        W21896  15.756  17.486   1.452 -0.0915  0.3333  0.0783
 5050W        W21897   1.287   0.733  11.844 -0.3039  0.1814  0.0380
 5051W        W21898  11.641   2.764   0.739 -0.2503  0.2489  0.2718
 5052W        W21899   1.142   1.133  14.320  0.1330 -0.1340  0.1069
 5053W        W21900  17.713   8.075   2.692  0.0796 -0.0680  0.1844
 5054W        W21901   1.867  12.633  12.053  0.5463  0.2027  0.1399
 5055W        W21902   3.811   4.079   1.126  0.1250  0.1299 -0.2477
 5056W        W21903   1.183  18.140   4.791  0.3139  0.0353  0.2126
 5057W        W21904   8.256   3.421   4.363 -0.3808  0.1391 -0.4261
 5058W        W21905   8.440   6.978  11.750 -0.2049 -0.1417 -0.2080
 5059W        W21906  18.257   8.938  12.282  0.0047 -0.0791  0.3090
 5060W        W21907  10.122   6.217   0.084 -0.1094  0.1263  0.2272
 5061W        W21908   3.873   4.180  15.326 -0.0828  0.0766  0.0555
 5062W        W21909  17.228  11.396  13.108 -0.0334  0.2516 -0.1092
 5063W        W21910   9.211  13.809   4.276 -0.1338  0.1117  0.1321
 5064W        W21911   4.580  16.927  13.034 -0.3195 -0.2487 -0.3896
 5065W        W21912  16.198  14.236   2.203  0.0704 -0.0928 -0.0295
 5066W        W21913   3.993  12.425   1.806 -0.4933  0.1780 -0.0164
 5067W        W21914   2.544   6.245  12.600 -0.1991 -0.1902 -0.1361
 5068W        W21915  14.075   9.508  11.730  0.1780  0.2619  0.0878
 5069W        W21916   2.321   8.686  14.038 -0.3282  0.0581  0.0139
 5070W        W21917   9.318  12.961  14.113  0.3219  0.0590 -0.1381
 5071W        W21918  10.486   1.667  12.354  0.1659  0.3688  0.1501
 5072W        W21919   7.957   8.185   4.896  0.1481  0.1975  0.1368
 5073W        W21920   6.190  13.199  14.953  0.0760 -0.3729  0.0226
 5074W        W21921  16.198   3.677  13.868 -0.0153 -0.0447  0.0347
 5075W        W21922  12.623   4.617   3.104 -0.0061  0.2807 -0.1317
 5076W        W21923  10.383   1.893   1.526  0.0427  0.0245 -0.3584
 5077W        W21924   8.979  12.546   3.109 -0.2143  0.3412  0.0183
 5078W        W21925   2.520  16.217  13.444  0.0100 -0.2143 -0.1439
 5079W        W21926   0.965   0.246   1.979  0.2631 -0.1048  0.0017
 5080W        W21927  17.418   4.296   4.196  0.0591 -0.1090 -0.0464
 5081W        W21928  16.964  12.460  10.798  0.4037  0.1351 -0.1857
 5082W        W21929  18.084  12.624   2.634 -0.1647  0.1063 -0.1012
 5083W        W21930  17.395  16.450  15.051  0.6816 -0.1577  0.1640
 5084W        W21931   7.055  15.005  11.523 -0.1245 -0.0544  0.0011
 5085W        W21932  18.073  18.209   2.239  0.1098 -0.0233  0.1041
 5086W        W21933  14.724  18.724   1.967 -0.5790 -0.4388 -0.0660
 5087W        W21934   4.690   5.329   3.105 -0.3936  0.0094  0.3028
 5088W        W21935  18.154   3.875   1.688 -0.0814 -0.1863  0.0262
 5089W        W21936  18.513  10.653  13.041 -0.2015  0.0670  0.1889
 5090W        W21937   6.919   2.813  14.011  0.2109 -0.2139 -0.1582
 5091W        W21938  18.846  12.538  12.315  0.2270 -0.0914 -0.1596
 5092W        W21939   5.317  11.047   2.410  0.0549  0.0055 -0.0245
 5093W        W21940   5.160  15.973  15.433 -0.1305  0.2612 -0.0155
 5094W        W21941  12.804  13.091  11.633 -0.0932 -0.0529  0.0409
 5095W        W21942  11.064  12.077   0.353 -0.1348  0.1005  0.0300
 5096W        W21943   1.687   6.120   5.508  0.2237 -0.3376 -0.1241
 5097W        W21944   7.815  13.629   1.712  0.0692 -0.0168 -0.0569
 5098W        W21945   1.442  17.946  10.672 -0.0057  0.1221 -0.3025
 5099W        W21946  14.874   6.268   2.340 -0.0132  0.3859 -0.0946
 5100W        W21947   4.474   8.270   0.440  0.4444 -0.0529  0.1686
 5101W        W21948   0.255  16.753   1.015 -0.0346  0.0244 -0.1749
 5102W        W21949   7.887   7.612  11.457 -0.0005  0.0044  0.1869
 5103W        W21950   3.801   6.491   1.503 -0.4309  0.1386  0.0158
 5104W        W21951  18.082  12.821  11.180  0.0427  0.3197 -0.1355
 5105W        W21952  11.360   3.865   4.200  0.3535 -0.0954 -0.2083
 5106W        W21953  10.678   1.970   0.574  0.1176 -0.1180 -0.1629
 5107W        W21954   6.798  16.607  14.872  0.1227  0.1274 -0.1867
 5108W        W21955   1.472  12.529   1.218 -0.3894  0.4010 -0.0430
 5109W        W21956  10.093  11.645   4.795 -0.2640 -0.2386 -0.0892
 5110W        W21957   6.275   2.096   2.294  0.0257  0.1095 -0.0728
 5111W        W21958   7.411  18.441  14.769 -0.0508  0.0595 -0.0603
 5112W        W21959   9.509   2.152  11.550 -0.4023 -0.0681  0.0935
 5113W        W21960   9.873  15.807   1.079  0.1352 -0.3395 -0.2986
 5114W        W21961   3.064  13.394  11.353  0.0263 -0.0731 -0.4413
 5115W        W21962  16.649   6.945   4.067  0.2278  0.1845 -0.0558
 5116W        W21963  15.065   9.633  12.463  0.0285  0.0921 -0.0421
 5117W        W21964  16.578   5.715   2.391 -0.0109  0.0834 -0.0149
 5118W        W21965   3.889  10.819   2.760  0.2759  0.0436  0.2619
 5119W        W21966   8.301  13.997  10.813  0.1130  0.0402 -0.0600
 5120W        W21967   3.591  16.313   3.396  0.2431 -0.2796  0.0527
 5121W        W21968   3.151  14.987   2.509  0.3514  0.0766  0.2260
 5122W        W21969  15.557  11.687  11.108  0.0764 -0.0274  0.2814
 5123W        W21970   2.952  12.224  12.727  0.0984 -0.0322 -0.0274
 5124W        W21971  15.058  11.166   4.227 -0.2811 -0.1539 -0.2956
 5125W        W21972   0.233   8.331   4.219  0.0668  0.0414  0.2024
 5126W        W21973   0.796  18.364   3.541  0.0562  0.2929  0.2594
 5127W        W21974   7.532   6.316   0.766 -0.0146 -0.3213  0.1393
 5128W        W21975   9.501   5.456   3.664 -0.0740 -0.0205  0.3399
 5129W        W21976   4.613  15.039  13.083  0.2267 -0.1972 -0.0433
 5130W        W21977   4.745  11.623   2.853 -0.4190 -0.2105  0.3032
 5131W        W21978   6.477   7.378   2.355  0.1289  0.3228  0.0301
 5132W        W21979  17.465   0.084   1.710  0.4526 -0.3516  0.1615
 5133W        W21980  15.270   9.219   0.164 -0.3032 -0.1972 -0.0682
 5134W        W21981  16.183   5.219  13.462  0.1563  0.1274 -0.0683
 5135W        W21982   0.490  12.148   2.174  0.1579 -0.0667 -0.2387
 5136W        W21983   0.021  12.871  14.925  0.0560 -0.0920 -0.0930
 5137W        W21984  14.881  16.967   2.941  0.4257  0.0064  0.1178
 5138W        W21985  15.907  18.321  12.282  0.3771  0.1473 -0.1500
 5139W        W21986   2.780   8.864  13.097 -0.2407  0.1278  0.1497
 5140W        W21987  11.645  16.313   1.147 -0.2936 -0.2392  0.0001
 5141W        W21988   9.878   1.274  11.195  0.1744 -0.2016  0.2622
 5142W        W21989  10.290   6.494   1.343  0.1118  0.0564 -0.1813
 5143W        W21990   1.687  10.586   0.304 -0.1558  0.0189 -0.1111
 5144W        W21991  12.156   5.442  15.303  0.2326  0.0705  0.0908
 5145W        W21992   7.155  16.628  15.226 -0.1885 -0.3387  0.2799
 5146W        W21993  10.960   4.175   6.044 -0.1079 -0.2830 -0.1874
 5147W        W21994   1.999   2.858   3.255 -0.1142 -0.1355 -0.1033
 5148W        W21995   3.314  12.671  14.599 -0.0847 -0.4056 -0.1072
 5149W        W21996  14.702   3.965   0.318 -0.1527 -0.1214  0.2183
 5150W        W21997  12.507   0.741   1.180 -0.0326  0.0422  0.1965
 5151W        W21998  14.375   4.060  11.231  0.1518 -0.3336 -0.0017
 5152W        W21999   1.248   2.999  10.762  0.0293  0.0371 -0.1311
 5153W        W22000   3.780   8.257  11.984 -0.0303  0.3293  0.0137
 5154W        W22001  13.334   4.411  13.163  0.3777  0.0466  0.1060
 5155W        W22002  14.831  10.939   3.836 -0.0116  0.3361 -0.0354
 5156W        W22003   0.778  14.607   3.721  0.2566  0.2766  0.3444
 5157W        W22004   4.130   0.152  12.746  0.1220  0.0334  0.2578
 5158W        W22005  12.273  15.161   0.816  0.3782 -0.0613 -0.0285
 5159W        W22006   2.272   0.626   0.726  0.0461  0.0247  0.0348
 5160W        W22007   2.056   8.196   3.681  0.1958 -0.2473 -0.2107
 5161W        W22008  12.572   9.566  13.151  0.3136  0.0203 -0.2372
 5162W        W22009   7.920   1.349  11.896  0.0268  0.0988  0.1360
 5163W        W22010  13.041   1.169  13.489  0.1248  0.1609  0.1797
 5164W        W22011  13.801   8.981  10.576 -0.1319 -0.0700  0.1779
 5165W        W22012   0.099  13.198   1.651  0.1376  0.1330  0.0163
 5166W        W22013   0.166   2.717   5.257  0.2249  0.0494 -0.1798
 5167W        W22014   8.135   6.622   3.452  0.1696  0.2990 -0.2323
 5168W        W22015   4.949  16.121   0.581 -0.1004  0.1032  0.2368
 5169W        W22016   2.615  16.040  15.030  0.1095 -0.0118 -0.1277
 5170W        W22017  17.572  14.518  11.162 -0.0410 -0.1049  0.2945
 5171W        W22018   5.422   0.757   4.861  0.0261 -0.0273 -0.0104
 5172W        W22019  17.662   7.740  12.526  0.1134  0.0767 -0.1140
 5173W        W22020  15.765  16.028   1.714 -0.2113 -0.0444  0.0296
 5174W        W22021   9.934  12.850  13.336 -0.0535 -0.1942 -0.2621
 5175W        W22022   0.070   3.657  11.193  0.3218  0.1202 -0.0735
 5176W        W22023   1.986   4.596  14.750  0.0030 -0.0372 -0.1148
 5177W        W22024   1.385  14.396  11.791  0.1316  0.3897  0.2321
 5178W        W22025  12.001   1.356   2.511 -0.0739  0.1226 -0.3377
 5179W        W22026   5.669   1.093   1.163  0.1741 -0.1173  0.1541
 5180W        W22027  14.980  17.894  13.227 -0.0819  0.1488 -0.2736
 5181W        W22028  17.201   0.544   3.221 -0.1441 -0.0842 -0.2414
 5182W        W22029  14.902  14.204  14.965  0.0819  0.2039  0.0102
 5183W        W22030  18.107   6.228  14.073  0.2714 -0.1874  0.0047
 5184W        W22031  14.109  16.334   4.599  0.1346 -0.1303 -0.1041
 5185W        W22032   8.161  11.579   2.983 -0.3930 -0.0452  0.3396
 5186W        W22033   7.047   1.540   5.866  0.1260 -0.1838 -0.0930
 5187W        W22034   9.588   0.724  12.518  0.0511 -0.2634 -0.0064
 5188W        W22035   3.206  13.803   5.179  0.2911 -0.2178  0.1120
 5189W        W22036   8.117  17.279   4.661 -0.0043  0.0864  0.0215
 5190W        W22037   9.503   5.426   1.222  0.0519 -0.0031 -0.0869
 5191W        W22038   5.371   1.576  15.315 -0.0250  0.0924  0.0016
 5192W        W22039  16.763  10.657  11.883 -0.0899 -0.4217 -0.0981
 5193W        W22040  14.933   9.273  12.879  0.2969 -0.4369  0.0933
 5194W        W22041  18.609   9.041  12.686  0.2069 -0.1537  0.1758
 5195W        W22042   8.813   5.889   0.421  0.0812 -0.1320  0.0314
 5196W        W22043   6.606  16.049  15.128 -0.0163 -0.3764 -0.2700
 5197W        W22044   5.593  17.329  13.670 -0.0860 -0.1896 -0.0289
 5198W        W22045  13.662  11.754   5.243  0.4003  0.3435  0.4027
 5199W        W22046   4.153   4.091  12.432  0.1703  0.0021 -0.0863
 5200W        W22047   8.992   4.450  14.340 -0.1427 -0.0333  0.0660
 5201W        W22048   8.466  10.428   3.704 -0.1002 -0.1873  0.2859
 5202W        W22049   7.172  18.577   4.079 -0.2154 -0.0207  0.0728
 5203W        W22050   6.282   0.224  12.395 -0.2303 -0.0955  0.0258
 5204W        W22051   5.355  10.403  12.215 -0.1783  0.4089  0.0156
 5205W        W22052  11.154  14.183  10.835  0.0128 -0.1911  0.1272
 5206W        W22053  15.294  18.684   1.130 -0.1034 -0.0687  0.1408
 5207W        W22054   9.409   4.052   1.601  0.1538  0.3425 -0.0685
 5208W        W22055   1.005   5.900  11.370 -0.0614 -0.0467 -0.0162
 5209W        W22056  15.259   3.071  12.781  0.0694 -0.0160  0.2646
 5210W        W22057   7.477   1.507   1.037  0.1410  0.2236  0.0639
 5211W        W22058   9.735   0.472   0.147  0.0227 -0.0781  0.1957
 5212W        W22059   0.520  17.049  14.523 -0.3980 -0.2349  0.0721
 5213W        W22060   0.944   1.247  13.858  0.1139 -0.1203 -0.0547
 5214W        W22061  18.284  17.680   1.546  0.0448  0.1962  0.2219
 5215W        W22062  18.127   2.683   2.894 -0.0020 -0.1179 -0.0165
 5216W        W22063  12.201  12.779   3.454  0.2551 -0.2616 -0.0205
 5217W        W22064  14.671   8.280   0.833 -0.1010  0.0292  0.1390
 5218W        W22065  17.463  18.618   2.283  0.2191  0.0781 -0.0779
 5219W        W22066   6.974  18.003  12.643 -0.1806  0.1508  0.2657
 5220W        W22067   0.347  13.186   5.048  0.1356 -0.0815  0.1199
 5221W        W22068   1.466  16.349  13.134  0.1970 -0.0426  0.1490
 5222W        W22069  15.290   0.056  14.083 -0.2909 -0.1081 -0.0091
 5223W        W22070  15.407  15.200   9.808 -0.2733 -0.0273  0.1482
 5224W        W22071   1.733  18.804  15.264 -0.4559 -0.0908  0.0082
 5225W        W22072   1.449  10.140  12.142  0.2733  0.0442  0.1540
 5226W        W22073  12.168  15.231  10.811 -0.1246 -0.0468 -0.2366
 5227W        W22074  14.168   6.489   5.203  0.0351 -0.0008 -0.0350
 5228W        W22075   3.283   0.928   4.840  0.0720 -0.2295 -0.1303
 5229W        W22076   2.113   6.664   4.497  0.0729  0.1339 -0.1662
 5230W        W22077   4.949   9.736   4.474  0.0597  0.0303 -0.0909
 5231W        W22078   6.705  17.919   1.136  0.0107  0.1094  0.0438
 5232W        W22079   2.491  14.045  14.271  0.1654 -0.0122  0.0556
 5233W        W22080   8.998   0.476  10.438 -0.0403  0.2046 -0.0988
 5234W        W22081  10.311   9.124  10.015 -0.1451  0.1828  0.3278
 5235W        W22082   1.318   2.110   0.522  0.0364 -0.1902  0.2105
 5236W        W22083   9.344   8.716  11.077  0.1803  0.2306  0.0455
 5237W        W22084   8.726  15.041  12.042 -0.1348 -0.0388  0.3153
 5238W        W22085  13.207  13.722   1.899 -0.0153 -0.0218  0.1025
 5239W        W22086  16.538   1.732  15.032 -0.0927  0.0963 -0.2960
 5240W        W22087   8.078   4.658   4.819 -0.2495 -0.0718 -0.1361
 5241W        W22088  17.002  16.209  12.688 -0.0488 -0.0349  0.2438
 5242W        W22089  17.382  10.540   5.463 -0.2721  0.2817  0.0027
 5243W        W22090  11.539   8.450  14.362 -0.0135  0.2708  0.1246
 5244W        W22091  17.786   9.834   5.872  0.0348 -0.1965 -0.2167
 5245W        W22092   8.095   6.202   5.627  0.1184  0.1235 -0.1105
 5246W        W22093  14.466  10.388   0.423  0.0258  0.0682 -0.3310
 5247W        W22094  13.682  17.575   1.433  0.2433 -0.2892 -0.0585
 5248W        W22095   0.446   7.021   3.771  0.0736 -0.0915 -0.1556
 5249W        W22096   8.142  14.240   0.915  0.2036 -0.1820 -0.4454
 5250W        W22097   5.539   2.399  14.050 -0.2379  0.0186 -0.0571
 5251W        W22098  12.572  16.436   4.674 -0.2365  0.0218  0.0511
 5252W        W22099   6.801   8.960  10.951 -0.0248  0.0851 -0.2293
 5253W        W22100   8.833   4.930  10.862  0.2394 -0.2997 -0.0086
 5254W        W22101  12.659  10.571   0.853 -0.3226 -0.0772 -0.0337
 5255W        W22102   0.515   3.302   2.631 -0.0219 -0.3185 -0.1316
 5256W        W22103  14.631  11.963   5.500 -0.0719  0.1295 -0.2374
 5257W        W22104  15.415  15.821  13.901  0.3173  0.0255 -0.1930
 5258W        W22105  18.387  15.864  13.879  0.2737 -0.3676 -0.1248
 5259W        W22106  13.407   2.015   4.190  0.1450 -0.0697 -0.0827
 5260W        W22107   2.135   6.616  10.848 -0.0242  0.0411  0.0491
 5261W        W22108   3.537   5.235   5.616  0.2570  0.1387 -0.4303
 5262W        W22109  15.672  13.633  14.247 -0.0835 -0.0620 -0.0339
 5263W        W22110  16.083  12.261  13.114  0.2307  0.0463 -0.3966
 5264W        W22111   1.875  18.646   2.131  0.0214 -0.1064 -0.1656
 5265W        W22112  17.338   3.676  13.369  0.4843 -0.1756 -0.2026
 5266W        W22113  10.726   8.489  14.843  0.0669  0.1858  0.1316
 5267W        W22114   6.842   8.336   1.176 -0.0758 -0.1333  0.2054
 5268W        W22115  10.125   5.677  14.887  0.0492  0.2582  0.1591
 5269W        W22116  16.384   1.364  12.570 -0.0332  0.1220 -0.1582
 5270W        W22117  10.789  12.008   2.292 -0.1509 -0.0440  0.2397
 5271W        W22118   7.938   7.285   2.675 -0.0306  0.1044  0.3609
 5272W        W22119  10.111   0.055  12.982  0.0368 -0.1525  0.0611
 5273W        W22120  16.433  14.892   4.928 -0.0701  0.3229  0.2771
 5274W        W22121  10.742   3.839  11.557 -0.1392  0.1712  0.0945
 5275W        W22122   8.272   6.856   2.631 -0.2318  0.1130  0.1512
 5276W        W22123  13.752  13.840   0.312 -0.2049 -0.1151  0.0781
 5277W        W22124   8.436  17.268   3.756  0.1476  0.1563 -0.2087
 5278W        W22125  16.486   3.541  12.326  0.0086  0.1126 -0.0142
 5279W        W22126   3.129  16.398  12.326 -0.2275 -0.0702  0.1811
 5280W        W22127   9.815   9.720   4.647 -0.1621 -0.2144  0.2517
 5281W        W22128  18.340  10.547  11.701  0.0460 -0.2299  0.2510
 5282W        W22129  16.753  14.472   0.864 -0.0419 -0.2050 -0.0720
 5283W        W22130  12.964  12.549   0.449  0.0446 -0.0502  0.0271
 5284W        W22131  14.282  13.116  12.514 -0.1028 -0.0383  0.0899
 5285W        W22132   0.288   7.656   3.478  0.3574 -0.4099  0.0400
 5286W        W22133   0.783   6.231  15.003 -0.1053  0.0370 -0.2439
 5287W        W22134   5.339   9.552   2.382 -0.1009  0.2734  0.0373
 5288W        W22135   5.311  13.349   4.427 -0.0306  0.0639  0.2294
 5289W        W22136  15.890  18.454   3.217 -0.1485 -0.0914  0.1161
 5290W        W22137  16.111   8.844  13.063 -0.3145  0.1483 -0.0241
 5291W        W22138   4.434  12.802   0.486 -0.2127  0.0086 -0.0694
 5292W        W22139  13.795  10.910   3.852 -0.0062  0.1808  0.0645
 5293W        W22140  18.180   7.819   3.581 -0.1414 -0.0295 -0.0500
 5294W        W22141  11.079  15.302  10.474 -0.1384 -0.3068  0.2060
 5295W        W22142  15.887  10.232   4.737  0.1757  0.2142 -0.3895
 5296W        W22143  13.656  16.517   3.823  0.0908 -0.2699  0.2845
 5297W        W22144  11.960   4.249  14.404 -0.0245  0.0649  0.0040
 5298W        W22145  17.585  14.403   3.461  0.0250 -0.0534 -0.0023
 5299W        W22146   7.439   4.177   4.457 -0.0868  0.0881  0.1586
 5300W        W22147   4.365  18.679   4.895 -0.0777  0.2622 -0.3922
 5301W        W22148   9.168   2.573   3.069 -0.4149  0.0848  0.0828
 5302W        W22149   6.403  11.487  13.584  0.1139 -0.1796  0.1226
 5303W        W22150  12.000   0.443  10.934 -0.1590  0.0356  0.5833
 5304W        W22151   7.151  12.262  12.584 -0.0599 -0.0444 -0.1188
 5305W        W22152  12.927   6.357  12.849 -0.1490  0.1205 -0.2915
 5306W        W22153   0.880   2.693   2.545 -0.0050 -0.1412 -0.3963
 5307W        W22154  17.393   1.896   1.820 -0.1601 -0.1481 -0.1261
 5308W        W22155   8.384  10.953   3.785  0.2272 -0.0335  0.1925
 5309W        W22156  12.532   1.658  12.064  0.1298 -0.3079  0.1289
 5310W        W22157  13.229   4.080   4.708  0.1735  0.1935 -0.1058
 5311W        W22158   0.276  17.593   1.942 -0.1093  0.4208  0.1011
 5312W        W22159  14.764   7.041   3.644 -0.1262 -0.1153  0.0429
 5313W        W22160  18.339  12.224   2.833  0.2175  0.0576 -0.1261
 5314W        W22161  17.392   0.054  10.939 -0.1615  0.1233  0.3194
 5315W        W22162  14.147   1.988  11.021 -0.2905  0.0316 -0.0142
 5316W        W22163   0.476   3.494  10.893 -0.1465  0.1134  0.0664
 5317W        W22164  16.111   3.875   4.653  0.2625 -0.0288  0.1429
 5318W        W22165   1.389   4.615   3.402 -0.0271  0.1422 -0.2471
 5319W        W22166   5.648   8.298   3.139  0.1462 -0.1376 -0.0553
 5320W        W22167  11.650   5.701   2.606  0.0095  0.2577  0.0367
 5321W        W22168   7.918   1.119  14.973  0.2137  0.2914 -0.0606
 5322W        W22169  13.507  18.066   5.255  0.1781  0.3046 -0.1349
 5323W        W22170   3.255   2.850   3.220 -0.1484 -0.0060  0.0421
 5324W        W22171  15.369   8.314  12.607  0.1065  0.0353  0.4523
 5325W        W22172   2.712  10.156   5.241  0.1323 -0.0684  0.0523
 5326W        W22173  15.833   9.276  12.267 -0.0948  0.0142  0.3735
 5327W        W22174  11.348   7.466   0.132  0.1916  0.2645 -0.3282
 5328W        W22175  18.048   9.181   4.625 -0.0692  0.0994  0.1246
 5329W        W22176   3.195   9.828  12.879 -0.0273  0.0535  0.3603
 5330W        W22177   7.437   2.709  13.270  0.1899 -0.0141 -0.2996
 5331W        W22178   9.707  18.653  15.215  0.2944 -0.2227  0.0231
 5332W        W22179  10.220   0.462   4.588  0.5613  0.0010  0.1163
 5333W        W22180   7.458   7.703  11.180 -0.1626  0.1500  0.1642
 5334W        W22181  14.546  16.512  11.182  0.0174  0.1721 -0.3374
 5335W        W22182   7.874   5.721   4.759 -0.1521 -0.3319 -0.0956
 5336W        W22183   1.639   8.258   0.031 -0.0419  0.0632  0.0417
 5337W        W22184   2.196  12.846   1.241 -0.0088  0.1813  0.2631
 5338W        W22185   2.987  18.272  14.931 -0.1004  0.1187  0.3088
 5339W        W22186  17.337   5.592   1.065  0.1749  0.2010 -0.0221
 5340W        W22187   0.365   6.882  12.850  0.1289 -0.0395 -0.1486
 5341W        W22188   0.370   5.913   3.040 -0.2213 -0.1684  0.1760
 5342W        W22189  10.818   7.970   2.634 -0.1756  0.2332  0.1272
 5343W        W22190   2.731  16.326  13.947  0.1639 -0.0523 -0.0906
 5344W        W22191   4.673  17.627   2.573 -0.4475  0.0719 -0.1404
 5345W        W22192   9.460   8.397   2.651  0.0940  0.1422 -0.1492
 5346W        W22193   0.886   9.205   1.446  0.0024  0.1672 -0.2230
 5347W        W22194  16.140   1.642   0.067  0.0049 -0.0933 -0.2398
 5348W        W22195   1.896  16.115  13.306  0.0023  0.1523 -0.0288
 5349W        W22196   9.688  11.308  13.375 -0.1586  0.0272 -0.1308
 5350W        W22197   6.713  13.661   2.667 -0.1650  0.3570 -0.1150
 5351W        W22198  14.550  10.044  11.321 -0.2970  0.2630 -0.2584
 5352W        W22199   2.306  16.839   4.434 -0.0175 -0.0717  0.0591
 5353W        W22200  17.965  13.989  14.649 -0.0430  0.0729  0.3096
 5354W        W22201   3.933  12.055   0.046  0.1989  0.0569 -0.2453
 5355W        W22202   3.560  18.611   4.187 -0.1297  0.1404  0.0099
 5356W        W22203   5.281  15.000  11.872 -0.1023  0.1823  0.0158
 5357W        W22204   6.595   6.000   0.318 -0.1897 -0.3159  0.1568
 5358W        W22205  14.667  11.637  13.084 -0.3295 -0.1385 -0.2413
 5359W        W22206  11.368  14.071   0.567  0.1763  0.1230  0.1297
 5360W        W22207   9.512   2.628   3.533  0.1274 -0.4683 -0.0041
 5361W        W22208  10.491   7.627   5.343 -0.0415  0.2099 -0.0898
 5362W        W22209  16.987  11.144   5.042 -0.0366 -0.1848  0.0870
 5363W        W22210  16.607  12.944   5.525 -0.3017 -0.1620 -0.0109
 5364W        W22211   5.238  14.926  12.744 -0.0065  0.1735  0.1286
 5365W        W22212   8.685  14.273  14.345  0.0563 -0.0816 -0.1974
 5366W        W22213  17.089   1.714  11.866 -0.1019  0.2203 -0.1397
 5367W        W22214  17.674   6.810   5.143  0.1409 -0.3480 -0.0951
 5368W        W22215  10.878   7.651   0.529 -0.1513 -0.0253  0.1329
 5369W        W22216  15.980  17.429   2.947 -0.2724 -0.0940 -0.2417
 5370W        W22217   4.288   3.031  13.955  0.0665 -0.3271 -0.1454
 5371W        W22218   2.462   7.445  11.302 -0.0331 -0.0232 -0.0254
 5372W        W22219   8.628  10.703   0.700  0.3980 -0.1438 -0.0477
 5373W        W22220  12.014  17.709  13.978  0.1225 -0.1197 -0.1599
 5374W        W22221   9.214  15.273  11.304 -0.0294 -0.1507  0.2218
 5375W        W22222   1.412  13.992   0.360 -0.1340  0.1730  0.0309
 5376W        W22223  17.679  17.265  12.670  0.2700 -0.0350 -0.0631
 5377W        W22224  14.135   6.043  14.344  0.1244  0.0064 -0.0857
 5378W        W22225   3.518  17.081   4.468 -0.1805  0.2181 -0.3601
 5379W        W22226  16.160  15.450  12.620 -0.0806  0.1825 -0.1663
 5380W        W22227   7.305  15.788   4.122  0.1467 -0.1465 -0.1190
 5381W        W22228   8.186   0.289  14.600  0.0055  0.2760 -0.1651
 5382W        W22229   1.653   9.549  15.126 -0.0187  0.2290 -0.1005
 5383W        W22230  16.730  10.935  13.944  0.1184  0.2358  0.1050
 5384W        W22231   5.637   2.762  14.379  0.1034 -0.0693  0.3068
 5385W        W22232  15.179   5.819  12.998 -0.0549 -0.0974 -0.0507
 5386W        W22233   3.627  12.379  11.611 -0.2771 -0.1537  0.4045
 5387W        W22234  14.698  18.462  14.562  0.0516  0.2454  0.0699
 5388W        W22235  15.291  10.589  15.393 -0.0282 -0.0393  0.1442
 5389W        W22236   7.966   0.801  15.531  0.1069  0.1806 -0.0480
 5390W        W22237  16.183   9.443   0.617 -0.1769 -0.0172  0.1676
 5391W        W22238  12.819  17.522  13.827 -0.1208  0.5036 -0.2186
 5392W        W22239   0.271   4.614   2.130 -0.1077 -0.0089 -0.0060
 5393W        W22240   6.530  13.738   2.157  0.0234 -0.0994 -0.2258
 5394W        W22241  14.749   7.693  15.288 -0.0444 -0.1748  0.1613
 5395W        W22242   0.204  16.322   0.467 -0.0118  0.2090  0.2671
 5396W        W22243  16.434  15.174   2.504  0.1574 -0.1597  0.2041
 5397W        W22244  16.376   2.266  11.951 -0.1500  0.4217  0.1081
 5398W        W22245  18.359   6.167   3.989  0.0607 -0.1198 -0.0811
 5399W        W22246  11.138  14.489   0.791 -0.1412  0.0082 -0.2471
 5400W        W22247  16.619   3.360  13.123  0.2737 -0.3136 -0.1647
 5401W        W22248  12.045   7.692   6.073 -0.1118 -0.0969  0.1140
 5402W        W22249   3.857  11.768   5.495  0.0567  0.0126  0.0422
 5403W        W22250   1.927  13.589   1.838  0.0560  0.0174  0.2583
 5404W        W22251   5.175   1.353   2.626 -0.0234 -0.1465 -0.0359
 5405W        W22252   1.866  11.203  14.265  0.1138 -0.2121 -0.3169
 5406W        W22253  12.780   8.860   1.037  0.0015 -0.2678  0.2824
 5407W        W22254   5.343   6.847  13.027  0.0968 -0.1699  0.0602
 5408W        W22255   4.145   4.953  14.644  0.1189 -0.1272  0.1855
 5409W        W22256  17.113   6.927  11.181  0.1205 -0.0302 -0.1556
 5410W        W22257  12.462  14.562   4.453  0.4953  0.0429 -0.0221
 5411W        W22258  18.746   6.402  12.049  0.1851  0.1881 -0.1009
 5412W        W22259  12.588  12.250  14.439 -0.2139 -0.4189  0.1786
 5413W        W22260  12.544   1.013   3.095  0.1844 -0.1316  0.0874
 5414W        W22261  16.650   3.867   4.296 -0.1383 -0.0939 -0.2171
 5415W        W22262  13.254   8.367   3.486  0.2482 -0.0520  0.0340
 5416W        W22263   5.796   2.479   0.029  0.0885  0.0223 -0.1987
 5417W        W22264  12.451  15.980  11.069  0.2319 -0.3213 -0.3521
 5418W        W22265  15.157  18.717  14.545  0.0457 -0.0794 -0.3456
 5419W        W22266  10.432   4.083   0.133  0.1046 -0.0643 -0.2734
 5420W        W22267  18.814   3.291  13.315 -0.0285 -0.0660 -0.2058
 5421W        W22268  11.515   7.970   4.803  0.0521 -0.0747  0.0160
 5422W        W22269  14.796   3.219  13.533  0.0406 -0.3197  0.0426
 5423W        W22270   3.900   2.148   2.085  0.0777  0.0188 -0.2390
 5424W        W22271   5.925   9.739   3.203 -0.1046  0.1212  0.2185
 5425W        W22272  10.062  13.367   1.786 -0.1418  0.0953  0.2955
 5426W        W22273   1.161  12.898  14.327 -0.3238 -0.0705  0.1609
 5427W        W22274  16.708  12.955   0.720  0.2508  0.0368 -0.3533
 5428W        W22275  16.397  11.476   3.581 -0.1800  0.5141  0.1510
 5429W        W22276   1.991   5.138  12.017 -0.0435 -0.1211 -0.0366
 5430W        W22277  14.125   9.083  14.561  0.1851  0.1234  0.1124
 5431W        W22278  17.305  15.563   3.695 -0.0872 -0.2694 -0.0295
 5432W        W22279   9.441  14.634   1.226 -0.0706  0.3140 -0.0266
 5433W        W22280   1.631   9.973  13.547  0.1413 -0.2230  0.2331
 5434W        W22281  16.894   1.791  14.693  0.2560 -0.1531 -0.1987
 5435W        W22282   0.108  13.285   3.255  0.0835 -0.1568 -0.0112
 5436W        W22283  12.157  18.707  15.110 -0.1276  0.0052  0.1302
 5437W        W22284   9.964   1.081   3.937  0.4467 -0.0746  0.3196
 5438W        W22285  12.320  12.800  15.418  0.0265  0.0047  0.1704
 5439W        W22286  11.471   4.599   3.377  0.2810 -0.1008 -0.3312
 5440W        W22287  14.511   2.270   1.948  0.1342 -0.2387 -0.3336
 5441W        W22288  18.077   7.633   4.089 -0.1032 -0.1264 -0.1526
 5442W        W22289  13.386   6.892   9.926 -0.0187  0.1740 -0.1473
 5443W        W22290   3.768  17.135  10.606  0.0380 -0.2075 -0.0788
 5444W        W22291   1.953   7.700   3.639 -0.1117 -0.0609 -0.1264
 5445W        W22292   1.486   1.172  12.735  0.1771  0.3707  0.0090
 5446W        W22293  12.105   0.001   6.177  0.0161  0.0104  0.2230
 5447W        W22294   7.765   3.396  13.942 -0.0640  0.0919  0.0101
 5448W        W22295   8.713   1.898  14.171  0.3442  0.0927 -0.0188
 5449W        W22296  16.286  13.808  14.272 -0.1507 -0.1463 -0.0185
 5450W        W22297   4.253   2.415  11.343  0.1145  0.0185 -0.0330
 5451W        W22298   0.233   1.187  15.501 -0.1409  0.0132 -0.5094
 5452W        W22299  15.150  14.530   4.805  0.2793  0.0412 -0.0632
 5453W        W22300   6.602   9.472   2.153 -0.0368 -0.3627  0.1927
 5454W        W22301   4.063  16.832   2.532  0.0182  0.1926  0.0249
 5455W        W22302   8.679  14.278  10.620 -0.0647  0.0582  0.0673
 5456W        W22303   2.108  14.078  11.049 -0.2485  0.3353  0.0729
 5457W        W22304  18.823  17.906   0.482 -0.0106  0.0673 -0.1500
 5458W        W22305   0.983  11.905  12.441  0.0671 -0.2506 -0.1036
 5459W        W22306   1.519   8.657  11.803 -0.3177 -0.2287  0.0279
 5460W        W22307   8.905  12.294   2.658  0.1039  0.1266 -0.2581
 5461W        W22308  15.878   5.561   3.279  0.0516  0.1005 -0.0819
 5462W        W22309   3.195  10.384   3.889  0.0307 -0.1080  0.1196
 5463W        W22310   5.410  14.811  10.983  0.1929 -0.1402  0.2399
 5464W        W22311   9.396   6.680  15.313  0.0671  0.0142 -0.0779
 5465W        W22312   8.038  10.993   4.159  0.0266 -0.3503 -0.0234
 5466W        W22313   7.580   7.147   2.010  0.1109 -0.1396  0.2792
 5467W        W22314  12.966   4.456  12.779  0.1575 -0.5053  0.1478
 5468W        W22315  13.276   2.016   3.719 -0.0779  0.0707 -0.2385
 5469W        W22316   6.149   9.391  11.478 -0.0102  0.2972  0.0607
 5470W        W22317   2.779   7.658  15.042 -0.0992 -0.0938 -0.0373
 5471W        W22318  10.790   6.940   2.787 -0.0258 -0.1449 -0.1191
 5472W        W22319  16.789  15.805   4.207 -0.0844  0.2012  0.0558
 5473W        W22320  11.222   3.795   1.285 -0.3250 -0.0061 -0.2707
 5474W        W22321  13.474   2.543  15.046 -0.1292 -0.1249  0.0703
 5475W        W22322   7.013   5.290  11.485 -0.2250 -0.0931  0.2351
 5476W        W22323  14.686  10.352  11.666 -0.0833  0.1742 -0.2139
 5477W        W22324   2.831  15.875   2.408 -0.0514 -0.0122 -0.0951
 5478W        W22325  15.204  11.834  11.457  0.0330 -0.0042 -0.2797
 5479W        W22326   6.481  16.278   4.118  0.2303 -0.2794  0.0851
 5480W        W22327  12.222  11.988  10.721  0.0891  0.3456 -0.1709
 5481W        W22328  12.547   1.922  12.521  0.0389 -0.1182 -0.1157
 5482W        W22329   1.073  14.096  12.562 -0.0005 -0.0147  0.1077
 5483W        W22330  13.313  14.265   1.899 -0.2301 -0.1629 -0.0097
 5484W        W22331  14.953   2.257  13.204 -0.0234  0.0032  0.1304
 5485W        W22332  17.079  17.280   3.588  0.2483 -0.0981 -0.0905
 5486W        W22333  10.842   5.656   3.884 -0.0042 -0.1847 -0.1514
 5487W        W22334   9.015  10.685  10.448  0.1539 -0.1280 -0.0803
 5488W        W22335  10.711  11.899  10.920 -0.0437  0.1444  0.3102
 5489W        W22336  10.645   1.159  15.533 -0.1358 -0.0226 -0.1113
 5490W        W22337   2.631   5.770  11.933 -0.2573  0.2146 -0.1252
 5491W        W22338   9.580   1.695   3.485  0.3540  0.2482 -0.4642
 5492W        W22339   4.360   5.250  14.129 -0.0240  0.1771  0.0785
 5493W        W22340  14.686   0.639   0.544  0.1380 -0.1343  0.1200
 5494W        W22341  16.054   3.192  11.605 -0.3803 -0.2100 -0.0634
 5495W        W22342  11.708  13.445  10.642 -0.1716 -0.0420  0.2572
 5496W        W22343   8.450  14.395  11.070 -0.3346  0.0249  0.1714
 5497W        W22344  15.182  15.263   0.127 -0.1179  0.1006 -0.2181
 5498W        W22345   1.245   3.172   3.787 -0.5006  0.2099 -0.0399
 5499W        W22346   8.383   5.995  12.172  0.0465 -0.0944 -0.0558
 5500W        W22347   6.746   4.729  13.693 -0.0529  0.1832  0.1708
 5501W        W22348  12.117   4.538  13.997 -0.1648  0.1675 -0.1942
 5502W        W22349  12.699   6.598   4.489 -0.0528  0.0062 -0.1204
 5503W        W22350  13.237   4.589  15.340 -0.0785  0.1710 -0.0488
 5504W        W22351   8.515  10.924   2.536 -0.0772  0.4355 -0.0779
 5505W        W22352   0.541   9.687   0.235 -0.2279 -0.0071 -0.0386
 5506W        W22353  15.155   8.705   0.049 -0.0556 -0.2883  0.0002
 5507W        W22354   2.621   9.434   1.595  0.2748  0.1232  0.1294
 5508W        W22355  11.462   9.637   2.911 -0.1474 -0.1801 -0.1127
 5509W        W22356  10.332  10.174   0.917 -0.1044 -0.1134  0.0870
 5510W        W22357   6.834   9.932  12.942 -0.0745 -0.0837 -0.0324
 5511W        W22358   9.061   6.801   1.724 -0.1254  0.1534  0.1330
 5512W        W22359   8.483   5.591  15.063  0.0804  0.0942  0.0793
 5513W        W22360   3.422   7.010  15.513 -0.1342 -0.3794 -0.1600
 5514W        W22361  14.522  11.119   1.751 -0.1530 -0.0112  0.1874
 5515W        W22362  16.098  16.716  10.752  0.3088  0.1017  0.1645
 5516W        W22363   0.238   6.586   0.694 -0.1006 -0.6207 -0.1894
 5517W        W22364  13.919  12.467  11.781  0.0848  0.0236  0.3280
 5518W        W22365   4.921   4.275  13.231 -0.2940 -0.2353 -0.1813
 5519W        W22366   6.036  14.388   2.009 -0.1300 -0.0948  0.0525
 5520W        W22367   9.543  15.157  12.676  0.1922  0.1450  0.1968
 5521W        W22368  11.850  17.878  15.289 -0.2245 -0.0066  0.1614
 5522W        W22369   1.289   2.536   0.759 -0.0208 -0.1902  0.1003
 5523W        W22370   4.102   0.318   0.817  0.0630  0.0999  0.0323
 5524W        W22371  12.836   3.021  15.319 -0.0322 -0.1155 -0.0012
 5525W        W22372   6.697   1.162  14.762 -0.3462  0.1286  0.1984
 5526W        W22373  17.407   5.961   5.806  0.0326  0.2820 -0.0133
 5527W        W22374   4.220  15.326   0.956  0.1162  0.2257 -0.5143
 5528W        W22375   3.734   4.714   2.804 -0.2720 -0.0271  0.0624
 5529W        W22376  15.905  14.067  12.497  0.0104 -0.0714 -0.0294
 5530W        W22377   0.074  10.370  11.306  0.3119 -0.0349  0.0438
 5531W        W22378  15.119   7.734  14.160  0.1695 -0.0071 -0.2580
 5532W        W22379   9.753   3.693  13.906  0.1964 -0.1929  0.2938
 5533W        W22380  15.764   0.579  10.065 -0.3204  0.0892 -0.0254
 5534W        W22381  10.409   5.948  11.092 -0.3471  0.0933  0.2395
 5535W        W22382   7.279   6.199  11.945  0.2168  0.0518 -0.2226
 5536W        W22383  15.827   7.879   0.198  0.2183 -0.1046 -0.0756
 5537W        W22384  18.390  17.519  12.744  0.3466  0.0879 -0.3002
 5538W        W22385   0.595  16.582  11.276 -0.0964 -0.0520 -0.1497
 5539W        W22386  15.743  16.178  13.125  0.0705  0.3709 -0.2032
 5540W        W22387   5.033   2.507   1.012 -0.1973 -0.0621 -0.0251
 5541W        W22388   5.281   1.123  10.721 -0.2730  0.1120  0.3103
 5542W        W22389  13.361  12.864   1.183 -0.1063 -0.2074 -0.0171
 5543W        W22390   5.592   5.078   0.692 -0.0222 -0.1053  0.0580
 5544W        W22391   3.496   1.582   3.683 -0.0400  0.0037 -0.0842
 5545W        W22392   7.101  13.341   2.753  0.1898  0.2192  0.0814
 5546W        W22393  12.534   4.423   1.488  0.0264 -0.1451 -0.0390
 5547W        W22394  13.555   4.363  12.744 -0.3006 -0.1075  0.3291
 5548W        W22395  18.738   9.758   3.441  0.2335  0.0008  0.2080
 5549W        W22396   9.016   7.115   5.251  0.3436  0.0769  0.0299
 5550W        W22397   5.476   5.478  14.802 -0.0515 -0.0120 -0.0371
 5551W        W22398   8.416  12.621  15.342 -0.4373  0.0485  0.1877
 5552W        W22399  13.952  13.291  14.805 -0.1562  0.0581 -0.0544
 5553W        W22400   9.566   3.330   4.635  0.2239 -0.2037  0.0581
 5554W        W22401   7.982  15.293   2.749  0.0817 -0.0213 -0.2666
 5555W        W22402  16.550  11.913   2.126  0.1027  0.1121 -0.1415
 5556W        W22403  10.495   8.763   3.125  0.2312  0.1728 -0.1920
 5557W        W22404   4.958  10.778   1.538  0.0623 -0.1247 -0.1664
 5558W        W22405  12.023  16.361   2.445 -0.1124  0.3115 -0.0014
 5559W        W22406   2.585  14.623  14.960 -0.1157 -0.1868  0.1343
 5560W        W22407  17.856  15.972   2.091 -0.0707  0.0006  0.0790
 5561W        W22408  10.704   5.807   3.419 -0.0275 -0.1999 -0.1313
 5562W        W22409   2.166  10.057  12.735 -0.0057 -0.2031  0.1178
 5563W        W22410  16.461  12.578  13.698 -0.4803  0.0675 -0.1130
 5564W        W22411   8.420  13.753  11.909  0.3169  0.1362  0.0630
 5565W        W22412   7.687   8.755   3.188  0.0252  0.0627 -0.0418
 5566W        W22413  13.023   2.508  13.158  0.0427  0.1649 -0.1695
 5567W        W22414  18.473   7.941   0.559 -0.0106  0.0369 -0.0540
 5568W        W22415   2.805   2.897  13.735  0.0761 -0.0227  0.0571
 5569W        W22416   6.531   6.307   1.299  0.1245  0.0337  0.4638
 5570W        W22417   7.680   4.195  14.376 -0.1782 -0.0089 -0.0192
 5571W        W22418  14.514   1.958  11.801 -0.2606 -0.3473  0.0340
 5572W        W22419   4.664  16.192   1.476 -0.0839 -0.0368  0.1551
 5573W        W22420  13.044   6.816   2.335 -0.1281 -0.1246 -0.1143
 5574W        W22421  12.315   0.085  10.996 -0.0820  0.0716  0.2249
 5575W        W22422  16.580   7.281  14.941 -0.0406  0.5397 -0.1233
 5576W        W22423   1.842   8.565  10.886  0.3107  0.1709 -0.0283
 5577W        W22424  18.102  11.692  14.649  0.0607  0.1923  0.1694
 5578W        W22425  10.678  18.544  12.212 -0.0027 -0.3528 -0.1979
 5579W        W22426   8.222  16.081  13.032  0.0155 -0.0922 -0.1446
 5580W        W22427   6.817   5.609   0.502 -0.2350 -0.0590  0.1532
 5581W        W22428  11.784   1.968  13.269  0.3845  0.2585 -0.1070
 5582W        W22429   7.621   3.581  12.989 -0.5428  0.0266  0.2046
 5583W        W22430  18.803  13.679   4.263 -0.0126 -0.0989  0.1275
 5584W        W22431  15.835   2.131  15.162 -0.1321 -0.2122  0.0371
 5585W        W22432  17.467  14.262  12.422  0.4151 -0.0756 -0.4484
 5586W        W22433   1.180   8.637   2.609  0.2285  0.1021  0.0609
 5587W        W22434   6.399  14.225  13.016  0.2516 -0.1965  0.3950
 5588W        W22435   4.901   0.603   0.949  0.1452  0.0197  0.1268
 5589W        W22436   8.232  11.910   5.530 -0.0423 -0.0570 -0.2074
 5590W        W22437   8.110  18.530  10.944 -0.0488  0.0705  0.0581
 5591W        W22438  11.323   8.097   5.423 -0.0525  0.0883  0.3116
 5592W        W22439   0.277   8.210  14.120  0.1019 -0.0279 -0.0109
 5593W        W22440   9.627  17.027   1.007  0.3522 -0.0318 -0.1823
 5594W        W22441  17.408   8.654  14.228 -0.1117  0.1141 -0.0869
 5595W        W22442   4.105  10.035   4.462  0.2681 -0.0810 -0.2368
 5596W        W22443  14.294   1.587   5.144 -0.2229 -0.1580 -0.1727
 5597W        W22444   0.502   0.614   0.774 -0.0515 -0.3480 -0.0040
 5598W        W22445   0.203  13.513  14.458 -0.3169  0.0130  0.2249
 5599W        W22446  17.588   6.533  14.845  0.0057  0.1815 -0.2403
 5600W        W22447   3.869   1.892  13.599 -0.1295  0.0459 -0.3783
 5601W        W22448   0.321  13.011  13.223  0.2610  0.1582  0.0521
 5602W        W22449   3.485  15.513   1.789  0.1514 -0.0417 -0.1195
 5603W        W22450  18.758  13.869  14.229 -0.4417  0.0749 -0.0762
 5604W        W22451  16.439   4.704   2.913  0.0052 -0.1299 -0.0891
 5605W        W22452   1.165   8.824   1.145 -0.0758 -0.1544  0.1588
 5606W        W22453   0.268  12.894   2.214  0.2037  0.1855  0.0156
 5607W        W22454   1.420   9.341   0.532 -0.0822  0.1869 -0.1240
 5608W        W22455  16.586   0.052  14.588 -0.0345 -0.0898 -0.1181
 5609W        W22456  12.577  17.608  15.444  0.1309 -0.0038 -0.1843
 5610W        W22457  14.850   9.409  13.355 -0.2275  0.0926  0.0610
 5611W        W22458  17.503   5.196   0.240 -0.3474  0.0393  0.0030
 5612W        W22459  13.876   8.104  14.352 -0.0967 -0.0577 -0.1050
 5613W        W22460  16.348   7.873   4.737  0.0315  0.0741 -0.2414
 5614W        W22461  14.476  17.325   0.490 -0.1345  0.1192 -0.0451
 5615W        W22462  13.655  13.343  10.694 -0.2384  0.0013 -0.0738
 5616W        W22463   9.955   0.391  12.657  0.3242  0.3321 -0.3987
 5617W        W22464  13.757   6.454  11.664 -0.0057 -0.4244 -0.0235
 5618W        W22465   6.033  14.695   3.231  0.1588  0.3623 -0.0469
 5619W        W22466  13.971   5.308   1.117 -0.1167 -0.0105  0.2066
 5620W        W22467  15.551   8.228   0.864  0.0215  0.0074  0.1711
 5621W        W22468   0.885  12.212   3.810 -0.0639 -0.2465  0.2638
 5622W        W22469  17.002   2.673  15.498  0.0246 -0.0838 -0.1524
 5623W        W22470   5.324   2.110  14.446 -0.1086  0.0982  0.2541
 5624W        W22471   1.600  16.083  12.284  0.0646 -0.0442 -0.1618
 5625W        W22472  10.048   6.318   2.413  0.0813 -0.1321 -0.0339
 5626W        W22473  17.024   5.483  15.061 -0.0164 -0.0905 -0.2904
 5627W        W22474   0.815  10.884   2.736  0.2448  0.2464 -0.0154
 5628W        W22475   0.938   6.955   2.221 -0.2139 -0.4378 -0.0015
 5629W        W22476  10.498   7.519   1.290  0.1408  0.0676  0.0479
 5630W        W22477  12.313  14.668   2.311 -0.1757  0.0694  0.0492
 5631W        W22478  17.231  14.665  11.507 -0.0012  0.1176  0.1326
 5632W        W22479  12.912   7.576  11.504  0.0121 -0.0384 -0.0874
 5633W        W22480   6.659   7.412  15.389  0.1892 -0.0802 -0.0696
 5634W        W22481  17.309  12.571  15.518 -0.2212  0.0868  0.5219
 5635W        W22482  13.165  11.484   4.463  0.0777 -0.0678 -0.4704
 5636W        W22483  18.624   8.281   2.800 -0.0380  0.2032 -0.2631
 5637W        W22484  14.435  13.879   2.812  0.2581 -0.2522  0.0714
 5638W        W22485  15.747  18.285  10.495  0.3900 -0.4883 -0.3307
 5639W        W22486   4.869   8.620  13.221 -0.0540  0.2247 -0.0131
 5640W        W22487   9.551  17.743   4.521  0.1583 -0.0210 -0.1995
 5641W        W22488  12.156   9.616  11.193 -0.0072 -0.1387 -0.0193
 5642W        W22489   2.124   5.958  12.802  0.1193 -0.2347 -0.0795
 5643W        W22490  15.130   6.811  14.504 -0.3914 -0.1219  0.2741
 5644W        W22491  18.292   4.764   0.483  0.3312 -0.1523  0.1795
 5645W        W22492  10.092   0.939  13.961  0.1008 -0.3109 -0.3297
 5646W        W22493  14.403  14.589   2.225  0.2404  0.4740 -0.0491
 5647W        W22494  11.403   3.384  12.055 -0.1406  0.1879 -0.0324
 5648W        W22495   9.046  13.541  11.495  0.4770 -0.3298  0.4942
 5649W        W22496  15.325   6.112   5.219  0.1727 -0.3121  0.1113
 5650W        W22497   5.930  15.282   4.285 -0.0819 -0.0221  0.0476
 5651W        W22498   3.765  13.681   4.444  0.0791  0.0254  0.0010
 5652W        W22499   4.357   7.839   2.025 -0.0789  0.2414  0.2052
 5653W        W22500   8.802  13.956  11.669  0.1678  0.0249  0.1545
 5654W        W22501   0.753   5.968   2.055 -0.0293 -0.5028 -0.1324
 5655W        W22502  10.131   1.329   0.649 -0.0242 -0.1603  0.2361
 5656W        W22503   7.539  12.262   2.970  0.1381  0.0447  0.1721
 5657W        W22504   8.544  14.673   0.348  0.1084 -0.2046 -0.0425
 5658W        W22505  10.988  15.444   3.963 -0.0174  0.2403  0.2682
 5659W        W22506  17.784  12.177   6.029  0.0003 -0.1263  0.1959
 5660W        W22507   8.039   3.568  11.621 -0.1102 -0.0609  0.0412
 5661W        W22508   6.256   9.838   2.792 -0.0363 -0.0517  0.3532
 5662W        W22509   0.873  14.711   0.397 -0.2157 -0.1526  0.1721
 5663W        W22510   7.669   8.886  12.270 -0.2270  0.4889  0.1363
 5664W        W22511  11.202   2.148  12.817 -0.0367 -0.0974 -0.0578
 5665W        W22512   8.907   9.335  12.818 -0.1046  0.0232  0.0167
 5666W        W22513  11.121   5.174   6.202 -0.2261  0.3558 -0.2041
 5667W        W22514  16.127  17.189  14.531 -0.0263 -0.0256  0.0797
 5668W        W22515   0.498   8.073   2.736 -0.0354  0.0666  0.3076
 5669W        W22516   1.226   2.246  15.395  0.1546  0.0047 -0.0155
 5670W        W22517  11.208   4.446   2.123 -0.0327  0.4422  0.0354
 5671W        W22518   0.789  12.002  13.381 -0.1728 -0.0796 -0.0397
 5672W        W22519   9.944  18.792  13.546 -0.1060 -0.0579 -0.0978
 5673W        W22520  12.798   4.289   4.557  0.1829  0.1276 -0.0841
 5674W        W22521  13.390   7.386  13.662  0.2385  0.2246 -0.2326
 5675W        W22522  14.612  14.947   0.779  0.1916 -0.1178 -0.0999
 5676W        W22523  18.191   4.158   5.544  0.0616 -0.2235  0.2988
 5677W        W22524   9.766  17.336  14.572 -0.0837  0.0333  0.3551
 5678W        W22525   9.006  16.220  14.178 -0.0181  0.0532 -0.2643
 5679W        W22526   2.977  17.228   2.464  0.1204 -0.0555 -0.0643
 5680W        W22527   3.494  17.210   0.346  0.0681  0.0801 -0.3586
 5681W        W22528  14.336  13.321   4.178 -0.3401 -0.0603  0.0361
 5682W        W22529  10.431  17.192   4.114  0.1602 -0.2001  0.0478
 5683W        W22530  13.912   1.670  14.439 -0.1404 -0.1280 -0.1718
 5684W        W22531  16.511   9.040   1.226 -0.0207  0.5616  0.2216
 5685W        W22532  16.439  15.007  15.156 -0.0066 -0.0569 -0.2259
 5686W        W22533   1.671  13.482  12.428  0.1007  0.0261 -0.0623
 5687W        W22534  11.831   7.366   0.329 -0.0130  0.1062 -0.1350
 5688W        W22535   0.392   3.629  14.886  0.1377  0.4938  0.1167
 5689W        W22536  12.004   4.696   4.682 -0.0876  0.3634  0.2545
 5690W        W22537   1.008   0.060  13.694 -0.1417  0.1506 -0.1596
 5691W        W22538  15.663   9.864  13.136  0.0163 -0.2256 -0.0094
 5692W        W22539  10.371   0.640   0.640  0.0090 -0.0847 -0.2869
 5693W        W22540  13.880  16.695   4.330 -0.1169 -0.0237 -0.1431
 5694W        W22541  11.428   2.853  15.401  0.0299  0.1498 -0.2200
 5695W        W22542   4.490  16.409  14.894  0.0123  0.1971  0.1129
 5696W        W22543   7.383   6.673   2.098  0.1277  0.1977 -0.0771
 5697W        W22544   0.231  11.289  13.669  0.1711  0.0604 -0.0106
 5698W        W22545   0.107  14.726   5.046 -0.0195  0.1606 -0.1080
 5699W        W22546   9.811   4.185   3.351  0.0637  0.1857 -0.2673
 5700W        W22547   7.092   3.204   0.956 -0.0627  0.3472  0.1489
 5701W        W22548  16.756   0.429   4.836 -0.0309  0.1111 -0.3093
 5702W        W22549   8.795   9.008   2.883  0.1021 -0.1673 -0.0648
 5703W        W22550   1.303  15.292  11.158  0.2806 -0.1218 -0.2250
 5704W        W22551  14.755  11.454   5.593  0.3462  0.0233  0.0871
 5705W        W22552   3.807  18.501   2.912  0.0147 -0.0093  0.0521
 5706W        W22553  18.711   6.693   4.305 -0.1069 -0.1642 -0.0500
 5707W        W22554   2.552  15.465  13.152 -0.2606 -0.0455  0.1797
 5708W        W22555   1.337   4.300   3.784 -0.0903 -0.0259 -0.1340
 5709W        W22556   0.455  17.442  11.173  0.0577 -0.0637 -0.8506
 5710W        W22557  11.395   4.261   1.618 -0.1647 -0.0196  0.0434
 5711W        W22558   9.508  15.781   0.254  0.1375 -0.0757 -0.2524
 5712W        W22559  18.614   7.661   3.971 -0.0127 -0.0911  0.0954
 5713W        W22560  13.444  15.726   4.202  0.3886 -0.0668 -0.0527
 5714W        W22561  17.849   5.437  10.646 -0.0768  0.0693  0.2039
 5715W        W22562  18.623   4.725  13.092  0.0438  0.0186 -0.0583
 5716W        W22563  16.322   2.198  14.824  0.2240 -0.0247  0.2102
 5717W        W22564   2.692   8.260   4.437 -0.2520  0.3164 -0.1737
 5718W        W22565  13.050   8.216  11.048  0.0539 -0.2557 -0.1877
 5719W        W22566  15.154  12.494   1.504 -0.0717  0.1361 -0.1915
 5720W        W22567   4.293   5.531  15.345 -0.0525  0.2410 -0.0019
 5721W        W22568   0.081   2.272   4.219 -0.0672 -0.1605 -0.0258
 5722W        W22569  10.425   0.262   5.122 -0.2651  0.2910 -0.0022
 5723W        W22570  17.624   6.727   1.791 -0.1250  0.0823 -0.2318
 5724W        W22571  16.588  13.681   4.260  0.0786  0.0384 -0.0627
 5725W        W22572   7.035  10.769   2.372 -0.0841 -0.0658  0.0004
 5726W        W22573  17.669   6.272   4.622  0.0284 -0.1965  0.0454
 5727W        W22574  14.515   2.653   4.782 -0.0993  0.0755  0.1152
 5728W        W22575  14.418  11.694   1.495  0.0171 -0.0987 -0.0695
 5729W        W22576   4.610   8.917  11.929  0.0347 -0.0152 -0.0944
 5730W        W22577  14.545   1.176   2.209 -0.2017 -0.0078 -0.1684
 5731W        W22578   9.296  18.784  13.454 -0.2730  0.0543  0.1578
 5732W        W22579  10.096   8.761  10.355  0.3503  0.1563  0.0469
 5733W        W22580  16.620  10.091   0.723  0.0850 -0.2017  0.2465
 5734W        W22581  17.374   0.697  13.629  0.2009  0.0485  0.1149
 5735W        W22582  12.183  13.359   5.296  0.2876  0.0563  0.1024
 5736W        W22583   8.850  14.408  11.399 -0.2474  0.2135  0.1681
 5737W        W22584   4.175   4.364  11.883 -0.0526  0.2486  0.3640
 5738W        W22585  18.177  14.097   4.725  0.0316  0.1804 -0.0624
 5739W        W22586   1.422   0.282  15.448  0.2827 -0.0492 -0.2044
 5740W        W22587  11.833   8.645  11.441 -0.2671  0.3183  0.1471
 5741W        W22588   8.665   0.020   2.630 -0.1477 -0.2241  0.1039
 5742W        W22589   8.546   5.712  14.460 -0.0593  0.1682 -0.0364
 5743W        W22590  10.302  13.448   4.648 -0.2285 -0.0381  0.0651
 5744W        W22591   6.780   9.425   1.376 -0.0988  0.1622 -0.1247
 5745W        W22592   2.815  17.713  11.126 -0.2579 -0.2215 -0.0245
 5746W        W22593  15.197  17.397   3.080 -0.3681 -0.1251  0.1722
 5747W        W22594   3.421   1.256  15.104 -0.1868  0.0964  0.0117
 5748W        W22595  16.902  13.631  14.638  0.0262  0.2324  0.0775
 5749W        W22596   9.583   0.929   0.047  0.3509  0.0207 -0.0465
 5750W        W22597  10.733  17.438  11.352  0.0421 -0.3354  0.3407
 5751W        W22598  16.170   4.869   4.960  0.1640  0.0084  0.2319
 5752W        W22599   0.440   2.103   0.173  0.1092  0.4153  0.0182
 5753W        W22600  18.298   9.784  11.476 -0.2585  0.0061  0.1413
 5754W        W22601   7.987   2.197  12.372 -0.0175  0.1535 -0.1351
 5755W        W22602   4.396  11.059  11.559  0.1763  0.0163 -0.0680
 5756W        W22603   9.527   6.689  14.816  0.3689 -0.1692 -0.0171
 5757W        W22604   2.547  17.888   1.815  0.0852 -0.1915 -0.0707
 5758W        W22605   1.212  10.729  12.327 -0.0332 -0.2417 -0.4201
 5759W        W22606  18.051  13.261   4.089 -0.1116  0.0258 -0.2309
 5760W        W22607   5.000   0.030  10.673  0.1919  0.4486  0.0873
 5761W        W22608   2.533   5.983  13.120 -0.4678 -0.3148  0.2279
 5762W        W22609  13.377   6.051  14.411 -0.2515  0.2904  0.1429
 5763W        W22610  11.871   9.747  15.488 -0.1049  0.1850 -0.1493
 5764W        W22611  11.523  14.748   4.455  0.0963  0.0369 -0.0995
 5765W        W22612   5.937   3.034  13.202 -0.1115  0.0149 -0.0002
 5766W        W22613  18.442   0.560   4.213 -0.2288 -0.2395 -0.1706
 5767W        W22614   5.870   6.275   1.326 -0.0744 -0.2219  0.0926
 5768W        W22615  11.432  15.749   1.122 -0.1079 -0.1500  0.0387
 5769W        W22616  12.129  10.008   5.319 -0.1363 -0.3180  0.0852
 5770W        W22617  12.734  16.879   2.651 -0.2983 -0.1102 -0.3027
 5771W        W22618   3.189   0.667   4.431  0.1257  0.0051  0.0510
 5772W        W22619   5.884  13.015  12.840  0.0505  0.0537 -0.2889
 5773W        W22620   7.714  10.302  10.939 -0.2865  0.1589 -0.1631
 5774W        W22621   2.673  18.098   2.502 -0.2612 -0.2287  0.0864
 5775W        W22622   2.589  16.022   3.183 -0.0156 -0.2274  0.0223
 5776W        W22623   9.282   6.167   2.272  0.0671 -0.0405 -0.3083
 5777W        W22624  11.265  11.856  11.006 -0.0886 -0.0340  0.0331
 5778W        W22625  10.432   5.645  11.790  0.0641 -0.0175  0.2916
 5779W        W22626  13.873  10.406  15.012 -0.0101 -0.1769  0.1039
 5780W        W22627  14.837  17.263  10.747 -0.1272 -0.1281  0.2973
 5781W        W22628  14.734   9.421  13.935 -0.0353 -0.1993 -0.1913
 5782W        W22629  14.174   8.446   3.634 -0.1285 -0.3898 -0.1634
 5783W        W22630   7.010   6.822   2.981  0.2373  0.1213 -0.1335
 5784W        W22631  10.811  11.654  14.200 -0.0239  0.1419  0.0031
 5785W        W22632  17.005  16.801  12.312 -0.1669  0.1465  0.0127
 5786W        W22633  17.160   2.407  14.087 -0.0885 -0.2482  0.2415
 5787W        W22634  13.927  17.805  12.210 -0.0828  0.1107 -0.0656
 5788W        W22635  11.656   6.844  12.166 -0.0196  0.0316  0.1533
 5789W        W22636   7.867   7.243  13.959  0.1296  0.0138  0.2043
 5790W        W22637  12.654   2.923   3.431  0.0360 -0.0578 -0.2661
 5791W        W22638  13.520   2.877  11.322  0.0985  0.1932  0.0485
 5792W        W22639  10.249  15.178   4.838 -0.1185 -0.3609 -0.1497
 5793W        W22640   8.252   4.114   2.128 -0.2651 -0.1561  0.1938
 5794W        W22641   3.646   8.589   0.299  0.1914 -0.6334 -0.2019
 5795W        W22642  12.299   1.080  12.260 -0.0468 -0.1331  0.2694
 5796W        W22643   8.287   8.275   9.875 -0.1146  0.0969 -0.0178
 5797W        W22644   0.005  15.970  12.184 -0.0443 -0.3156 -0.2158
 5798W        W22645  17.467   1.386  12.629  0.1882 -0.1048  0.1765
 5799W        W22646  18.599  17.370   4.436 -0.2633 -0.1937 -0.0620
 5800W        W22647   8.835  12.548   4.853 -0.1781  0.2568  0.4032
 5801W        W22648  15.660   7.364  10.479 -0.1761 -0.0659  0.0179
 5802W        W22649   5.749  14.364   1.126 -0.0707  0.2345 -0.0531
 5803W        W22650   5.235   3.356  12.629  0.1541 -0.0234 -0.2160
 5804W        W22651   0.669  15.178   1.687  0.4732  0.1373 -0.0421
 5805W        W22652   6.586   8.627   0.819  0.3795 -0.0970  0.2593
 5806W        W22653  11.070   5.119   1.649  0.1113 -0.1992 -0.3241
 5807W        W22654  18.393  16.111   4.569 -0.0635 -0.1474 -0.4404
 5808W        W22655   5.497   4.825   1.583  0.1251  0.1878 -0.2837
 5809W        W22656  13.538   1.250   0.719 -0.3399 -0.2497  0.1518
 5810W        W22657   9.734  14.198  11.723  0.3275  0.1475  0.2449
 5811W        W22658   8.843  15.963   5.126 -0.2408  0.2499  0.3207
 5812W        W22659   5.979  18.381   0.840 -0.1917 -0.1406 -0.5353
 5813W        W22660   5.654   7.654  12.832 -0.1687  0.1870 -0.1797
 5814W        W22661  10.055   8.120   2.435 -0.4880 -0.0447 -0.2397
 5815W        W22662  17.090  12.248   4.882  0.0223 -0.0290 -0.2004
 5816W        W22663   7.696   1.987   2.035  0.3282 -0.0062 -0.1263
 5817W        W22664   0.960   2.168  13.538 -0.4058  0.0995  0.2482
 5818W        W22665   7.617  13.912  12.346  0.1605  0.0798 -0.0455
 5819W        W22666  16.844  15.377   5.941  0.2636  0.2651 -0.1189
 5820W        W22667   3.647   5.029   0.756  0.0642  0.1208 -0.1466
 5821W        W22668   7.888   7.841   2.568  0.4470  0.0929  0.0833
 5822W        W22669  12.245   6.296   2.285  0.2222 -0.1623 -0.1628
 5823W        W22670   3.243   8.011   4.564 -0.0110  0.3002 -0.1897
 5824W        W22671   2.790   4.414  14.544 -0.1275  0.2548 -0.0026
 5825W        W22672   8.373  12.080  15.459  0.0060 -0.2150 -0.0828
 5826W        W22673  18.565   3.803  10.765 -0.1544  0.2049  0.2041
 5827W        W22674   7.063  10.643   3.690 -0.2917  0.1686 -0.2141
 5828W        W22675   8.652  16.488  14.399  0.3008 -0.1000 -0.2016
 5829W        W22676  15.301   6.303  15.273 -0.1227 -0.0754 -0.2402
 5830W        W22677   1.473   9.861   3.576  0.1679 -0.0371 -0.1850
 5831W        W22678  16.143   0.455  13.203  0.0027  0.0682 -0.2889
 5832W        W22679   8.706  16.851  15.526 -0.0234 -0.1369 -0.0932
 5833W        W22680   7.238   2.212  15.419 -0.1639 -0.0955  0.1437
 5834W        W22681   0.794   8.637   2.136 -0.1477 -0.3587  0.2051
 5835W        W22682  16.687   8.287  13.666  0.3125 -0.0657  0.2942
 5836W        W22683   4.099  16.470  14.575  0.1224 -0.3617 -0.4301
 5837W        W22684   1.063  12.279   4.274 -0.0106  0.0659 -0.2790
 5838W        W22685   8.181  18.719  14.200  0.1443 -0.3714 -0.0113
 5839W        W22686   1.372   0.852  10.720 -0.0441  0.0817  0.1224
 5840W        W22687  13.134   8.348   4.127 -0.0903 -0.2112  0.1043
 5841W        W22688  15.715  18.254  12.742 -0.1647  0.3153 -0.2650
 5842W        W22689  17.522  18.393  13.368 -0.1238 -0.2007  0.0856
 5843W        W22690  11.521   7.960  14.460 -0.2377  0.0815  0.0128
 5844W        W22691  13.271   0.727   0.537 -0.0373 -0.1949  0.0398
 5845W        W22692   0.451  10.795   4.795  0.1907  0.3502 -0.0905
 5846W        W22693   3.740  11.776   1.319 -0.1203  0.2328 -0.0267
 5847W        W22694  15.579  16.682  10.798 -0.0426  0.2870 -0.0903
 5848W        W22695   8.384   7.266   2.896 -0.1821 -0.1097 -0.2120
 5849W        W22696   1.416   5.941  12.084  0.1382 -0.0505 -0.0718
 5850W        W22697   6.298   8.887  15.304 -0.2903 -0.1900 -0.2640
 5851W        W22698  16.041  11.438  14.690  0.1016  0.0424 -0.0773
 5852W        W22699   0.575   2.534  10.983 -0.2569 -0.0560  0.0534
 5853W        W22700   1.752   9.263   4.635  0.1735 -0.0518  0.0077
 5854W        W22701   2.600   2.015   2.151  0.1899 -0.1394 -0.4329
 5855W        W22702  15.056  13.615  13.432  0.1533  0.0055 -0.0045
 5856W        W22703  13.164  17.930   3.542  0.3186 -0.5785  0.3365
 5857W        W22704   0.820   1.083   2.042 -0.0753 -0.0334  0.0014
 5858W        W22705   3.567   7.389   1.205  0.2230  0.2143 -0.0068
 5859W        W22706  16.232   8.977   0.783  0.0558  0.2797 -0.2429
 5860W        W22707   4.742  13.859  13.839  0.0389 -0.0244  0.2495
 5861W        W22708   1.804  12.339   2.636  0.1698 -0.0469 -0.0538
 5862W        W22709  10.845  15.381   5.582  0.3416 -0.0959 -0.0820
 5863W        W22710   4.780   1.847  11.995  0.0727  0.2743  0.1347
 5864W        W22711   9.903  16.482   3.984 -0.0181  0.2482  0.0760
 5865W        W22712  17.407  18.783  11.419  0.0509  0.1135 -0.2677
 5866W        W22713   4.553   3.945  13.259 -0.2211  0.1604 -0.0837
 5867W        W22714   6.202  16.566  14.579 -0.2094  0.1832  0.1276
 5868W        W22715   7.742  10.399   4.935 -0.1524  0.0763 -0.2043
 5869W        W22716   4.543   6.798   0.776  0.1706 -0.1449  0.2733
 5870W        W22717   4.913   6.455   2.276  0.1023 -0.2240 -0.1712
 5871W        W22718  10.562   7.606  13.464 -0.1500 -0.0948  0.1328
 5872W        W22719  13.423   7.933   3.746 -0.3263  0.0967 -0.0270
 5873W        W22720   8.584  11.583  11.994 -0.0901 -0.3619  0.2158
 5874W        W22721   4.531  15.367  10.664 -0.1721 -0.1169  0.0440
 5875W        W22722   8.530  11.758  15.102  0.1760  0.0833 -0.3103
 5876W        W22723  18.374   7.200  11.353 -0.2217  0.1529 -0.0693
 5877W        W22724  15.229  11.074  12.019  0.0208  0.3985  0.1354
 5878W        W22725  14.592   0.344  15.144 -0.0346 -0.1279 -0.0841
 5879W        W22726  15.258   3.978  13.059 -0.2870 -0.0360  0.0998
 5880W        W22727  10.664   0.686   1.940 -0.0481  0.0675 -0.0258
 5881W        W22728   6.084  14.249  12.037  0.1319  0.1173  0.0731
 5882W        W22729  16.789   2.984  13.343  0.3283  0.1467  0.3393
 5883W        W22730  16.113   6.990   0.905  0.1222  0.0458  0.2154
 5884W        W22731  12.329   9.320   4.437 -0.1886 -0.2427  0.1881
 5885W        W22732   4.082  10.161  11.380 -0.1478  0.2888  0.0730
 5886W        W22733  10.670  18.515   5.807 -0.0132  0.2818  0.3073
 5887W        W22734   3.958   7.785   1.435  0.1433 -0.1799  0.0743
 5888W        W22735   8.321   0.713  14.222  0.0687  0.0123 -0.0019
 5889W        W22736  15.137   8.359   4.557 -0.2489  0.0752  0.1512
 5890W        W22737  10.803   6.188  12.998 -0.2661 -0.0388  0.0847
 5891W        W22738   4.448  11.605  11.613  0.1810 -0.0150  0.1172
 5892W        W22739  10.187   7.914   5.099  0.3289 -0.3506 -0.0369
 5893W        W22740  17.483  18.119   1.549 -0.0245 -0.0414  0.2258
 5894W        W22741   8.912   2.377  11.947  0.0302  0.2871 -0.2507
 5895W        W22742   6.549   8.258  14.875 -0.2765  0.1938 -0.3377
 5896W        W22743  15.093  15.689  15.399 -0.1380 -0.1223 -0.0227
 5897W        W22744   4.414  14.343   1.342  0.1168  0.1056 -0.0099
 5898W        W22745  16.310   1.586   1.875 -0.1504  0.2898  0.3151
 5899W        W22746   4.899   8.612  15.155 -0.2774 -0.1096  0.1290
 5900W        W22747  15.559  11.021  15.307 -0.2291 -0.0296 -0.3553
 5901W        W22748  15.003  10.588  14.982 -0.1853  0.2120 -0.0665
 5902W        W22749   6.168  17.990   1.058 -0.1835  0.1973 -0.1127
 5903W        W22750   1.872   1.898   1.846  0.2208 -0.1154  0.2667
 5904W        W22751  10.972   3.398   1.543  0.1269 -0.0420 -0.4216
 5905W        W22752  12.914  13.841  13.840 -0.2219  0.1021 -0.3231
 5906W        W22753  17.229  10.801   1.894 -0.1788 -0.0946 -0.2430
 5907W        W22754  18.700  16.903  11.783  0.3257 -0.1928 -0.2172
 5908W        W22755  18.821  15.948  13.649  0.0120  0.2234 -0.0091
 5909W        W22756   1.219  15.298   4.029  0.0943  0.1819 -0.1864
 5910W        W22757   1.476  14.018  12.210  0.0140 -0.0375 -0.0153
 5911W        W22758   1.058  18.284   2.620  0.2808 -0.0702  0.4393
 5912W        W22759   0.303   0.845   3.318  0.1527  0.0909 -0.1002
 5913W        W22760   3.567   5.650  14.938 -0.0960  0.3104  0.0778
 5914W        W22761   0.728   7.490  12.146  0.3710  0.0070 -0.3274
 5915W        W22762  17.794  17.087   2.486 -0.1650 -0.0151  0.0587
 5916W        W22763  17.211   7.706   3.676  0.2307  0.3289  0.3877
 5917W        W22764  12.412   3.039  14.130  0.0133 -0.0233  0.2236
 5918W        W22765   3.789   3.946   0.637  0.0989  0.1677 -0.0910
 5919W        W22766   6.106   9.148   3.414  0.4370 -0.1255 -0.2909
 5920W        W22767   8.562  15.958  14.455 -0.3053 -0.3285  0.0679
 5921W        W22768  11.126   3.408  12.734 -0.0253 -0.0797 -0.0277
 5922W        W22769   8.290   5.869   0.239 -0.1321  0.0206  0.1778
 5923W        W22770   8.955  13.550   2.791  0.0082  0.1078  0.2122
 5924W        W22771  13.441  12.611   1.884  0.2201 -0.0427  0.1621
 5925W        W22772  15.284  13.045   4.230  0.1721 -0.1435  0.0830
 5926W        W22773   9.156  10.968   0.943  0.3426 -0.0373 -0.0054
 5927W        W22774   0.537   7.046  13.829 -0.1298 -0.1085 -0.0519
 5928W        W22775  12.967   0.314   3.835 -0.3146 -0.0514  0.1380
 5929W        W22776   6.099  17.437  14.798 -0.2451 -0.0739  0.0082
 5930W        W22777   4.813   0.367  10.358 -0.0820  0.0934 -0.1382
 5931W        W22778   3.045   6.469   1.932 -0.2545  0.2641 -0.1622
 5932W        W22779  11.797   3.696   4.420  0.2793  0.4170  0.1687
 5933W        W22780  18.203  10.074   1.011 -0.0236 -0.0471  0.0251
 5934W        W22781  16.099   4.208   3.548  0.1704  0.1223  0.0389
 5935W        W22782   2.830  18.409   3.677  0.0544 -0.1927 -0.0347
 5936W        W22783   5.137   5.796   4.174 -0.0855 -0.1018 -0.0400
 5937W        W22784   9.362   4.446  12.715  0.1926  0.1981 -0.2250
 5938W        W22785  16.644  14.111  13.094  0.3300 -0.0628 -0.2206
 5939W        W22786   1.211   8.825   5.867  0.1421  0.0602 -0.1704
 5940W        W22787  17.266  10.980  15.506  0.2374 -0.0430 -0.2492
 5941W        W22788  13.145  15.832   0.410 -0.2301 -0.3184  0.1224
 5942W        W22789   4.335  15.207  11.070 -0.2839  0.4292  0.1150
 5943W        W22790   0.909  15.113   3.711 -0.0522  0.1342 -0.1634
 5944W        W22791   3.631   8.061  11.168 -0.1224  0.0204  0.1217
 5945W        W22792   2.777   1.469   4.092 -0.1922 -0.0419  0.0987
 5946W        W22793   3.607  10.556   1.100  0.0134  0.1635  0.1492
 5947W        W22794   6.022   9.805   1.503  0.0889 -0.1236 -0.0567
 5948W        W22795  17.601  16.254   4.369  0.0681 -0.1715 -0.0042
 5949W        W22796   7.419  13.489  12.294 -0.0163 -0.0494  0.0576
 5950W        W22797   3.152  17.376   4.739 -0.2834 -0.2697  0.1655
 5951W        W22798  18.094   2.006  15.181 -0.0434  0.0600 -0.0240
 5952W        W22799  13.100   4.319   1.491 -0.0409 -0.1012 -0.0753
 5953W        W22800   5.568   6.458  11.347 -0.2980  0.0495  0.2343
 5954W        W22801  11.559  12.679  14.829  0.0378  0.1467 -0.0186
 5955W        W22802   8.257   6.523   4.328 -0.1735  0.3325 -0.0131
 5956W        W22803  12.209  13.055   0.659  0.2425  0.2128 -0.2868
 5957W        W22804   6.792   3.959   5.128 -0.1829  0.2776 -0.1946
 5958W        W22805   8.189   7.004   1.594 -0.0329 -0.2622 -0.1563
 5959W        W22806   7.896   1.322   4.407  0.0728  0.0167 -0.2495
 5960W        W22807   6.083  14.695   3.751  0.2237 -0.1418  0.2136
 5961W        W22808   0.106   0.321   0.735  0.3119  0.0767 -0.0399
 5962W        W22809   9.489   5.711   2.177 -0.1647  0.2442 -0.0124
 5963W        W22810   6.504  15.466   2.084  0.0923 -0.1276 -0.1746
 5964W        W22811  12.288   8.692  13.482  0.1646 -0.0582 -0.0898
 5965W        W22812   6.355  18.210  14.358 -0.0500 -0.2281  0.0411
 5966W        W22813  13.559   3.892  15.136 -0.1917  0.0181 -0.2913
 5967W        W22814  10.931  10.434  14.130 -0.2409 -0.1736  0.3983
 5968W        W22815   4.832   9.032   2.160 -0.1767 -0.0621 -0.0607
 5969W        W22816  10.094  15.982  12.864  0.1440 -0.1537  0.1895
 5970W        W22817   2.185   7.130  12.181 -0.2129  0.2617  0.2899
 5971W        W22818   3.289  17.625  14.557  0.0872  0.0442 -0.1664
 5972W        W22819   3.645   1.709  14.920 -0.0699 -0.0811  0.1263
 5973W        W22820   9.966  11.992  11.124 -0.1055  0.0485 -0.0668
 5974W        W22821   5.593   1.310   3.818  0.1965  0.2644 -0.0050
 5975W        W22822   3.621   6.166   5.672 -0.2226 -0.0054 -0.0081
 5976W        W22823   4.452  12.449   3.530  0.0286 -0.1095 -0.2083
 5977W        W22824   8.303  12.406  11.745  0.1162 -0.4029 -0.2512
 5978W        W22825  18.134   5.917  15.400  0.1322 -0.0806  0.1032
 5979W        W22826  15.624  13.743   0.226 -0.4643  0.0399 -0.0336
 5980W        W22827  12.956  14.463  10.726 -0.0684  0.3613  0.1530
 5981W        W22828  15.273  17.046  10.721  0.1118  0.0069 -0.0440
 5982W        W22829  11.372   9.582  15.228 -0.2425  0.1631  0.3121
 5983W        W22830  17.806  14.083   4.328 -0.0735  0.1312 -0.2946
 5984W        W22831  18.327  10.981  13.913  0.0273 -0.0031  0.1371
 5985W        W22832  13.526   4.719   5.746  0.1805 -0.1365 -0.1307
 5986W        W22833   4.889   8.469   5.129  0.0918 -0.0647  0.0162
 5987W        W22834   0.428   6.566  15.120 -0.2722  0.0866  0.2324
 5988W        W22835  16.953   7.339   3.905  0.1104 -0.2858  0.1045
 5989W        W22836   1.271  16.791   3.093 -0.1765 -0.1184  0.1148
 5990W        W22837   7.296   9.263  13.108 -0.2982  0.0352 -0.0419
 5991W        W22838  13.543  13.641   1.188 -0.1192  0.1005 -0.1646
 5992W        W22839   0.961   1.729   0.896  0.1964  0.1312 -0.0589
 5993W        W22840  16.248   0.288   0.332 -0.1127 -0.3151  0.0780
 5994W        W22841   6.425  16.152   0.590 -0.2319  0.0519 -0.1431
 5995W        W22842  10.682  16.761   1.840 -0.0849  0.0827 -0.2503
 5996W        W22843   0.271  10.632   0.024  0.0549  0.1590 -0.0216
 5997W        W22844  10.322  13.075   0.125  0.1694  0.0723 -0.0696
 5998W        W22845   9.549   2.931   0.082 -0.2527  0.0882  0.0114
 5999W        W22846   3.709   3.800   0.157  0.0233  0.1871 -0.4713
 6000W        W22847   3.520  13.841   2.864  0.2450 -0.1887  0.1120
 6001W        W22848   5.294  14.850   0.365 -0.1175  0.3361 -0.1565
 6002W        W22849  15.539   4.022   3.918 -0.1548 -0.0854 -0.1242
 6003W        W22850   2.093  16.700   3.910 -0.0357 -0.2030 -0.0568
 6004W        W22851  14.328  11.555  15.033  0.1074  0.0418  0.0050
 6005W        W22852  11.037  15.950  12.198 -0.1503 -0.3888 -0.0449
 6006W        W22853   9.284  15.385  15.546 -0.0582 -0.2473  0.0758
 6007W        W22854   4.964   6.061   3.272  0.1029  0.0229 -0.0476
 6008W        W22855   0.089   2.532   4.795 -0.1538  0.0689  0.0260
 6009W        W22856  10.563   1.063  14.151  0.2192 -0.2517  0.3072
 6010W        W22857   2.221   9.753   1.513 -0.1519 -0.2028 -0.0482
 6011W        W22858   5.375  11.680  12.332  0.0931 -0.4763  0.3778
 6012W        W22859   1.159   6.883   5.539  0.3181  0.0620 -0.1086
 6013W        W22860   7.987   2.751   1.679 -0.1560  0.1515 -0.2011
 6014W        W22861  10.936   7.589   3.421 -0.0608 -0.1739  0.3770
 6015W        W22862  18.734   8.595  14.738 -0.1392 -0.0533 -0.0875
 6016W        W22863  15.930   0.045   5.258 -0.1239  0.3606  0.0792
 6017W        W22864   9.710   4.392   0.424  0.1851 -0.0130 -0.5072
 6018W        W22865  10.963  10.516   2.060  0.2018  0.2026 -0.1194
 6019W        W22866  13.613   5.641  11.867  0.4185 -0.0977 -0.0786
 6020W        W22867   2.237   1.307  12.703 -0.0256 -0.0313  0.0101
 6021W        W22868   3.091   6.375  13.478  0.0238  0.1442 -0.0495
 6022W        W22869  18.163   2.223   3.847  0.0980 -0.0083 -0.0725
 6023W        W22870   7.117   1.123  15.054  0.5292 -0.3453 -0.0167
 6024W        W22871   5.555  16.602   1.476  0.2480  0.2146 -0.0272
 6025W        W22872  12.562  12.415  11.930 -0.0011  0.3007  0.0500
 6026W        W22873   8.624   8.285   1.657 -0.1660  0.0840 -0.0206
 6027W        W22874   6.803  18.091  10.577  0.0088  0.0283  0.0850
 6028W        W22875  16.093  13.463  11.121 -0.1976  0.1984  0.0426
 6029W        W22876   7.164   6.423   3.902  0.0716 -0.0950  0.0210
 6030W        W22877   2.336  11.916  12.149 -0.3369 -0.4069  0.1006
 6031W        W22878   9.323   2.621   2.450  0.3198 -0.0239 -0.2268
 6032W        W22879  16.671   9.560  10.504 -0.0783  0.0348  0.0028
 6033W        W22880   9.667  17.426   1.709 -0.2095  0.1915  0.1184
 6034W        W22881  12.618  13.356  12.812  0.1624 -0.1008 -0.1892
 6035W        W22882  10.702  15.530   4.913  0.0816 -0.1863 -0.2732
 6036W        W22883   5.689   7.974  13.262 -0.2738  0.1695 -0.4570
 6037W        W22884  18.406  18.453   5.615  0.0635  0.1304 -0.0270
 6038W        W22885  13.353  14.276  13.917 -0.0283 -0.0865  0.1274
 6039W        W22886  11.096  18.696  13.146  0.1563 -0.0615  0.1874
 6040W        W22887   6.421  16.221   0.089 -0.1466 -0.1008 -0.0917
 6041W        W22888  13.235   0.589   4.224  0.0701 -0.0581 -0.3918
 6042W        W22889  12.540   5.968  12.092 -0.1646 -0.0982 -0.0138
 6043W        W22890  13.527  15.341  14.105  0.1265 -0.0570 -0.0758
 6044W        W22891   2.165   9.194   2.657  0.1036  0.1281  0.1732
 6045W        W22892  10.654  11.963   1.275  0.2012 -0.2156 -0.0187
 6046W        W22893   2.623   1.318   1.950 -0.0979  0.0994  0.2752
 6047W        W22894  13.682  10.243  13.249  0.0684 -0.0047 -0.0454
 6048W        W22895  17.110   5.534   2.275  0.1006 -0.2237  0.0506
 6049W        W22896   0.518   6.522   3.564  0.0377  0.1116  0.1108
 6050W        W22897  17.326   0.400  13.094 -0.2885 -0.0069  0.0835
 6051W        W22898   0.280  17.334   2.335 -0.1411 -0.2883 -0.0149
 6052W        W22899   8.916   8.000  15.044  0.3431  0.0100 -0.2540
 6053W        W22900  10.330  18.502   2.066  0.1297  0.0563  0.0502
 6054W        W22901   6.647  11.148   2.564  0.2556 -0.2025 -0.0412
 6055W        W22902  17.234   1.987   4.920  0.0224 -0.1490  0.0275
 6056W        W22903   2.095   6.694   1.677  0.1557 -0.0751  0.4887
 6057W        W22904   3.301   2.299  13.165  0.1772  0.0775  0.4635
 6058W        W22905   3.000   7.779  13.084 -0.1164  0.0644 -0.2674
 6059W        W22906   8.469   7.358   1.866  0.1083 -0.3305  0.4861
 6060W        W22907   5.173   8.069   0.373 -0.1229  0.2354  0.0024
 6061W        W22908  10.909  13.203   2.024 -0.0316  0.1357  0.3408
 6062W        W22909   1.969  17.535  11.215 -0.0700  0.1849 -0.1772
 6063W        W22910   9.290  12.462  13.467 -0.1500  0.2211 -0.0857
 6064W        W22911   4.889  12.650   4.668 -0.0077 -0.1470 -0.4198
 6065W        W22912   3.366   5.766   1.331 -0.3174  0.0523 -0.3278
 6066W        W22913   7.507   6.906   0.806  0.1351 -0.0237  0.0603
 6067W        W22914   4.744  14.122  11.898  0.1411  0.0302 -0.1197
 6068W        W22915   5.221  13.780   1.949  0.0258 -0.2289 -0.1028
 6069W        W22916  18.397   4.373  13.781 -0.0311 -0.1814 -0.1368
 6070W        W22917  10.790  13.754  12.941  0.2201 -0.1501  0.1318
 6071W        W22918  17.264   9.963   2.190  0.0611  0.0038  0.1782
 6072W        W22919   1.792  10.140   4.724  0.2637 -0.1302  0.1065
 6073W        W22920  16.796   8.226   4.604  0.0774  0.2525 -0.2421
 6074W        W22921  10.801   1.610  13.969  0.0175  0.0350  0.0852
 6075W        W22922   0.503  15.180   1.166  0.0172  0.0002  0.0208
 6076W        W22923  11.686   0.938   0.848  0.1393 -0.1111 -0.1999
 6077W        W22924   3.144  10.616  14.244 -0.3930 -0.0015  0.1665
 6078W        W22925  15.737   2.561   0.076 -0.0517 -0.0687 -0.0473
 6079W        W22926   3.875   6.903  14.329 -0.1405  0.0195  0.2155
 6080W        W22927   2.954   5.052   2.458 -0.3400  0.0126  0.3527
 6081W        W22928  15.019   7.766  14.622 -0.1701  0.1754  0.1133
 6082W        W22929   1.454  15.345   2.071  0.1751 -0.2747  0.2375
 6083W        W22930  14.670  12.313  12.268  0.1416  0.0768 -0.2020
 6084W        W22931   7.534   0.988   2.295 -0.0622 -0.1689  0.1449
 6085W        W22932   1.617   2.092   4.891 -0.1049 -0.0422  0.0969
 6086W        W22933  16.737  11.290  13.015 -0.2323 -0.0996  0.1509
 6087W        W22934  14.533   7.188   0.162  0.1953  0.1923 -0.2970
 6088W        W22935   2.881  13.376  14.592 -0.2651  0.0668  0.0273
 6089W        W22936  12.223   9.577  15.084  0.4970  0.0539 -0.2677
 6090W        W22937   5.809   8.987  13.966  0.0558  0.0657  0.0684
 6091W        W22938   7.614  14.686   4.945 -0.0277  0.1187 -0.3819
 6092W        W22939   2.162  17.123  13.829 -0.1669 -0.1535 -0.0253
 6093W        W22940  10.893   2.988   5.347  0.1414  0.1642 -0.1986
 6094W        W22941  13.373   8.298  11.468  0.1688 -0.3444  0.0756
 6095W        W22942   8.467   5.355   3.735  0.0125 -0.2865  0.0213
 6096W        W22943   8.651  14.667   3.553  0.0441 -0.2320 -0.0194
 6097W        W22944   4.350  11.568   3.171 -0.0024  0.0819 -0.0686
 6098W        W22945  11.049   1.487   5.593 -0.0430 -0.0135  0.0111
 6099W        W22946  13.624  12.242   3.209  0.0296 -0.2671  0.3264
 6100W        W22947   3.187  12.773   4.121  0.1541  0.2783  0.2051
 6101W        W22948  16.387  13.449  15.178  0.2345 -0.0333 -0.0027
 6102W        W22949  10.428  10.002   1.864 -0.0599 -0.1062 -0.2615
 6103W        W22950   1.039  13.734  11.065  0.5452  0.1908  0.0015
 6104W        W22951  16.449  15.381  13.042 -0.2043  0.1684 -0.0888
 6105W        W22952   8.988  16.399   0.888 -0.0744 -0.0704 -0.0887
 6106W        W22953  10.712  10.572   1.042 -0.0553  0.2134 -0.0013
 6107W        W22954  13.467   1.695   0.512 -0.0587 -0.4282  0.1994
 6108W        W22955   0.142   0.187   3.196  0.2207 -0.2456  0.1161
 6109W        W22956   5.735  17.103   4.718 -0.1605 -0.0578  0.1422
 6110W        W22957   2.152   7.247   2.689 -0.2469  0.0705 -0.2891
 6111W        W22958  17.639   6.455   3.238 -0.2937 -0.2772 -0.0150
 6112W        W22959   5.596   7.242  12.503 -0.2810  0.0777  0.1068
 6113W        W22960   0.107   6.182   0.870 -0.0231  0.3009  0.0694
 6114W        W22961   7.271   6.465   4.871  0.0258  0.1030  0.1408
 6115W        W22962  10.589   2.103   3.476 -0.5126  0.2496  0.1222
 6116W        W22963   1.027   7.499  14.496  0.0652 -0.1010 -0.1548
 6117W        W22964   3.452  17.018  13.909  0.2107 -0.1490  0.2500
 6118W        W22965   0.912   0.902   3.560  0.0730  0.3782  0.1820
 6119W        W22966   6.891   0.960  12.442 -0.2068  0.0792 -0.2689
 6120W        W22967  18.431  13.162  10.458  0.1277 -0.0634 -0.1152
 6121W        W22968  11.352  16.213  13.917  0.3149  0.3101  0.0504
 6122W        W22969  16.517   2.608   1.412  0.2453  0.0438  0.0041
 6123W        W22970   6.044  18.620  15.213  0.0240 -0.0370  0.3493
 6124W        W22971   9.785  12.863   3.441  0.0828 -0.0359 -0.1636
 6125W        W22972  12.390  14.768   3.240  0.2098  0.0860  0.3399
 6126W        W22973  12.066   8.743   3.089  0.2393  0.0876  0.1046
 6127W        W22974   0.391   5.021   2.588 -0.0722  0.0963 -0.0637
 6128W        W22975   9.963   1.966  11.597 -0.1129 -0.0430 -0.0370
 6129W        W22976  13.739   8.593  11.314 -0.0955 -0.1388  0.0003
 6130W        W22977   6.844  13.368   3.197 -0.2702 -0.2459 -0.1160
 6131W        W22978  17.256   0.698   3.857  0.1888 -0.1761  0.0393
 6132W        W22979  15.922   6.582   1.402  0.1410  0.1895  0.4719
 6133W        W22980  16.010   3.564  11.958  0.1234  0.3617  0.2232
 6134W        W22981   4.393  17.663  13.245  0.2404 -0.1639  0.0795
 6135W        W22982  17.260  14.276   3.119  0.0140  0.2401  0.1181
 6136W        W22983  18.333   4.311  11.985  0.1642 -0.2021 -0.1314
 6137W        W22984   5.862  14.313  15.293  0.0962  0.0284  0.0813
 6138W        W22985  11.356  17.866  12.678  0.0088 -0.0700  0.1144
 6139W        W22986   4.471  12.323   0.504 -0.0547 -0.1847  0.0776
 6140W        W22987   7.353  12.393  10.690 -0.1468 -0.3278  0.4773
 6141W        W22988   8.008  15.300  13.832  0.1859 -0.3189 -0.0409
 6142W        W22989  14.334   8.324   0.390  0.0432  0.0548 -0.1129
 6143W        W22990   3.090   0.429   1.547  0.2937  0.1502 -0.0777
 6144W        W22991   4.232   4.146   3.830  0.0387  0.1477 -0.1326
 6145W        W22992  13.754  11.608  13.133 -0.2773 -0.2941 -0.1015
 6146W        W22993  13.824   2.904   4.222  0.4695  0.0507 -0.1760
 6147W        W22994   4.132  10.223  15.260  0.1557  0.2085 -0.1069
 6148W        W22995  16.872  18.799   0.911 -0.0612  0.0591  0.1600
 6149W        W22996   1.815  16.015  15.127 -0.0032  0.1213  0.2313
 6150W        W22997   4.156   3.665  13.126 -0.0690  0.2341 -0.1013
 6151W        W22998   5.873  16.616  12.871  0.1350  0.0481  0.0654
 6152W        W22999   2.916   6.353   4.923  0.1240  0.0480 -0.0022
 6153W        W23000  18.443  14.588   1.116 -0.2001  0.0567 -0.0460
 6154W        W23001  14.869   5.179   2.085 -0.4872 -0.2111 -0.0550
 6155W        W23002  10.956   6.097  12.293  0.1573  0.3939 -0.0467
 6156W        W23003   3.976  14.185  12.348 -0.0467  0.1195 -0.0502
 6157W        W23004   3.240  14.451  11.752  0.0371 -0.2004 -0.0881
 6158W        W23005  12.190   4.588   4.081  0.1755 -0.1515  0.0450
 6159W        W23006  18.561   4.175   4.124 -0.3877  0.1467 -0.5229
 6160W        W23007   1.003  18.751   2.348  0.1378  0.3616  0.1028
 6161W        W23008  16.336  16.162  11.914  0.3380  0.2500  0.2892
 6162W        W23009  13.660   7.229  14.996  0.2116 -0.1236  0.0320
 6163W        W23010  12.542   8.664   1.526  0.1733 -0.2128 -0.0255
 6164W        W23011  10.448   4.831   3.589 -0.2007  0.1967  0.0035
 6165W        W23012   2.462   7.244   0.480 -0.0727 -0.2645  0.0130
 6166W        W23013  12.520  11.419   2.502  0.1915  0.4340 -0.0273
 6167W        W23014  16.915   8.582  15.173 -0.0546  0.3035  0.1567
 6168W        W23015  15.953  10.029  12.734 -0.0007 -0.2208  0.4943
 6169W        W23016   0.569  14.709   1.835  0.0024 -0.2773 -0.0935
 6170W        W23017  14.385   5.045   3.021 -0.1333 -0.1441  0.1248
 6171W        W23018   6.227   3.001  12.304  0.4096  0.0215  0.0463
 6172W        W23019  12.259  10.753  15.353 -0.1980 -0.1322 -0.1190
 6173W        W23020  14.749   8.574   2.262 -0.0258 -0.0440  0.0938
 6174W        W23021   3.508   9.306   4.746 -0.1828  0.0222 -0.1638
 6175W        W23022   9.906   2.030  14.891  0.1472 -0.1224 -0.0670
 6176W        W23023   8.615   6.886   1.955  0.1612  0.0390  0.3758
 6177W        W23024   9.621  10.649  13.117  0.3408 -0.3259  0.0857
 6178W        W23025   1.181  18.371  12.917  0.3731 -0.2471  0.0096
 6179W        W23026  13.358   5.879   0.148 -0.2031 -0.2378 -0.3629
 6180W        W23027  18.049  16.028  12.146  0.3756  0.2421  0.1417
 6181W        W23028  11.541   9.899  11.226 -0.1009 -0.1644  0.0307
 6182W        W23029   0.310   7.638   2.872  0.1207  0.2556 -0.3081
 6183W        W23030  18.484  12.931   3.443  0.0214 -0.0276  0.1693
 6184W        W23031  14.533   1.150  11.312 -0.0013 -0.1821  0.2436
 6185W        W23032  16.733   8.965   5.467  0.0270  0.1559  0.2171
 6186W        W23033  15.013  16.442   0.315 -0.1474 -0.3921  0.1049
 6187W        W23034   0.584  14.361  13.678  0.1828 -0.1501  0.3303
 6188W        W23035  15.807   3.084  12.859 -0.0145  0.2705 -0.2574
 6189W        W23036  13.508  14.967  14.937 -0.2253  0.0547  0.0834
 6190W        W23037   7.321   8.014  14.727 -0.1083  0.3999 -0.0574
 6191W        W23038  11.038  17.989   5.065 -0.0802 -0.0490 -0.1236
 6192W        W23039   3.773   0.204  11.851 -0.3009  0.2379  0.0561
 6193W        W23040   6.038   4.648   2.540  0.1208  0.0798  0.0541
 6194W        W23041   2.055  12.802   2.892  0.2598  0.0087  0.2154
 6195W        W23042   1.741  14.475   4.387  0.0966 -0.2144 -0.4907
 6196W        W23043   1.846   3.582  11.546 -0.2054  0.0724  0.0843
 6197W        W23044   1.755   4.355   2.229  0.2001 -0.2347  0.0298
 6198W        W23045  17.792   1.665   4.849  0.1621 -0.1852 -0.2244
 6199W        W23046  11.794   5.696   5.053  0.0715 -0.0951 -0.0447
 6200W        W23047   4.907  15.888  15.015 -0.1858  0.1252  0.1350
 6201W        W23048   7.394  11.922  12.931 -0.1942  0.2918  0.0751
 6202W        W23049  12.576   5.506   2.894  0.3164 -0.0775 -0.1336
 6203W        W23050  10.838  18.663   3.153 -0.0280 -0.2996  0.1477
 6204W        W23051   0.808  13.632  13.935 -0.0849  0.0239  0.2118
 6205W        W23052  18.338  11.422   1.937  0.0469 -0.0684  0.0958
 6206W        W23053   0.566  14.408   0.964 -0.4729  0.3264  0.2592
 6207W        W23054   0.712  16.347   3.845  0.0032 -0.3825  0.0762
 6208W        W23055  15.005  10.388   5.157 -0.0389 -0.1164 -0.2090
 6209W        W23056  11.934   2.361   3.120  0.1245 -0.1953  0.1090
 6210W        W23057  17.081  16.388   4.177 -0.0156  0.1564  0.2251
 6211W        W23058   0.953   0.977  11.499  0.2306  0.2600 -0.0821
 6212W        W23059   0.359   4.756   4.089  0.3819  0.2976  0.0565
 6213W        W23060  16.991  15.252  11.466  0.0100  0.4546 -0.1115
 6214W        W23061  14.945   3.290  14.705  0.1635  0.0289  0.2025
 6215W        W23062   2.436   0.852  14.675  0.3985 -0.3279 -0.1134
 6216W        W23063  16.044  13.438   0.057 -0.0711  0.0946  0.2399
 6217W        W23064  14.214  16.919  13.133 -0.2195 -0.4032  0.0574
 6218W        W23065   4.291  15.283  12.745  0.0599 -0.0568  0.3948
 6219W        W23066  15.571  17.968   2.279  0.1168 -0.2714  0.2531
 6220W        W23067   0.055  14.615   3.767  0.0793 -0.1487  0.4310
 6221W        W23068   1.172   0.186   1.200 -0.1555 -0.1815 -0.0759
 6222W        W23069   3.934   7.184   4.282 -0.0429  0.0874 -0.1100
 6223W        W23070  12.219  16.279   4.154  0.2062 -0.3355 -0.1419
 6224W        W23071   4.401  15.582  13.995  0.2136  0.2716  0.0311
 6225W        W23072   9.803  14.749   1.598 -0.2041  0.1836 -0.1145
 6226W        W23073  14.947  16.885  12.354  0.1399 -0.4404  0.1651
 6227W        W23074   6.208   0.860   2.885 -0.0437  0.3749  0.0167
 6228W        W23075  16.845  18.203  15.291  0.1608  0.1406 -0.1352
 6229W        W23076  11.385  18.712  13.859  0.0936 -0.1736 -0.0897
 6230W        W23077   1.565  12.406   4.324  0.0898  0.1372 -0.2389
 6231W        W23078   6.453   2.256   3.465  0.3719  0.0203  0.1513
 6232W        W23079   9.578   8.112   3.991  0.2333  0.0091  0.1735
 6233W        W23080  18.106  16.120   3.507  0.2010  0.0804 -0.0019
 6234W        W23081   7.839  17.976   3.861 -0.2499 -0.0113  0.0160
 6235W        W23082  17.771  10.759   5.683 -0.3210  0.1744  0.1705
 6236W        W23083  12.272  10.416   2.271 -0.1447  0.1526  0.0660
 6237W        W23084   4.490   5.678   2.031  0.0786 -0.0673 -0.0238
 6238W        W23085   1.187   9.658   1.452  0.0591 -0.1461  0.2011
 6239W        W23086  13.231  16.952   0.351  0.2810 -0.0304 -0.0162
 6240W        W23087   4.034   6.759   0.985  0.1442  0.1063  0.1082
 6241W        W23088   4.112   7.282   1.163  0.2632 -0.0178  0.0412
 6242W        W23089  18.819  14.131   2.284 -0.3552  0.1756  0.1001
 6243W        W23090   0.856  18.818   3.397  0.3538  0.1633 -0.2508
 6244W        W23091   7.125   1.659   4.807  0.3508  0.0282 -0.0451
 6245W        W23092   4.429   1.131   1.529 -0.0937  0.0578 -0.1037
 6246W        W23093  14.780   5.987   1.047 -0.0065  0.0987  0.1269
 6247W        W23094   8.588  14.004   2.143 -0.0536  0.0326  0.0669
 6248W        W23095   7.273  14.233   3.681 -0.0019 -0.1043  0.0928
 6249W        W23096  18.767  17.980  14.573 -0.0497  0.0117  0.1699
 6250W        W23097  17.622  17.705  13.840  0.5073 -0.0727 -0.0553
 6251W        W23098   0.686  12.521   1.953 -0.0356 -0.0799  0.3230
 6252W        W23099  18.643   8.091   4.240  0.1894  0.3846 -0.0827
 6253W        W23100   2.586  12.268   0.140 -0.0155 -0.0180 -0.1511
 6254W        W23101   5.287   7.207  11.509  0.1666  0.1370  0.1602
 6255W        W23102   8.319  11.379   4.331 -0.1097 -0.2466 -0.4379
 6256W        W23103   0.506  12.914  12.277  0.2525  0.0047  0.1636
 6257W        W23104   9.930   8.371   2.907  0.1727  0.0857 -0.0247
 6258W        W23105   2.505  18.374   4.027  0.1554 -0.0626 -0.2472
 6259W        W23106   8.600  15.169   2.188 -0.2068  0.1371 -0.0479
 6260W        W23107   5.165   8.792   5.358  0.0341  0.1472 -0.1203
 6261W        W23108   5.671   3.148   3.591  0.1216 -0.1218  0.1743
 6262W        W23109   6.503   5.824   4.956  0.1233  0.1430 -0.0705
 6263W        W23110   7.814  17.968  11.042  0.1448  0.0787 -0.0434
 6264W        W23111   4.611  17.119   1.598  0.0674  0.0638 -0.0231
 6265W        W23112   1.041   9.550   3.532 -0.4502  0.2336  0.0244
 6266W        W23113  10.661  17.418  13.442 -0.2003  0.2950 -0.2940
 6267W        W23114   3.377  12.066  12.933 -0.1786 -0.2551  0.1505
 6268W        W23115  10.851  17.826   2.914 -0.1703  0.0423 -0.0782
 6269W        W23116   7.827  15.784   2.507  0.1472 -0.0555 -0.0428
 6270W        W23117  18.148   9.577  13.448 -0.0592  0.1284  0.2085
 6271W        W23118   1.673  10.008   3.145  0.0776  0.0028 -0.1028
 6272W        W23119   5.894  16.424  13.851 -0.2460  0.0206  0.0039
 6273W        W23120   2.172   2.189  12.179 -0.2515  0.0586  0.1702
 6274W        W23121  15.303  12.249  12.020 -0.0671 -0.0884 -0.2570
 6275W        W23122   1.195   5.547  10.907 -0.1288 -0.1272 -0.0689
 6276W        W23123  15.824   6.214  11.674 -0.0263  0.0698  0.4016
 6277W        W23124   4.050   8.520  14.592 -0.0062 -0.2680 -0.1105
 6278W        W23125   7.175   3.943   3.114  0.2048 -0.0875  0.0296
 6279W        W23126  11.694   9.466  12.316 -0.1266 -0.2595 -0.0104
 6280W        W23127  10.221   3.896   4.157 -0.0401  0.0472  0.0275
 6281W        W23128   5.178   5.620  11.523  0.3730  0.0139  0.0243
 6282W        W23129  12.541  16.211  13.127 -0.1412  0.1738  0.0108
 6283W        W23130  17.512   6.991   1.365  0.1111 -0.0436  0.0772
 6284W        W23131   9.570  15.725  15.336 -0.4721 -0.2103 -0.1374
 6285W        W23132   9.303  14.748   2.377  0.2136  0.0669 -0.0601
 6286W        W23133   1.583   3.803  13.790 -0.0195  0.0078 -0.3477
 6287W        W23134   5.346  17.914  13.486 -0.1493  0.1973 -0.1441
 6288W        W23135   7.432  14.682  14.065  0.0508 -0.3127  0.0892
 6289W        W23136   2.771  15.785  15.506  0.4078 -0.0021 -0.0002
 6290W        W23137   3.388  11.661  13.206  0.0254  0.2751  0.1666
 6291W        W23138  15.252   6.929   3.053  0.0014 -0.3058 -0.0349
 6292W        W23139   6.424   9.406  12.556  0.2120 -0.1130 -0.0525
 6293W        W23140  18.413   9.806  12.164  0.3691  0.2136 -0.0743
 6294W        W23141   2.831   0.295   2.745  0.1431  0.2409  0.1832
 6295W        W23142   1.174  11.477   2.398  0.0923 -0.2228 -0.0875
 6296W        W23143  14.319  11.837   2.055 -0.3811  0.1577 -0.0079
 6297W        W23144   2.515  17.502  11.507  0.1207  0.0069 -0.0831
 6298W        W23145   6.306   3.775   0.950 -0.4199 -0.0545 -0.2540
 6299W        W23146  16.784   4.746   0.351 -0.1677 -0.3629  0.2523
 6300W        W23147   6.851   5.548  12.897 -0.1505  0.1931  0.1205
 6301W        W23148  15.820  12.046   1.057 -0.1958  0.2441 -0.3363
 6302W        W23149   3.771  17.697  10.628  0.0041 -0.1421 -0.1233
 6303W        W23150   3.830  14.153  13.901  0.1418  0.0225  0.2111
 6304W        W23151  15.923  12.086   5.520  0.2731 -0.1054 -0.1684
 6305W        W23152   5.551   1.797   1.607  0.0352  0.1165  0.2687
 6306W        W23153  11.002  16.820   2.874 -0.0072 -0.0845  0.1147
 6307W        W23154  18.531  16.433  11.710 -0.0371 -0.5274 -0.0658
 6308W        W23155   6.993  12.960   2.417 -0.0955  0.0640  0.3203
 6309W        W23156  10.472   7.918  10.752 -0.0520 -0.1680 -0.1145
 6310W        W23157   4.861   4.362   0.277 -0.0021 -0.1402  0.0865
 6311W        W23158  10.561  15.895  14.518  0.0334  0.0057  0.3279
 6312W        W23159   7.935  14.952  14.306  0.3499 -0.3589  0.0846
 6313W        W23160  14.784  17.631   1.243  0.0683 -0.1096 -0.2684
 6314W        W23161   5.984   8.294   4.272  0.1511 -0.0292 -0.1579
 6315W        W23162  17.572  16.090   1.282 -0.1472 -0.2066 -0.0574
 6316W        W23163   2.145   9.853   4.908 -0.0772 -0.1834 -0.0151
 6317W        W23164  10.440  10.968   1.250 -0.1823  0.0514  0.2117
 6318W        W23165  15.035   8.068  11.407  0.1012  0.0105  0.1139
 6319W        W23166  14.516   2.457   4.183 -0.2844 -0.2401 -0.3140
 6320W        W23167   4.435  15.954  11.982 -0.1006 -0.0821  0.3884
 6321W        W23168   0.268  10.367   2.025  0.0627  0.0912 -0.2634
 6322W        W23169  17.418   8.269  15.215 -0.2321 -0.0040 -0.1704
 6323W        W23170   4.871  17.741  13.472 -0.0089  0.4679 -0.3809
 6324W        W23171   2.268   5.022   1.881  0.0554  0.0401 -0.3029
 6325W        W23172  10.686  10.655  13.243  0.0191 -0.1977 -0.0952
 6326W        W23173   3.684  14.621  12.584 -0.2817 -0.1119 -0.0334
 6327W        W23174   5.339  11.936   2.841 -0.0152 -0.0633  0.0967
 6328W        W23175   1.418  10.570  11.230 -0.1018  0.0197 -0.1292
 6329W        W23176  13.061  17.724   2.534 -0.2183 -0.1094 -0.1275
 6330W        W23177   3.741  14.737  14.178 -0.1412  0.4403  0.0430
 6331W        W23178  12.608   6.713  12.251 -0.3493 -0.2323  0.3055
 6332W        W23179  14.709   5.246   5.346 -0.1842  0.0751  0.0639
 6333W        W23180   9.758  16.040  13.240  0.1708  0.0975 -0.0912
 6334W        W23181  15.766   7.347  11.938  0.0440  0.0249 -0.2677
 6335W        W23182   2.328  14.929   4.042  0.2110  0.1244  0.1486
 6336W        W23183  12.342  12.903  11.849  0.4212 -0.1734  0.0945
 6337W        W23184  10.053   3.088   0.952  0.1081 -0.2522 -0.1510
 6338W        W23185  18.579  10.898   3.499  0.1426 -0.2082  0.3132
 6339W        W23186   4.871  16.696  13.429 -0.1265  0.2341  0.2272
 6340W        W23187   0.602   5.854  13.517 -0.0025 -0.0338 -0.2834
 6341W        W23188  14.496   0.792  12.689  0.1067  0.1290 -0.0340
 6342W        W23189  12.567   0.059   0.289 -0.3030  0.0092  0.5033
 6343W        W23190   2.160   8.478   2.402  0.0055 -0.0305  0.2122
 6344W        W23191  16.087   3.656   1.590 -0.0319 -0.1706 -0.0228
 6345W        W23192  17.527   1.208   4.332  0.2299 -0.1396  0.2705
 6346W        W23193   8.091   4.491   1.579 -0.2280  0.2039 -0.1777
 6347W        W23194   3.483   6.433  10.235 -0.1788 -0.2238 -0.2390
 6348W        W23195  13.302   2.034   3.164 -0.2014  0.2022 -0.1265
 6349W        W23196   1.420   0.185  12.309 -0.1257 -0.0778  0.1401
 6350W        W23197  16.803   7.508   0.974  0.1005 -0.4488 -0.0177
 6351W        W23198  16.229  10.029  11.321  0.0084  0.4428 -0.3309
 6352W        W23199  15.908   5.711  14.313 -0.2048  0.2605  0.1594
 6353W        W23200   6.895  11.462  13.038 -0.1406  0.0862  0.2923
 6354W        W23201  16.355   7.765   1.982 -0.1895  0.0459 -0.2665
 6355W        W23202  18.367   9.575   3.143 -0.1622 -0.0004  0.4912
 6356W        W23203  10.455   1.994  14.200 -0.2908 -0.4120 -0.2270
 6357W        W23204  18.074  12.187   5.151 -0.1567  0.1577 -0.0409
 6358W        W23205   2.313   8.100  14.303  0.1884 -0.1323  0.1093
 6359W        W23206   5.551  18.833  15.151  0.0571 -0.2983  0.2499
 6360W        W23207   3.221   3.737   4.821 -0.2979 -0.3040  0.1589
 6361W        W23208   4.160   6.237  11.026  0.0231 -0.5437  0.0587
 6362W        W23209   9.527  15.156  15.187 -0.0904  0.0148 -0.0790
 6363W        W23210  10.406   2.370   4.379  0.2545  0.1521 -0.0975
 6364W        W23211   1.552   1.823   5.631  0.1403 -0.0814 -0.2411
 6365W        W23212  12.359   6.598   1.934  0.0255 -0.1167  0.0920
 6366W        W23213  18.682  13.577   1.169 -0.1707 -0.0133  0.2196
 6367W        W23214  16.188   1.543   4.668  0.4125  0.2280 -0.3955
 6368W        W23215   2.360   4.181   1.541 -0.1374  0.0092 -0.0111
 6369W        W23216   5.076   5.636  12.415 -0.1449 -0.1575  0.0098
 6370W        W23217  15.711  14.478   4.245 -0.2769 -0.1056 -0.1481
 6371W        W23218   2.890   9.258   2.051  0.0397 -0.0189 -0.1392
 6372W        W23219  16.560  11.221  12.586  0.0587 -0.0060 -0.1753
 6373W        W23220   0.561  14.043   2.170  0.4077 -0.1153 -0.0704
 6374W        W23221   3.597   2.730  12.978  0.0703 -0.0554  0.0922
 6375W        W23222   8.555  12.716  14.088 -0.0163 -0.0507  0.0787
 6376W        W23223   7.954   7.876   0.658 -0.0011 -0.0157 -0.1663
 6377W        W23224  11.485  16.730  10.789 -0.0714 -0.0213 -0.1724
 6378W        W23225   0.276   6.864   1.785  0.0607  0.1996 -0.2038
 6379W        W23226   4.173   8.358  13.149 -0.3086  0.0052 -0.1466
 6380W        W23227   7.348   4.732  13.726 -0.0277  0.2369  0.0958
 6381W        W23228  12.861   3.317   1.866 -0.0956  0.2182 -0.1898
 6382W        W23229   4.423   0.771   4.417 -0.0490 -0.0554 -0.2149
 6383W        W23230   6.622   5.364  11.954  0.2220  0.0974  0.1354
 6384W        W23231   3.391   6.776  13.477 -0.2847  0.1123 -0.1443
 6385W        W23232  16.096  14.610  13.727 -0.0395 -0.0414 -0.1621
 6386W        W23233   9.038   8.270  14.080  0.2486 -0.0185  0.1690
 6387W        W23234  10.142  15.899   4.214 -0.1697  0.0503 -0.1821
 6388W        W23235   2.849   7.693  11.025 -0.1993  0.0381 -0.0695
 6389W        W23236   8.620  16.523  12.249 -0.3352  0.0886  0.2246
 6390W        W23237  11.026  10.362  13.545 -0.2730  0.0457  0.0930
 6391W        W23238  17.705  14.397   1.630  0.0226  0.4628 -0.1627
 6392W        W23239   2.223   3.438  11.860  0.1910  0.0998 -0.1661
 6393W        W23240  14.770  17.677  12.828 -0.2474 -0.1495  0.0426
 6394W        W23241  18.395  10.070   3.584  0.0384  0.1180 -0.1149
 6395W        W23242  10.166  16.415  13.564  0.3201 -0.1781 -0.0925
 6396W        W23243   9.700  16.145  11.034  0.1463  0.2411 -0.3682
 6397W        W23244   8.179  12.527   1.261 -0.2115  0.1433 -0.0913
 6398W        W23245   7.035  14.420  13.157  0.2462  0.0184 -0.0878
 6399W        W23246  13.309   8.101   0.950  0.2216 -0.2850  0.5563
 6400W        W23247   0.342   8.394  12.406  0.2739 -0.0965  0.3624
 6401W        W23248  11.435   7.515   0.699  0.0735  0.1899 -0.1777
 6402W        W23249   8.329   3.261   5.280 -0.1083  0.1046 -0.1005
 6403W        W23250   4.513   9.565  15.380 -0.2812 -0.1955 -0.3284
 6404W        W23251   3.425   4.146   0.383  0.2730 -0.1779  0.3196
 6405W        W23252  10.341  17.448  13.923  0.1192 -0.1921  0.2210
 6406W        W23253   8.303  14.602  13.986 -0.0444  0.1332 -0.3733
 6407W        W23254   2.933   4.673  12.041  0.0301 -0.0973 -0.1982
 6408W        W23255   6.544   8.212   5.958  0.1471 -0.0212  0.1527
 6409W        W23256  10.114   9.973  11.587 -0.1924 -0.0175 -0.0040
 6410W        W23257  10.815  16.128  10.809  0.1463 -0.3813 -0.2305
 6411W        W23258  16.465   0.018   2.548  0.2058 -0.1322  0.2516
 6412W        W23259  11.682   7.068   1.973 -0.0053 -0.0344  0.0907
 6413W        W23260  15.669   6.576  10.788 -0.1342  0.0980  0.0798
 6414W        W23261  13.642   9.710  13.955 -0.0276 -0.1208 -0.1843
 6415W        W23262   6.039  15.951   0.273 -0.1016  0.1548  0.3693
 6416W        W23263  11.297   7.065  13.022 -0.1293  0.1203 -0.0070
 6417W        W23264   2.119   3.574   0.734 -0.1547  0.2569  0.1437
 6418W        W23265  18.756   1.644  10.616 -0.1387 -0.0556  0.0681
 6419W        W23266  16.532  12.496  12.886 -0.0823  0.1822 -0.0768
 6420W        W23267  11.550  14.692  15.297  0.0002 -0.2258  0.0484
 6421W        W23268  10.520  18.060   3.734  0.2768  0.0839 -0.4012
 6422W        W23269   5.726  15.306  15.139  0.0011  0.0383  0.0272
 6423W        W23270   8.405  13.987  11.362  0.1758 -0.1321  0.0096
 6424W        W23271  17.896  11.457   4.528 -0.0385  0.1988  0.0819
 6425W        W23272  10.663   6.052  10.692 -0.4265 -0.4327 -0.1848
 6426W        W23273  16.729  17.087  11.912  0.1372 -0.1740 -0.1889
 6427W        W23274   9.535   3.660   3.676 -0.0430 -0.0185 -0.0460
 6428W        W23275  18.788   7.158   3.938  0.2615  0.0416 -0.3967
 6429W        W23276   5.474   3.813  12.154 -0.2668 -0.1141 -0.0336
 6430W        W23277   7.109   1.177   2.955  0.1135 -0.0865 -0.2827
 6431W        W23278  13.167   0.087   5.331  0.0174  0.2176  0.1055
 6432W        W23279   8.095  18.673   3.256  0.2921  0.2758  0.1509
 6433W        W23280   7.334   8.651   0.264  0.1490 -0.1411  0.0070
 6434W        W23281   4.113   5.444  13.241  0.1848 -0.0229  0.2501
 6435W        W23282  15.014   5.088   3.203  0.0385  0.1100 -0.3088
 6436W        W23283   3.434  16.776  12.519 -0.1466 -0.0584  0.0356
 6437W        W23284   5.138   9.410  15.272  0.1979 -0.2964  0.1283
 6438W        W23285   4.102   2.853  11.830 -0.2692  0.0097 -0.2698
 6439W        W23286   5.062   8.459   1.229 -0.1223 -0.1705 -0.3678
 6440W        W23287  13.025   9.279   2.400  0.1385 -0.0271  0.3164
 6441W        W23288   6.018   2.364   0.541  0.0666 -0.1228 -0.0705
 6442W        W23289   2.726   8.343   5.375  0.1015 -0.0397 -0.1337
 6443W        W23290   0.333  11.046  15.221 -0.0261  0.0146  0.3785
 6444W        W23291  16.780  12.763  14.964  0.1410 -0.1516  0.3831
 6445W        W23292   2.332   3.073  13.525 -0.1361 -0.0313 -0.0621
 6446W        W23293  17.980   6.406  10.992 -0.1470 -0.1281 -0.1022
 6447W        W23294   3.591   0.464   4.541 -0.2310 -0.2552 -0.0440
 6448W        W23295   3.646  16.283   0.012 -0.4524  0.0636  0.2174
 6449W        W23296   1.277   4.567  14.264 -0.1605  0.3460  0.3038
 6450W        W23297  18.254  16.646   0.804  0.1338 -0.0475 -0.1964
 6451W        W23298  16.470   6.418  12.893  0.0209 -0.0393 -0.0392
 6452W        W23299   0.214  12.692   3.140 -0.0142  0.2322 -0.4695
 6453W        W23300   4.815   8.326   3.360 -0.0056  0.2259 -0.0092
 6454W        W23301   2.508  15.170   3.200 -0.1532 -0.0194  0.0992
 6455W        W23302   8.117   3.362  15.015  0.0618 -0.0067  0.1821
 6456W        W23303   8.466  11.950   0.359  0.0970  0.3097 -0.1285
 6457W        W23304  10.151   4.898   2.125  0.0884 -0.0699  0.2451
 6458W        W23305   8.887   6.915  13.954  0.0166  0.1685  0.1444
 6459W        W23306  10.507  16.092   4.467 -0.1085 -0.0361  0.1471
 6460W        W23307   1.719   2.890   1.213 -0.1325 -0.0611  0.0542
 6461W        W23308  15.014  12.836   2.430 -0.1452  0.1331  0.3088
 6462W        W23309  12.008  10.292  13.111  0.0771 -0.0719  0.2914
 6463W        W23310  12.881   4.931  13.749  0.0458  0.0440 -0.2109
 6464W        W23311   2.487  10.569  15.535 -0.0393  0.0135  0.0929
 6465W        W23312  12.009   0.874   0.198 -0.0028  0.0086  0.1877
 6466W        W23313   2.053   3.536  15.004 -0.1589 -0.1789 -0.1030
 6467W        W23314   2.282   7.556  15.022  0.0972  0.1014 -0.0903
 6468W        W23315   7.873  13.892   0.027  0.0823 -0.1985 -0.3457
 6469W        W23316  10.099   6.835  12.208 -0.2139 -0.2678 -0.1244
 6470W        W23317   2.464   4.813   2.767 -0.0422 -0.0641 -0.2435
 6471W        W23318   8.772   7.925   4.450  0.0831 -0.0090 -0.0107
 6472W        W23319  12.880  11.388  10.296 -0.0114 -0.1126 -0.0586
 6473W        W23320   4.820   4.201   1.963  0.0779  0.1193  0.1695
 6474W        W23321  11.781   9.497   0.388 -0.0475  0.1463 -0.1299
 6475W        W23322   7.837  10.242   2.483  0.0322 -0.1512  0.1797
 6476W        W23323   8.642   0.099  10.761 -0.0075 -0.1463  0.1047
 6477W        W23324   8.262   7.183   3.415  0.0914  0.2733  0.3923
 6478W        W23325  12.740  12.826  12.780 -0.2453  0.1388 -0.1983
 6479W        W23326  12.980  14.485   0.487 -0.3102 -0.0536 -0.0707
 6480W        W23327   5.179  16.998   1.664 -0.0324  0.1651  0.0121
 6481W        W23328   9.992   2.950  13.507 -0.0562 -0.1860  0.1637
 6482W        W23329  11.737  13.535  12.630  0.2946  0.0444  0.0917
 6483W        W23330  18.477  11.642  12.394 -0.0974 -0.1960 -0.0147
 6484W        W23331   8.748   7.197  14.873  0.1779  0.1126 -0.0051
 6485W        W23332  18.574   3.673  13.100  0.1303  0.1024 -0.2291
 6486W        W23333   2.745   7.787  15.519 -0.0685 -0.0711 -0.1486
 6487W        W23334   6.637   5.928   4.473 -0.0683  0.0684  0.2302
 6488W        W23335   8.008   2.633  10.893 -0.1369 -0.1014  0.0617
 6489W        W23336   2.258   7.862  12.777 -0.0106 -0.0701  0.0802
 6490W        W23337  15.916   2.242   3.621 -0.0401 -0.0621 -0.3350
 6491W        W23338  15.439  16.878   4.613  0.1530 -0.0589  0.1753
 6492W        W23339   5.642   9.689   1.196 -0.3952 -0.0044  0.1795
 6493W        W23340  17.038   8.957   3.546 -0.0754 -0.2904  0.0960
 6494W        W23341  17.776  13.938  13.226 -0.3614 -0.1184  0.0607
 6495W        W23342   7.923  14.367  15.431 -0.1364  0.2385  0.5152
 6496W        W23343   6.982   5.630   5.117  0.4004  0.0514 -0.0017
 6497W        W23344  11.389  16.847   4.473 -0.0503 -0.0943  0.0321
 6498W        W23345   4.914   5.950   1.913 -0.1667  0.1275 -0.2720
 6499W        W23346  10.952  13.621   0.710 -0.0014 -0.0420  0.1984
 6500W        W23347   0.067   9.040  13.437 -0.0995 -0.2448 -0.2318
 6501W        W23348   1.362  11.617  12.351  0.1966  0.1712 -0.0869
 6502W        W23349   7.061   9.913  11.798 -0.1147 -0.2938 -0.4110
 6503W        W23350   8.368   7.830  12.208 -0.1362 -0.2689 -0.2516
 6504W        W23351  16.899   9.490   4.547  0.1028 -0.0418  0.0121
 6505W        W23352   5.334   6.840   5.790 -0.0460  0.0680 -0.1159
 6506W        W23353  12.006   9.166  11.416  0.2699  0.0658 -0.1339
 6507W        W23354   4.788  14.714  12.601  0.1872 -0.1873  0.2150
 6508W        W23355   8.581  16.002   4.735  0.1996 -0.5963 -0.0573
 6509W        W23356  14.671   8.413   3.933  0.1015 -0.0262 -0.2959
 6510W        W23357   6.364   7.054   0.908 -0.0415  0.1844 -0.0752
 6511W        W23358   9.839   0.520  11.187  0.0323 -0.3514  0.2592
 6512W        W23359  10.163   7.923   1.967 -0.2366  0.2966 -0.1819
 6513W        W23360   8.147  18.152   3.520  0.1562 -0.0382 -0.1729
 6514W        W23361   9.364  18.675  10.236  0.0716  0.0723 -0.0421
 6515W        W23362   6.196   2.977  11.787  0.1334 -0.2171 -0.0686
 6516W        W23363   6.626   7.487  12.542  0.0100  0.2275  0.0018
 6517W        W23364  15.913   7.134  13.671  0.1693 -0.2167  0.0180
 6518W        W23365  13.433   3.432   5.417  0.2426  0.0529 -0.0567
 6519W        W23366   1.008  17.386   2.953 -0.2437  0.1946  0.0264
 6520W        W23367   3.089   3.527  13.250  0.0841  0.1084 -0.3139
 6521W        W23368  11.887  16.710  12.882  0.1219  0.2839 -0.0519
 6522W        W23369  13.362  14.793   4.617 -0.0716  0.1441 -0.1678
 6523W        W23370  10.843   5.747   2.452  0.3421 -0.1593 -0.3286
 6524W        W23371  11.835  13.179   2.506  0.2264  0.0940  0.0846
 6525W        W23372  15.593  12.388   4.792  0.0179 -0.0967  0.1124
 6526W        W23373   2.098  15.015   2.877  0.2199 -0.2082  0.2601
 6527W        W23374   6.656  13.623  14.348 -0.2621  0.2229  0.0016
 6528W        W23375   2.581   7.923  11.398  0.0742  0.0009  0.0588
 6529W        W23376  14.489   7.139  11.761 -0.1374  0.0781  0.1153
 6530W        W23377   4.081  11.142  12.442 -0.0595 -0.0807 -0.1744
 6531W        W23378   9.593  14.865  12.277 -0.2077  0.4147  0.0740
 6532W        W23379  18.494   1.483   2.524 -0.2589 -0.0164 -0.0365
 6533W        W23380   0.613   8.594   0.069  0.0473 -0.0278 -0.3537
 6534W        W23381  12.184  17.544   1.496  0.0056 -0.0838 -0.0716
 6535W        W23382   7.525  15.320  10.037  0.2444  0.1212 -0.4047
 6536W        W23383  14.636   1.139   3.807 -0.0744  0.4418 -0.2101
 6537W        W23384  15.519   8.370   0.311  0.0281 -0.0181 -0.1968
 6538W        W23385   9.449   0.330  15.340  0.1077 -0.0386 -0.1774
 6539W        W23386   2.729  13.853   4.482 -0.0237  0.0294  0.3587
 6540W        W23387   7.355   9.162  15.088  0.2048 -0.0662 -0.2330
 6541W        W23388  14.778  17.369  12.443 -0.1465 -0.1143  0.1727
 6542W        W23389   4.338   0.668   2.872 -0.3636 -0.0202  0.0704
 6543W        W23390   4.022  10.040   0.489 -0.1176 -0.1521  0.1674
 6544W        W23391   5.727  11.919  11.221  0.2943  0.0670 -0.0225
 6545W        W23392  12.025   1.146  11.434  0.3260  0.0573  0.0978
 6546W        W23393  16.855   6.458   1.168 -0.0117 -0.2086 -0.2224
 6547W        W23394   4.127   6.775   2.448 -0.1533  0.0808 -0.0808
 6548W        W23395  17.897   3.414  13.763  0.0110  0.0123 -0.0007
 6549W        W23396  14.818  18.232   2.021  0.0629 -0.1926 -0.2222
 6550W        W23397  18.698   4.447  11.644  0.0808  0.1484  0.1026
 6551W        W23398   3.360  17.091   5.103 -0.1895 -0.0017  0.0904
 6552W        W23399   7.120  13.947   2.862 -0.2212  0.0327  0.1771
 6553W        W23400  13.290   1.568   3.347 -0.0873 -0.0297  0.1818
 6554W        W23401  16.722   2.488   0.984 -0.1357  0.1143 -0.0628
 6555W        W23402   5.461   6.212   0.047 -0.1648 -0.0311  0.2268
 6556W        W23403  10.772   7.304   0.912  0.0546 -0.1190  0.0871
 6557W        W23404  13.336  11.000  13.827  0.0503  0.1561 -0.2794
 6558W        W23405  11.607  17.428  13.984  0.2228 -0.3282 -0.2426
 6559W        W23406   0.354  15.750   1.169  0.1865  0.2747 -0.0106
 6560W        W23407   3.416   0.772  14.607 -0.0284  0.0974 -0.0874
 6561W        W23408  16.014  12.262  13.615  0.1682  0.1844 -0.1821
 6562W        W23409   2.924  16.207   5.374  0.0550 -0.3165  0.0362
 6563W        W23410  11.760   1.728   0.520 -0.0640  0.0085 -0.0288
 6564W        W23411   2.029   6.906   0.463  0.1622  0.0551  0.0935
 6565W        W23412   2.337  15.736  14.553 -0.0790  0.3027 -0.0967
 6566W        W23413   1.097   6.260  14.461 -0.2277  0.0655  0.0635
 6567W        W23414  14.135   2.679  14.147  0.4373  0.1576 -0.0893
 6568W        W23415  11.430   9.954  13.130 -0.3387 -0.3687  0.2292
 6569W        W23416  11.172   0.637  11.488 -0.4224 -0.0255 -0.1593
 6570W        W23417  12.857   7.901   0.844  0.4693 -0.1138 -0.1431
 6571W        W23418   5.519   5.420   2.903  0.0977  0.2192  0.0273
 6572W        W23419   1.055   7.550   5.903 -0.2998 -0.0507  0.2381
 6573W        W23420   9.190  12.384  10.735  0.1910 -0.0044 -0.0286
 6574W        W23421   8.303  13.788  14.923 -0.1167  0.1276 -0.0072
 6575W        W23422  15.575   6.888   4.850 -0.1580  0.0547 -0.1249
 6576W        W23423   4.178   9.211   0.015  0.0019 -0.0217  0.0845
 6577W        W23424   7.899   0.109   0.531 -0.2132  0.2285  0.4560
 6578W        W23425   0.174   6.304  14.293 -0.1560 -0.2168  0.0198
 6579W        W23426  11.014  12.346   4.023  0.1656 -0.0165 -0.1284
 6580W        W23427  15.914  15.431   4.155 -0.1849 -0.1266  0.0306
 6581W        W23428   9.991   5.461  11.932 -0.0121 -0.3895  0.1529
 6582W        W23429   6.528  10.813  13.495  0.1360  0.0855 -0.1426
 6583W        W23430   5.143  11.565   0.805  0.2645  0.0048 -0.4229
 6584W        W23431   9.386  12.710  14.586  0.1950 -0.0537 -0.2294
 6585W        W23432  15.635   8.680   4.531  0.2596  0.2105  0.0440
 6586W        W23433  10.946  17.201   1.987 -0.0747  0.0757 -0.1579
 6587W        W23434   4.988  16.599   4.446  0.0262  0.1246  0.1285
 6588W        W23435  14.785  16.032   0.162  0.0104 -0.1990 -0.1262
 6589W        W23436  10.043   2.040   1.117  0.1763  0.2889 -0.0505
 6590W        W23437  15.299  15.161   1.523 -0.1199  0.1471  0.0470
 6591W        W23438  12.365  13.957  13.550  0.0514  0.3813  0.0217
 6592W        W23439   3.408   0.817   1.506 -0.0830 -0.0242 -0.0168
 6593W        W23440   8.334   5.376   4.254 -0.0984 -0.0697  0.0760
 6594W        W23441  18.340   3.176  15.464  0.0228  0.1147  0.0212
 6595W        W23442  15.063   8.766   5.076 -0.2439  0.1974 -0.0091
 6596W        W23443  11.865   0.038  14.728  0.1421  0.0177  0.0392
 6597W        W23444  18.179  13.263   2.854  0.2486 -0.0008 -0.2662
 6598W        W23445  18.806  14.372   3.154 -0.0840 -0.2278  0.1723
 6599W        W23446   7.291  18.258  14.247  0.1252  0.0983  0.1527
 6600W        W23447   4.989   1.778  11.227  0.0567 -0.1334 -0.3109
 6601W        W23448   1.425   7.067   2.053  0.0927 -0.0911  0.1244
 6602W        W23449   6.490   5.590  14.456  0.3679  0.1758  0.2111
 6603W        W23450  17.531  16.706  11.618  0.2742 -0.0978  0.1999
 6604W        W23451   9.037   0.641  14.987 -0.0712 -0.1070  0.0598
 6605W        W23452   2.899  11.252   0.263 -0.3019 -0.2434 -0.0561
 6606W        W23453  16.518   4.392   2.549  0.1353 -0.0600 -0.1296
 6607W        W23454  16.297  12.794   4.948  0.2260 -0.1538  0.1980
 6608W        W23455   6.506  18.760  13.872 -0.1576 -0.3811 -0.2592
 6609W        W23456   7.428  11.631   3.571 -0.0742 -0.0717  0.0422
 6610W        W23457   7.939   8.337   0.898  0.0372  0.2676 -0.1415
 6611W        W23458  14.071   3.341   0.587  0.1837 -0.3246 -0.2129
 6612W        W23459   7.208   2.144   2.111 -0.0612  0.2181 -0.0349
 6613W        W23460   3.499   9.838   1.858 -0.0178  0.1898  0.1648
 6614W        W23461   1.321   1.486  12.339 -0.1466  0.1536  0.2151
 6615W        W23462   1.989  11.612   1.378  0.3593  0.0865  0.0129
 6616W        W23463  18.300  14.703   2.449 -0.0579 -0.0841 -0.0871
 6617W        W23464  12.952   5.054  11.400 -0.2152  0.0111 -0.2162
 6618W        W23465   6.245  14.651  11.791 -0.1808 -0.3013 -0.0562
 6619W        W23466  15.568  14.311   1.274  0.3265 -0.3557  0.0957
 6620W        W23467  14.717   0.292  14.633 -0.0759  0.3692 -0.2772
 6621W        W23468  13.714   6.979   3.499  0.2743 -0.1251 -0.0984
 6622W        W23469  17.712   7.813   3.730  0.3232 -0.2253  0.2014
 6623W        W23470  16.511   3.557  11.087  0.1447  0.3239 -0.0735
 6624W        W23471  13.165   4.871   3.192 -0.1459  0.2003  0.1800
 6625W        W23472   7.979   2.689   1.123 -0.1202 -0.2398  0.3250
 6626W        W23473  13.488  12.225  10.966 -0.3109 -0.2563  0.3534
 6627W        W23474  15.521  14.786  12.864  0.0008  0.1548 -0.2038
 6628W        W23475   7.437  12.689  11.104 -0.0470 -0.1272  0.0656
 6629W        W23476   7.541  12.989  12.566  0.1783  0.0586  0.0220
 6630W        W23477   8.941   7.212   2.110 -0.3080  0.0443  0.0899
 6631W        W23478  18.294  16.786  10.695  0.1129 -0.1192 -0.2090
 6632W        W23479  16.885  16.791   0.296  0.0453  0.0965  0.0309
 6633W        W23480   1.077  17.187  14.500 -0.1286  0.0722  0.2200
 6634W        W23481   2.695   7.684  12.741  0.0676  0.0305  0.0106
 6635W        W23482   9.556   5.713  14.689  0.0659 -0.0122  0.0900
 6636W        W23483   4.469   7.258  12.996 -0.2118 -0.1418  0.4380
 6637W        W23484   7.276   6.647   4.400  0.1627  0.1395  0.0148
 6638W        W23485   9.634  10.620   1.837  0.2314  0.2675 -0.0240
 6639W        W23486   9.191   4.861  14.911  0.0607  0.3158  0.3420
 6640W        W23487  11.500   7.056  14.407 -0.4185 -0.0838  0.0700
 6641W        W23488   3.689  14.304   3.169  0.0443  0.0859  0.1141
 6642W        W23489   6.280  15.365  14.176  0.1755  0.1168 -0.1491
 6643W        W23490  13.455  10.143  15.139  0.3519  0.2651  0.2491
 6644W        W23491  10.608  15.038   0.076 -0.0845 -0.0919  0.1745
 6645W        W23492   9.155   8.703   4.551  0.4380 -0.3076  0.1027
 6646W        W23493  11.871   9.892  13.479 -0.0183  0.0388  0.0583
 6647W        W23494  15.258  12.629   4.549 -0.0516  0.1775  0.0499
 6648W        W23495   2.156   2.347  12.925 -0.4543  0.1132  0.0683
 6649W        W23496  16.569  12.966  12.693 -0.1059  0.1386 -0.0510
 6650W        W23497  16.337  14.577  13.179  0.3435  0.0489 -0.1620
 6651W        W23498   0.991   7.642   3.360  0.0116 -0.0911  0.2062
 6652W        W23499   1.412   1.086  13.902 -0.1097 -0.0243 -0.0932
 6653W        W23500  11.500  10.789   5.083  0.0368 -0.0791 -0.3098
 6654W        W23501   0.198  11.347   0.568  0.2557  0.1669  0.2322
 6655W        W23502  10.377   9.716  13.982  0.0421 -0.0569 -0.2541
 6656W        W23503  11.963  15.728  12.478  0.0561  0.0368  0.2121
 6657W        W23504   1.152  18.144  13.534 -0.0045 -0.1025 -0.3490
 6658W        W23505   1.271   7.178   0.665  0.0119 -0.3443  0.0152
 6659W        W23506  14.178   5.177  12.412 -0.2056  0.1719 -0.0325
 6660W        W23507   9.030   1.682  15.489 -0.0192  0.0177  0.3534
 6661W        W23508   5.772   0.607  13.339 -0.1379 -0.1059 -0.1778
 6662W        W23509  12.967   6.626   3.712  0.0451 -0.2497 -0.0358
 6663W        W23510   7.364   5.278   3.661  0.2300 -0.0427  0.2850
 6664W        W23511   2.767   2.462  15.377  0.3463  0.4009 -0.1183
 6665W        W23512   8.039   1.776   0.181  0.5338  0.2292 -0.0130
 6666W        W23513   9.179  13.156   4.769  0.1165 -0.0506 -0.2233
 6667W        W23514   7.741  14.077  11.593  0.1426  0.0059  0.0275
 6668W        W23515  12.199   1.573  14.376 -0.3375 -0.1131 -0.0689
 6669W        W23516   5.901  13.446  11.933  0.0297  0.1480 -0.1660
 6670W        W23517  18.216   4.794  13.540  0.0889  0.1730  0.3160
 6671W        W23518   0.960   2.811   0.475  0.1933  0.1100  0.1788
 6672W        W23519   8.071   7.130  11.385 -0.4439  0.3847  0.3366
 6673W        W23520   5.120  13.017   3.490  0.1263  0.2805  0.1940
 6674W        W23521  13.561   9.506  15.060 -0.1118 -0.3506 -0.0258
 6675W        W23522  14.453  12.738  14.274  0.0793 -0.1024 -0.2828
 6676W        W23523   6.132   3.919   2.983 -0.1339 -0.2679 -0.1696
 6677W        W23524  13.190   5.441   2.119 -0.1649  0.2805 -0.2102
 6678W        W23525   8.443  17.349   3.261 -0.0751  0.0747 -0.1511
 6679W        W23526  17.176  14.352  14.434 -0.2392 -0.1038  0.1497
 6680W        W23527  14.884  11.444   2.368  0.2209 -0.0971 -0.2024
 6681W        W23528   2.422  13.325  10.876  0.0073  0.0790  0.2995
 6682W        W23529   8.347  14.750  11.502 -0.1122  0.2286  0.2584
 6683W        W23530  16.502   3.924  14.136 -0.0923 -0.2099  0.1604
 6684W        W23531   3.461   9.432   1.474 -0.2572 -0.3053 -0.3589
 6685W        W23532  11.885  14.185   3.341 -0.0982 -0.1185  0.1535
 6686W        W23533   8.091  16.686   2.898 -0.1239 -0.0180 -0.1153
 6687W        W23534  15.101   6.575  11.083 -0.1202  0.0603  0.1224
 6688W        W23535   1.629   8.607  14.113  0.4388 -0.4151 -0.0519
 6689W        W23536   6.495   6.403  11.928 -0.0935 -0.0461  0.0489
 6690W        W23537  14.337  10.151  12.930 -0.0999 -0.1788 -0.3414
 6691W        W23538   0.964   4.024   0.260 -0.1487 -0.0857  0.2044
 6692W        W23539   0.260   8.055  11.923 -0.1648  0.0870  0.0271
 6693W        W23540  17.828   5.574   1.286 -0.1336  0.2966  0.0001
 6694W        W23541  14.437  18.159   0.032 -0.1213  0.0222 -0.1237
 6695W        W23542  16.136  12.505   3.630 -0.0199 -0.2245  0.0126
 6696W        W23543  18.029   3.419  14.499 -0.0001  0.0218 -0.0451
 6697W        W23544  15.281  18.161   5.019 -0.2701  0.0973 -0.1174
 6698W        W23545  15.704   4.784  11.322 -0.1264 -0.2528  0.1948
 6699W        W23546  16.864   2.074  12.208  0.1161 -0.2357  0.1461
 6700W        W23547   0.408   8.098   5.154 -0.0835 -0.0134  0.1745
 6701W        W23548  13.403  15.207   2.186 -0.3028  0.0419  0.1479
 6702W        W23549   3.686  17.605   1.831  0.0578 -0.1730 -0.0328
 6703W        W23550   3.095   8.226   2.588  0.0092 -0.1706 -0.1566
 6704W        W23551  13.036   9.669   4.945  0.0175  0.0355  0.2693
 6705W        W23552   8.976  17.470  15.045  0.2931 -0.1448 -0.1299
 6706W        W23553   6.132   8.737   5.307  0.0749  0.1353  0.0533
 6707W        W23554   2.866   2.623   3.513  0.1853 -0.0614  0.2902
 6708W        W23555  10.775  16.387  11.261  0.2407  0.0116 -0.0555
 6709W        W23556   2.351   0.224  12.404 -0.0757  0.1856  0.0638
 6710W        W23557   4.570  11.215   1.463 -0.0505  0.0341 -0.0869
 6711W        W23558  18.177   8.149   3.988  0.3999 -0.2134 -0.2501
 6712W        W23559  17.981   1.316  12.653 -0.3312  0.1316  0.1496
 6713W        W23560  17.702   5.154   2.480  0.0941  0.0688  0.0443
 6714W        W23561   4.739  13.928   2.215 -0.1891 -0.1940 -0.1294
 6715W        W23562  11.612  10.273   5.290  0.3983  0.4382  0.0935
 6716W        W23563   9.473   0.199  11.227 -0.2342 -0.1196 -0.0143
 6717W        W23564   3.558   5.036   2.422  0.1431  0.3464  0.0501
 6718W        W23565  10.099   5.141   4.700 -0.4449  0.0813  0.2223
 6719W        W23566  10.648   8.324  12.968 -0.0687  0.2908  0.2637
 6720W        W23567   0.804  13.430   1.044 -0.0338 -0.1500  0.2179
 6721W        W23568   5.918  16.185   3.879  0.0182  0.2091 -0.2080
 6722W        W23569   1.033  17.360  15.371 -0.0010 -0.0616  0.0378
 6723W        W23570   6.818  12.035  11.306 -0.2001 -0.2304 -0.3288
 6724W        W23571  12.322  13.207   4.359  0.0703  0.4405  0.0726
 6725W        W23572   8.095  11.029   2.999 -0.0780  0.2374 -0.1417
 6726W        W23573   8.586  15.657   1.882  0.0129  0.0485  0.2327
 6727W        W23574   6.719  10.282   4.088  0.3418 -0.1150  0.2919
 6728W        W23575   6.709  10.504  11.754 -0.1317  0.1950 -0.2662
 6729W        W23576  16.709   4.846  12.426  0.2453 -0.4168  0.0059
 6730W        W23577  15.892  16.188   0.759  0.2116  0.2224  0.0651
 6731W        W23578  17.964  15.023  10.623  0.1140  0.0269 -0.0134
 6732W        W23579   1.142  14.217   0.683 -0.1998 -0.0717  0.1390
 6733W        W23580  11.844  10.190   4.395 -0.1173 -0.1231 -0.0479
 6734W        W23581   4.551   5.150   2.224  0.1512 -0.0644 -0.0064
 6735W        W23582  12.760  18.060   3.325 -0.2107 -0.1976  0.4246
 6736W        W23583   9.874   0.879  10.740  0.4244  0.2057 -0.0272
 6737W        W23584   6.737   7.240  11.090 -0.1320 -0.0752  0.0679
 6738W        W23585   8.680  10.491  12.454 -0.2849 -0.0124 -0.2683
 6739W        W23586   5.699  15.605   3.376  0.2557 -0.1379  0.1518
 6740W        W23587   6.395   6.022  13.512  0.0554 -0.0435 -0.0297
 6741W        W23588   0.619  16.587  10.219  0.0629  0.0961  0.1807
 6742W        W23589   4.835   5.334  12.797 -0.1008 -0.1426 -0.0814
 6743W        W23590  11.649  11.753  13.977  0.1055  0.2596 -0.0147
 6744W        W23591   0.258   1.519   3.218 -0.0516 -0.0358 -0.1277
 6745W        W23592  12.228   5.387   0.296  0.2596  0.1683 -0.0556
 6746W        W23593  15.727   8.542  13.329  0.2625 -0.0166  0.0657
 6747W        W23594  12.168  10.966  10.912  0.1206 -0.0562 -0.2290
 6748W        W23595   2.973   9.232   4.741 -0.0759 -0.0397  0.1095
 6749W        W23596   7.044  10.122   3.683  0.3394 -0.2593 -0.1019
 6750W        W23597  16.043  14.877  12.924  0.1658  0.0382 -0.2236
 6751W        W23598   3.158   6.639   9.837 -0.0850 -0.2550  0.1061
 6752W        W23599  10.801   0.805  12.138  0.2351  0.0211  0.2991
 6753W        W23600   6.199  13.346  13.563  0.0653  0.0438  0.0405
 6754W        W23601  16.012   3.510   2.449 -0.1903  0.0739 -0.2012
 6755W        W23602  12.477  11.477  12.347 -0.0500 -0.0968  0.3286
 6756W        W23603   7.259   1.549  11.867  0.0045 -0.1424 -0.1443
 6757W        W23604  12.237  10.706   4.649  0.2182  0.4124 -0.0442
 6758W        W23605   1.072   7.190   5.056 -0.2369 -0.0340  0.0823
 6759W        W23606   9.609  16.885  14.640  0.1324  0.1210 -0.0341
 6760W        W23607  10.291  10.465  12.992  0.1150  0.2089  0.3663
 6761W        W23608   8.154  11.424  15.010  0.0821 -0.0687  0.0193
 6762W        W23609   1.305  11.574  12.866 -0.0534  0.1457  0.1359
 6763W        W23610   6.905  17.945  14.412 -0.1784  0.0997  0.1083
 6764W        W23611   6.191  17.099   5.101 -0.0862  0.1453 -0.2124
 6765W        W23612   5.842   8.721   2.439  0.0653  0.1591  0.0950
 6766W        W23613   8.310  11.178   0.253 -0.2878 -0.1858 -0.1547
 6767W        W23614   7.292  13.987  13.142  0.1103  0.1605 -0.1446
 6768W        W23615  14.266   3.090   5.198 -0.0649 -0.2087 -0.0240
 6769W        W23616  13.677   1.199   1.292  0.0171  0.2796  0.3721
 6770W        W23617   9.200   8.149   4.314 -0.2423  0.3482 -0.0486
 6771W        W23618  13.961   6.857  12.966  0.5397 -0.1500 -0.2145
 6772W        W23619  13.206  14.790  15.374 -0.4034  0.0488 -0.1893
 6773W        W23620  18.224  18.578   3.572 -0.0398  0.2230  0.3922
 6774W        W23621  13.928  13.745  15.022  0.0471 -0.4200  0.1465
 6775W        W23622   5.255  16.285   9.685  0.1783 -0.0839  0.0394
 6776W        W23623   6.494  18.317  11.883  0.2696  0.0246 -0.2634
 6777W        W23624  10.783  11.393  10.907  0.0746  0.0340 -0.1462
 6778W        W23625   7.428   2.806  14.049  0.0304  0.1560  0.0088
 6779W        W23626  18.256   5.507   1.636 -0.1589  0.0887  0.3579
 6780W        W23627  16.567   7.728  13.065  0.3260 -0.1207 -0.2302
 6781W        W23628   2.853  12.559   5.012  0.0480  0.1848  0.1706
 6782W        W23629   0.325   9.008  12.987  0.1161 -0.2134 -0.3856
 6783W        W23630   0.625   1.135  12.866  0.0523 -0.1916  0.2249
 6784W        W23631   9.267  11.266  13.067  0.1936 -0.2178 -0.3179
 6785W        W23632  10.491   3.031  10.929 -0.1238  0.0470  0.0810
 6786W        W23633   4.762  13.450   4.194 -0.1176 -0.1779  0.1644
 6787W        W23634  15.402   7.005  14.969  0.0937  0.1609 -0.0122
 6788W        W23635  16.588   1.287  13.769 -0.1738  0.3381  0.1908
 6789W        W23636   4.989  18.764   1.933 -0.1400 -0.3426  0.0910
 6790W        W23637  12.404  10.623  12.591  0.0897  0.0192  0.1423
 6791W        W23638   3.108  15.082   0.579  0.0684 -0.0475 -0.1332
 6792W        W23639  17.334   4.084  10.678  0.3479  0.0462  0.0212
 6793W        W23640  18.677  13.459   0.551  0.0245  0.1121  0.1481
 6794W        W23641   3.231  11.823   4.685  0.2770  0.1021  0.0364
 6795W        W23642   8.055  13.083   2.829 -0.2083 -0.2244 -0.0194
 6796W        W23643   2.614   0.123  10.477  0.1252 -0.3067 -0.1708
 6797W        W23644  11.269  16.356  11.983 -0.0623 -0.3460 -0.0779
 6798W        W23645  10.975  16.299   0.182 -0.2920 -0.2438 -0.1923
 6799W        W23646   8.285   0.352  13.539 -0.2195 -0.0535 -0.2935
 6800W        W23647  15.674  15.677   2.101  0.0518  0.1820 -0.0302
 6801W        W23648   1.669   8.135   1.206  0.1662 -0.1846 -0.0256
 6802W        W23649  13.471  17.524   0.591  0.1225  0.0240 -0.2207
 6803W        W23650   4.412  15.864   4.610  0.0272 -0.4468 -0.0638
 6804W        W23651  18.134  18.368  12.673 -0.0144 -0.0370 -0.2506
 6805W        W23652  11.387   4.903   0.310 -0.1902  0.0805  0.1532
 6806W        W23653  12.291   7.980  12.604  0.2359  0.0128 -0.1484
 6807W        W23654   1.653  14.098   0.812  0.1917 -0.1135  0.0250
 6808W        W23655  15.619   0.587  13.121  0.0615 -0.1175  0.1783
 6809W        W23656   7.232   2.285  13.140  0.2950  0.2044 -0.1584
 6810W        W23657   3.142   3.195  13.605  0.0234 -0.5240 -0.3373
 6811W        W23658   3.733   1.368   0.775  0.2785 -0.2394  0.0909
 6812W        W23659  11.667  12.572   3.425 -0.1172 -0.0214  0.2413
 6813W        W23660   2.819  10.515  11.661  0.3552 -0.2963 -0.1917
 6814W        W23661   2.166  14.408  11.649  0.1243 -0.1066  0.1528
 6815W        W23662  10.720  17.774  12.774 -0.2279  0.5932 -0.0838
 6816W        W23663  13.773  15.161   0.358  0.1249  0.1630 -0.1489
 6817W        W23664   1.678  12.941  14.902 -0.3691 -0.1146 -0.2957
 6818W        W23665  12.362  15.069  13.449 -0.1317 -0.1805  0.2622
 6819W        W23666  16.362   4.880  15.158 -0.2080 -0.1938 -0.1068
 6820W        W23667  15.039   1.727  11.090 -0.0445  0.1589 -0.2971
 6821W        W23668  14.261  18.816  13.671  0.1066  0.2814 -0.0043
 6822W        W23669   6.427  14.722   1.944 -0.1322 -0.1361 -0.2645
 6823W        W23670  14.695   0.208   4.924  0.0297 -0.1113  0.2599
 6824W        W23671   6.945   2.782   5.421  0.0774  0.2086  0.0195
 6825W        W23672   0.961  10.633  11.479 -0.1224  0.0202  0.4546
 6826W        W23673   1.570  17.614  12.014  0.1589 -0.0468  0.0787
 6827W        W23674  17.846  18.802  11.694  0.1257 -0.1624  0.4030
 6828W        W23675   0.781   9.023  13.166  0.3617 -0.0168 -0.0830
 6829W        W23676  13.672   9.747   1.715 -0.1751 -0.3608  0.0214
 6830W        W23677   2.490   0.232  11.775 -0.2151  0.3157 -0.0983
 6831W        W23678   6.636   2.823  12.018 -0.2144 -0.3377  0.0901
 6832W        W23679  11.399  16.122   3.508  0.1122  0.2089  0.2742
 6833W        W23680  13.647   6.484  10.836  0.0084 -0.3798  0.0905
 6834W        W23681  13.841  15.393   4.114  0.0044  0.1782 -0.0048
 6835W        W23682  13.805  17.951   0.341 -0.1924  0.2897  0.0579
 6836W        W23683   7.930  13.493  13.904 -0.1493  0.0161 -0.2989
 6837W        W23684   6.043  10.755  10.396 -0.1507 -0.1664 -0.1104
 6838W        W23685   5.484   7.103   0.654  0.0909 -0.1415 -0.3497
 6839W        W23686  18.382   7.072  13.515  0.0385 -0.3124 -0.0638
 6840W        W23687  10.554   6.877  14.161 -0.0567 -0.0100 -0.0067
 6841W        W23688   7.933   2.816   2.668  0.1294  0.0031 -0.2624
 6842W        W23689  12.263  13.463   2.350 -0.0410  0.3565 -0.1541
 6843W        W23690   5.718   8.011  14.270  0.2002  0.1764 -0.2675
 6844W        W23691  12.799   8.181   0.465 -0.0398  0.0987 -0.1192
 6845W        W23692   3.235  10.847   0.134 -0.0441  0.0998  0.1985
 6846W        W23693   3.291  12.688   2.714  0.1582  0.0648 -0.2355
 6847W        W23694  17.981  11.267  13.654 -0.2743 -0.2498  0.1695
 6848W        W23695  11.224  16.568  11.498  0.1490  0.0909  0.2721
 6849W        W23696  14.065  13.423   2.210  0.0237  0.0190 -0.2274
 6850W        W23697   2.812   1.603  15.287  0.2445  0.1302 -0.2919
 6851W        W23698   7.117  12.856  13.422 -0.0286 -0.1189  0.2259
 6852W        W23699   1.741  16.957  14.691 -0.0689 -0.1731  0.0252
 6853W        W23700   9.329  10.347   2.147 -0.1099  0.0079 -0.4264
 6854W        W23701  11.611   7.334   4.050  0.1364  0.0954 -0.3783
 6855W        W23702  12.539  16.437   0.702  0.0860  0.1674  0.2199
 6856W        W23703  13.933   8.743  15.072 -0.0788 -0.0060  0.2256
 6857W        W23704   5.774   9.280  10.537  0.2378 -0.2324  0.0751
 6858W        W23705   8.839  10.435   2.451 -0.0930  0.0362 -0.0875
 6859W        W23706  14.621   1.711   1.209 -0.1794 -0.0080 -0.0687
 6860W        W23707  17.012  13.833  12.609 -0.1481  0.1556 -0.1210
 6861W        W23708  18.727   8.178   1.299  0.0327  0.1503  0.0004
 6862W        W23709  12.167  15.926   2.191  0.2069 -0.1456  0.2862
 6863W        W23710  14.422   6.697  15.532  0.0513 -0.0825 -0.3087
 6864W        W23711  15.967   9.674  15.198 -0.0278  0.0201 -0.0386
 6865W        W23712  18.411   7.396   3.565  0.0706  0.3798 -0.3526
 6866W        W23713   8.807   0.724  11.229 -0.1778 -0.2769 -0.2303
 6867W        W23714   6.441  14.402   3.953  0.0531  0.3175 -0.0742
 6868W        W23715   4.406   8.475  11.275 -0.0378 -0.0720 -0.1554
 6869W        W23716   6.920   8.688   4.464 -0.1160 -0.1675  0.3419
 6870W        W23717  13.371  11.626   0.648  0.1528 -0.0455 -0.0448
 6871W        W23718  14.476  15.674  14.024  0.0474  0.3106 -0.0878
 6872W        W23719   8.855  18.279   0.487  0.1977  0.1771  0.1870
 6873W        W23720  15.946  11.765   0.171 -0.0163 -0.2903  0.0085
 6874W        W23721   2.858   7.850   3.044 -0.0605  0.3715 -0.1473
 6875W        W23722   5.940   6.891   0.757  0.0526 -0.2817 -0.0759
 6876W        W23723   5.277  17.416   3.956 -0.2527 -0.2713  0.0704
 6877W        W23724  16.761   1.716   5.349  0.0686  0.2930  0.2473
 6878W        W23725   7.617   8.639   1.746 -0.0371  0.3061 -0.0129
 6879W        W23726   0.075  17.254  12.101  0.0032 -0.0292 -0.0911
 6880W        W23727   2.779   6.822   0.594  0.1451 -0.3677 -0.1313
 6881W        W23728  12.127  16.768   0.963 -0.1711  0.3306 -0.3223
 6882W        W23729  12.832   2.276   2.965  0.2481  0.0442  0.2365
 6883W        W23730   7.569   6.609   2.824  0.1466 -0.0281  0.0946
 6884W        W23731   3.245   4.121  14.078 -0.0477 -0.0084  0.1657
 6885W        W23732   4.406   6.997   0.184 -0.2837  0.0528  0.0181
 6886W        W23733   6.752  15.384  12.823 -0.0667  0.1788  0.2095
 6887W        W23734   3.830  13.917   0.985 -0.1379  0.0231 -0.2765
 6888W        W23735  13.057  18.260  12.013 -0.1454 -0.2248 -0.0654
 6889W        W23736   3.731  15.760  11.263 -0.0754 -0.0902  0.1926
 6890W        W23737  10.880  17.250  14.578  0.0504 -0.0341  0.1741
 6891W        W23738   0.457  18.073  15.303 -0.1039  0.3077  0.0837
 6892W        W23739   1.376  16.322   3.089  0.1323 -0.0434 -0.4247
 6893W        W23740  13.228  12.432   3.526 -0.0208  0.0914  0.1653
 6894W        W23741   2.137   6.012   4.094  0.0264 -0.2217  0.2623
 6895W        W23742  12.879  18.677  12.296  0.0644 -0.2165  0.0999
 6896W        W23743   1.842  13.660  15.531  0.1511  0.5819 -0.4538
 6897W        W23744  11.485  16.533  12.507  0.0264 -0.0105 -0.3702
 6898W        W23745   0.318   9.728   3.247 -0.3345 -0.3159 -0.0098
 6899W        W23746  12.579  12.809   3.064 -0.0006  0.1193 -0.0174
 6900W        W23747  10.923  14.305  14.019 -0.0023 -0.1582  0.1706
 6901W        W23748   8.211  17.698   2.317 -0.2621 -0.0508 -0.1521
 6902W        W23749  14.654   5.680   4.614  0.0911 -0.0175 -0.0077
 6903W        W23750   1.640   9.699   4.506 -0.0040  0.1658  0.1406
 6904W        W23751   4.759  13.085   0.828 -0.3154 -0.1858  0.1393
 6905W        W23752   9.175   8.327   0.057  0.0813 -0.1166  0.0224
 6906W        W23753   1.664   8.664   2.447 -0.0179  0.0669 -0.5304
 6907W        W23754   2.004  14.043   2.049  0.2817  0.0559  0.0509
 6908W        W23755   0.694  13.164  14.216  0.2155 -0.1580 -0.1789
 6909W        W23756   0.481  10.020  12.543  0.2336 -0.1957 -0.3165
 6910W        W23757  12.246   6.433  14.533  0.0409  0.2578  0.2292
 6911W        W23758   0.638  12.992   3.046 -0.0427  0.1138 -0.1259
 6912W        W23759   9.596   7.244   4.019  0.2837 -0.1215 -0.2599
 6913W        W23760  16.116  16.652  14.647 -0.4221 -0.0494 -0.1578
 6914W        W23761  17.636  15.717   4.459  0.0833  0.0898  0.3679
 6915W        W23762   2.126  10.204  15.243  0.0767 -0.1881  0.2300
 6916W        W23763   0.978   0.325  14.190  0.0906  0.0813 -0.1319
 6917W        W23764   9.754   7.688   0.589  0.0361  0.2525 -0.1389
 6918W        W23765   0.950  14.679  11.920  0.0142  0.0076  0.4173
 6919W        W23766   2.738  12.271  13.952 -0.1256  0.3460 -0.2836
 6920W        W23767   9.351  10.868   1.486 -0.2510  0.4761 -0.1372
 6921W        W23768  12.733  17.977   0.148  0.1735 -0.1323  0.0216
 6922W        W23769   8.389  14.268  12.634 -0.1356 -0.1029  0.0116
 6923W        W23770   2.519   0.518   1.760 -0.1535  0.0459 -0.0105
 6924W        W23771   5.253   9.950   2.952  0.2631  0.1687 -0.1063
 6925W        W23772   4.242  15.502  15.416  0.0531  0.0661 -0.2057
 6926W        W23773   2.114   9.692  14.977  0.2045 -0.2031  0.1238
 6927W        W23774   5.292  12.803   2.511  0.0798 -0.0805 -0.1051
 6928W        W23775  10.133  12.630   3.766 -0.0541  0.4113 -0.1208
 6929W        W23776  15.324   3.117  14.353  0.1027  0.3087  0.1629
 6930W        W23777   2.978   5.515  14.203  0.0551 -0.0252  0.2802
 6931W        W23778   8.135   1.546   0.940 -0.2048 -0.1457 -0.0686
 6932W        W23779   5.580   1.909  14.044 -0.1108 -0.0199  0.0706
 6933W        W23780  18.067  18.816  14.381 -0.2724 -0.1531  0.0679
 6934W        W23781   8.058   9.128  15.155  0.2153 -0.1130 -0.3472
 6935W        W23782   6.869  18.378  15.192  0.1138  0.1654 -0.0709
 6936W        W23783  15.047   5.753  12.100 -0.1146 -0.2028 -0.1572
 6937W        W23784  11.680   9.978   3.917 -0.1881  0.0711  0.0182
 6938W        W23785  12.539  18.751   5.226 -0.3687  0.0450 -0.1331
 6939W        W23786   2.610   2.428   0.774  0.0120  0.1785  0.0083
 6940W        W23787   8.386  17.469  12.436  0.1934 -0.3204 -0.0779
 6941W        W23788  10.426   6.231  14.062  0.1390 -0.0222 -0.1458
 6942W        W23789   3.215   7.309  11.023 -0.2156 -0.2544 -0.1256
 6943W        W23790  12.067   9.815  13.019 -0.1835  0.6989 -0.1087
 6944W        W23791   6.236   7.499   1.157 -0.1202  0.0758  0.0008
 6945W        W23792   0.136   5.235   4.640 -0.0305 -0.1329 -0.0788
 6946W        W23793   7.843  13.119  10.338 -0.1361 -0.2918 -0.0406
 6947W        W23794  16.649  11.057  15.106  0.3641  0.0688  0.2117
 6948W        W23795   3.255  12.919  13.655 -0.3129  0.3532  0.1255
 6949W        W23796  14.921  15.272   4.130  0.0373 -0.2660 -0.1098
 6950W        W23797  11.802   0.702  14.562 -0.0639  0.0700  0.0529
 6951W        W23798   2.350  16.535  10.488  0.0719  0.1031  0.0486
 6952W        W23799   6.124   9.496   1.022 -0.3395 -0.0322 -0.0771
 6953W        W23800   8.082  17.044   3.501  0.3763  0.0059  0.2927
 6954W        W23801   4.573  13.572  13.460 -0.3722 -0.2677 -0.1990
 6955W        W23802   1.433   1.958   1.018  0.2738  0.3169 -0.0886
 6956W        W23803  15.666   8.377   2.822 -0.0841 -0.2906 -0.2429
 6957W        W23804  13.961   6.868   0.184  0.2421 -0.1629 -0.0309
 6958W        W23805   7.627   6.182  11.474  0.2971 -0.0880 -0.2686
 6959W        W23806  17.051   0.829  13.167 -0.0146 -0.0975 -0.2434
 6960W        W23807   7.087   1.134   2.447  0.1210 -0.0164  0.0922
 6961W        W23808   8.001  16.744  14.524  0.0262 -0.2976 -0.2202
 6962W        W23809  10.883   0.076   4.929  0.0435  0.1323 -0.2126
 6963W        W23810  16.620   5.062  13.123 -0.0070 -0.1320  0.2747
 6964W        W23811   4.811  14.956  11.730 -0.0515  0.2856 -0.0431
 6965W        W23812  17.145  16.634   4.753 -0.2809  0.0093  0.3038
 6966W        W23813   6.178  10.079   5.098  0.0938  0.1123 -0.0997
 6967W        W23814   9.347   3.054   0.534 -0.0439 -0.2303  0.0475
 6968W        W23815  13.118  11.764  11.008 -0.2320  0.1139 -0.1934
 6969W        W23816   2.385   0.437  15.531  0.0862 -0.1377 -0.1531
 6970W        W23817   5.030  14.165  14.327  0.1728  0.1208 -0.1770
 6971W        W23818  16.442   3.843   2.529  0.0471 -0.1881 -0.0249
 6972W        W23819  11.746   7.114  14.913 -0.1422  0.1835  0.1322
 6973W        W23820  10.917  14.688   4.314 -0.1137  0.0536 -0.0141
 6974W        W23821  12.945   2.303   3.940 -0.1353 -0.2991  0.0478
 6975W        W23822   2.557  12.733   2.069  0.1641 -0.1800  0.0456
 6976W        W23823   5.927  16.863  11.951  0.0860 -0.4432 -0.0723
 6977W        W23824  14.519  16.875   3.764 -0.4742 -0.2426 -0.3912
 6978W        W23825  14.497  14.100   0.933 -0.1237 -0.1661  0.1025
 6979W        W23826  14.135  16.889  10.624  0.1015 -0.0046 -0.0738
 6980W        W23827   6.103   8.000   1.087 -0.0636 -0.5588  0.3381
 6981W        W23828  14.922  12.089  11.099 -0.2262 -0.3712  0.1857
 6982W        W23829   5.514  18.089  10.974  0.0159 -0.1408 -0.1462
 6983W        W23830  14.935  16.142   3.693  0.1385 -0.1094 -0.1520
 6984W        W23831   6.860  10.305  14.160 -0.0708 -0.0218  0.0903
 6985W        W23832  12.297   9.496  11.679 -0.1248 -0.1433 -0.2522
 6986W        W23833   4.070  14.805  11.286 -0.3134  0.1362 -0.0658
 6987W        W23834   6.048  18.356   0.193  0.1320  0.0867 -0.0416
 6988W        W23835   5.547  16.305   4.232  0.2121  0.0672 -0.2162
 6989W        W23836   7.973  16.289  15.104  0.2530  0.3047 -0.2135
 6990W        W23837   1.742   9.463   0.906  0.0699  0.2499  0.0417
 6991W        W23838  12.117   1.239  15.438  0.0398  0.1752 -0.0346
 6992W        W23839  12.475  13.851   1.020 -0.3340  0.2914 -0.0727
 6993W        W23840   0.831  12.701   4.985 -0.2035 -0.0963  0.1504
 6994W        W23841   7.309  18.027   4.764 -0.1249  0.0143  0.0205
 6995W        W23842   2.027   5.080   2.721 -0.0375  0.0831 -0.3269
 6996W        W23843  17.174   8.820   5.218 -0.0802 -0.1273  0.0588
 6997W        W23844  15.247  12.396   4.008 -0.4609  0.2562  0.1557
 6998W        W23845  10.629  13.859   2.108  0.1504  0.0703  0.2994
 6999W        W23846  15.000   9.665   3.096  0.0397  0.5547  0.1674
 7000W        W23847  12.946   5.921  15.354  0.1850  0.1644  0.1059
 7001W        W23848  16.837  12.017  14.361  0.2738 -0.0333  0.5596
 7002W        W23849   9.170  16.886   2.950 -0.0530 -0.3009  0.0586
 7003W        W23850   2.022   1.882   9.814 -0.0684  0.1293  0.0899
 7004W        W23851  18.228   5.470   4.648 -0.0508  0.1125 -0.0783
 7005W        W23852  14.317   5.523   2.782  0.1881 -0.2087 -0.2961
 7006W        W23853  13.721   6.643   5.160 -0.0315 -0.0586 -0.0081
 7007W        W23854  17.126  13.900  14.237  0.0372 -0.0008 -0.1469
 7008W        W23855  10.213  18.490  12.286 -0.1091 -0.1154 -0.1209
 7009W        W23856  16.662   8.882   4.493  0.0964  0.1454  0.0540
 7010W        W23857  15.806  16.987  10.456  0.1579  0.0813 -0.2451
 7011W        W23858   9.638   5.833   3.038  0.0685  0.2474 -0.1496
 7012W        W23859  15.090  10.866   0.877  0.0992 -0.2755 -0.1142
 7013W        W23860  12.794  10.326  10.997 -0.3336 -0.3275 -0.0884
 7014W        W23861   3.775   0.970  15.030 -0.1971  0.1084  0.1260
 7015W        W23862  10.572   2.058   1.071  0.2231 -0.2786  0.0985
 7016W        W23863   9.743  10.300  13.482  0.1165 -0.1320  0.0432
 7017W        W23864  10.196   4.717  12.134  0.2062 -0.0592 -0.2878
 7018W        W23865   6.772  16.548  15.487  0.0310 -0.0813  0.1755
 7019W        W23866   3.692   6.958  13.085  0.3810  0.3907 -0.0018
 7020W        W23867  15.211   2.696  14.640  0.1083  0.0453 -0.1878
 7021W        W23868  14.043   9.822   4.421 -0.0193  0.2081 -0.1160
 7022W        W23869   2.285   7.279  12.720  0.4315 -0.2870 -0.2790
 7023W        W23870   7.762  12.296  10.916  0.1373  0.2148  0.1731
 7024W        W23871  15.936   3.434  15.148  0.3283 -0.1535 -0.1267
 7025W        W23872   9.282   6.441  13.846 -0.3307  0.1181 -0.0602
 7026W        W23873   8.008   5.544   2.039  0.0013 -0.1914  0.5052
 7027W        W23874   6.391   5.295   0.475  0.1477 -0.2528  0.1168
 7028W        W23875   6.884  10.957  13.027  0.0465  0.0612  0.2331
 7029W        W23876   3.933  12.922   0.471 -0.1511  0.2047  0.0029
 7030W        W23877   7.229   1.446  11.371 -0.3150 -0.1804  0.4032
 7031W        W23878   2.117   6.061   5.114  0.1231 -0.2207  0.0097
 7032W        W23879   2.216   2.793   2.059 -0.2751 -0.0616  0.2060
 7033W        W23880   1.405  13.174   1.802  0.0151 -0.0243  0.0490
 7034W        W23881  15.375   3.579  14.421 -0.0251 -0.3189  0.2210
 7035W        W23882  18.076   9.228  13.846 -0.0601 -0.5012 -0.0524
 7036W        W23883  13.120   1.386   1.923 -0.1934 -0.2410 -0.1303
 7037W        W23884  14.666   4.444   0.238  0.2577  0.1442 -0.1358
 7038W        W23885  17.064   2.240   2.623  0.2977 -0.0466  0.3528
 7039W        W23886   7.731  16.956  13.643  0.1463 -0.1632  0.2742
 7040W        W23887   0.651  12.178  12.817 -0.0189 -0.4890  0.0081
 7041W        W23888   0.127   3.800  12.295  0.0705  0.3095  0.0518
 7042W        W23889  11.309  17.667  15.288 -0.1817  0.2050 -0.0496
 7043W        W23890   5.357  11.542  13.437  0.2823 -0.4415 -0.2097
 7044W        W23891   6.407  14.979   3.511  0.0487  0.0633  0.0243
 7045W        W23892  10.714   7.177  14.553  0.0094 -0.0404 -0.0423
 7046W        W23893   9.275   6.034   4.934  0.2232  0.1125 -0.0027
 7047W        W23894   2.762  13.979   5.479 -0.3146 -0.3436  0.0773
 7048W        W23895  18.057   3.577  15.371  0.1176  0.0338  0.0136
 7049W        W23896  10.283  16.554   1.588  0.1667 -0.1179  0.0290
 7050W        W23897  13.891   7.965  13.046  0.3337 -0.2887 -0.0797
 7051W        W23898  18.642   6.878   1.639  0.0427 -0.2367 -0.0581
 7052W        W23899   1.559  14.744  12.682  0.3560 -0.1408 -0.1628
 7053W        W23900  18.015   2.442   5.136  0.0588 -0.0876 -0.0272
 7054W        W23901  18.156  14.911  12.774 -0.2657  0.0632 -0.0468
 7055W        W23902  12.023  10.259   0.803  0.0845  0.0346  0.1559
 7056W        W23903   7.996   0.885   1.949 -0.0063  0.2208  0.2688
 7057W        W23904   9.092  11.082   3.129 -0.1205 -0.3650  0.0629
 7058W        W23905  10.688  17.712   2.049  0.0719 -0.4444  0.1491
 7059W        W23906   3.481   7.337   0.355  0.0334  0.0626  0.1873
 7060W        W23907   8.788  10.732   2.931 -0.1669 -0.3967 -0.1042
 7061W        W23908   5.686   0.743  11.867  0.0198  0.1238  0.0310
 7062W        W23909  13.074   7.928   2.499 -0.0999 -0.2351  0.1246
 7063W        W23910  16.304   9.318  13.179 -0.1356 -0.1069  0.3590
 7064W        W23911   6.968  16.256   1.781  0.0723  0.1120 -0.1669
 7065W        W23912   2.869   8.882   3.594 -0.1858  0.0681 -0.3936
 7066W        W23913   1.905  11.259  11.902  0.3085 -0.2873 -0.0688
 7067W        W23914   4.753  15.246  12.642  0.0245 -0.2273 -0.2508
 7068W        W23915  10.711  11.913  13.782 -0.2058  0.0686  0.1987
 7069W        W23916  13.796  16.214   1.649  0.0064  0.1713 -0.0852
 7070W        W23917   0.422  12.455  13.793 -0.2695  0.0041 -0.2351
 7071W        W23918   2.544   2.542  12.068 -0.1460  0.0617  0.1017
 7072W        W23919   5.047  10.223  14.034 -0.0127  0.1275  0.1506
 7073W        W23920  18.824   8.126  14.925  0.0586  0.4435 -0.0419
 7074W        W23921  11.821  15.218  14.103 -0.0825 -0.1585 -0.1896
 7075W        W23922   9.731  12.172  15.199 -0.4400  0.0269 -0.3827
 7076W        W23923   1.743   6.986  11.007 -0.1436  0.0065  0.1231
 7077W        W23924   1.024   3.507  12.713  0.1057 -0.1205  0.2178
 7078W        W23925  13.526   5.115  14.416 -0.1197 -0.2524 -0.2173
 7079W        W23926  13.649   9.546  11.458  0.3572 -0.1979  0.2164
 7080W        W23927   2.795   0.606   0.456 -0.0631  0.3569  0.1037
 7081W        W23928   2.637  16.762  11.222 -0.0720 -0.0205 -0.0741
 7082W        W23929   7.612  18.615  11.051 -0.1682  0.0525  0.0212
 7083W        W23930   5.715   2.966  12.661 -0.2352 -0.2331  0.1290
 7084W        W23931   1.160   2.277   4.727  0.0335  0.0442 -0.1916
 7085W        W23932   6.968   9.336  11.661  0.0540  0.1931 -0.3906
 7086W        W23933   9.415   5.659  15.553 -0.0825  0.2910 -0.0453
 7087W        W23934  14.233   1.996   1.122  0.2175  0.0414  0.1230
 7088W        W23935   2.095   3.912   1.247  0.2049 -0.0216 -0.0486
 7089W        W23936  16.127   8.841   4.441  0.0987  0.2138  0.1812
 7090W        W23937  16.562   7.465   3.292  0.2765  0.0372  0.4367
 7091W        W23938   2.563   5.984   4.872 -0.3555 -0.0163  0.0499
 7092W        W23939   2.568   9.731   3.547  0.1674 -0.1270  0.0428
 7093W        W23940   1.296  16.077  15.068 -0.0381 -0.1993  0.1187
 7094W        W23941  10.398  14.734   1.462  0.3236 -0.1811  0.3026
 7095W        W23942   1.109  14.090   4.944  0.2054  0.0452 -0.0931
 7096W        W23943  16.634   9.829   4.940 -0.0124  0.0336 -0.1176
 7097W        W23944   5.421  16.274  14.493  0.1585 -0.2472 -0.2748
 7098W        W23945  11.605  14.488   3.722 -0.1096 -0.1107 -0.1995
 7099W        W23946  15.954  15.436   3.297  0.2977 -0.2104 -0.2720
 7100W        W23947   0.763   7.212   4.252 -0.0665 -0.1707  0.3847
 7101W        W23948   1.282  12.997   1.357  0.4124 -0.2510 -0.0739
 7102W        W23949  17.607   5.709  10.189  0.1124  0.0517  0.3952
 7103W        W23950   9.711   7.043   2.584 -0.3757  0.3234  0.0370
 7104W        W23951   8.031   3.205   3.067 -0.0332  0.3149  0.0730
 7105W        W23952  18.139   8.623   3.841  0.0307 -0.2305  0.1955
 7106W        W23953   7.138   8.504   1.572 -0.1488  0.1193  0.0895
 7107W        W23954   0.926  16.939   2.760  0.0772 -0.0836 -0.1671
 7108W        W23955   9.348  13.860  11.908 -0.0820  0.1176 -0.1966
 7109W        W23956  16.019   0.164   2.337  0.1139 -0.1631 -0.0966
 7110W        W23957   7.138   1.423  14.596 -0.1973  0.1867 -0.2302
 7111W        W23958   4.069   6.141  13.845 -0.1363  0.2011 -0.0949
 7112W        W23959   0.901   9.322   0.440  0.1716 -0.3001 -0.2512
 7113W        W23960   2.196  16.585   0.190  0.0530 -0.1582 -0.0265
 7114W        W23961  13.408  14.714   3.373 -0.1237  0.0871 -0.1256
 7115W        W23962   9.880  15.880   1.603 -0.3348  0.1768  0.4579
 7116W        W23963   0.836   1.121  13.406  0.1793  0.3943  0.2562
 7117W        W23964   2.732   1.099  11.368 -0.1805 -0.0869 -0.2099
 7118W        W23965  10.025  13.452   5.057  0.1034 -0.0292  0.2131
 7119W        W23966   2.261  15.725  13.453 -0.0807  0.2288 -0.0393
 7120W        W23967   2.112  14.427  12.561  0.2099  0.2989 -0.0423
 7121W        W23968  18.606  15.544   1.120 -0.0362  0.1521 -0.0070
 7122W        W23969   0.649  17.126   4.199 -0.1843 -0.0788  0.0523
 7123W        W23970   6.599  12.300  15.124  0.0486  0.1417  0.1655
 7124W        W23971   8.405   8.940   3.690 -0.0370 -0.0477 -0.1502
 7125W        W23972   8.065   0.566   1.083  0.2849 -0.1218  0.1581
 7126W        W23973   8.862  11.596  13.255  0.3849  0.0583  0.1411
 7127W        W23974  17.079   9.076  15.306  0.0573  0.0792  0.2356
 7128W        W23975   2.295   4.951  11.352  0.0053  0.0207  0.0993
 7129W        W23976   7.068  13.180   4.438  0.2390  0.1370 -0.3553
 7130W        W23977   0.586   7.502  14.236  0.0753  0.1829  0.1606
 7131W        W23978   3.807   7.356  11.746 -0.3712  0.0276  0.0465
 7132W        W23979  16.973  14.075  14.829  0.1018 -0.0406 -0.3231
 7133W        W23980  15.875   6.651  13.155  0.1330  0.1721 -0.0200
 7134W        W23981   1.327   4.625   2.442  0.0213 -0.2299  0.0359
 7135W        W23982  17.422   9.435   4.291  0.0292 -0.1029 -0.1325
 7136W        W23983   2.691  16.639  12.141  0.0418 -0.1065  0.0859
 7137W        W23984  11.007  12.188   0.926  0.0002  0.1356  0.0518
 7138W        W23985  15.717  15.803   5.557  0.0739 -0.1917 -0.2082
 7139W        W23986   8.662  11.938  12.404 -0.1560 -0.0375  0.2117
 7140W        W23987  10.191  13.591  10.170 -0.0406 -0.1223 -0.0085
 7141W        W23988   6.730  15.663   3.004  0.3159  0.1962 -0.0323
 7142W        W23989   6.782  17.187   1.362  0.1452  0.1511 -0.1899
 7143W        W23990   0.683  15.986  11.153 -0.5048 -0.0529 -0.1125
 7144W        W23991  15.399   5.411   2.148  0.0490 -0.3148 -0.0899
 7145W        W23992   9.292  10.485   3.713 -0.2636  0.2198  0.2898
 7146W        W23993   4.381   5.103   3.470  0.0242 -0.3882  0.2829
 7147W        W23994  16.852  10.552   3.536 -0.2702  0.0709 -0.1707
 7148W        W23995   8.225  11.614  15.464  0.0475 -0.0156 -0.1427
 7149W        W23996   4.332  18.492   4.365 -0.2099  0.0632  0.3018
 7150W        W23997   0.701   5.224  12.376 -0.3613  0.0661 -0.4602
 7151W        W23998  11.250   4.245  13.096  0.0315 -0.2032 -0.1394
 7152W        W23999  15.583  18.263  13.887  0.0960  0.1229 -0.1006
 7153W        W24000  13.775   4.716   2.455 -0.3375 -0.2144  0.1821
 7154W        W24001  12.193  12.116   1.789  0.1772 -0.0359 -0.2832
 7155W        W24002  17.463   0.038  15.082  0.1090  0.2860  0.0958
 7156W        W24003  12.211   2.684  11.730 -0.1221 -0.2424  0.1845
 7157W        W24004  10.149  15.009  11.332  0.1937 -0.0181  0.0073
 7158W        W24005  15.437   4.255  14.793  0.2665 -0.0804  0.2517
 7159W        W24006   2.516   2.326   3.769 -0.1758  0.0576 -0.3498
 7160W        W24007   2.001  13.594  13.734 -0.1981 -0.1825 -0.1963
 7161W        W24008  12.327  12.412  12.794 -0.0117 -0.2609 -0.1462
 7162W        W24009  17.063  13.515   4.327 -0.1675  0.0534 -0.0725
 7163W        W24010  17.443  17.010  13.772 -0.0725 -0.3072 -0.0901
 7164W        W24011  18.589  12.486   3.217 -0.0317  0.0660 -0.3214
 7165W        W24012   6.200  13.466   4.920  0.0805  0.0728 -0.5191
 7166W        W24013   1.354   6.100  14.050 -0.1732  0.0968  0.2588
 7167W        W24014   0.082  12.089  13.395 -0.3798  0.1691 -0.1009
 7168W        W24015   4.265  15.611   5.009  0.0361 -0.0212  0.1929
 7169W        W24016   2.969  15.514  12.799  0.4464  0.1292  0.0291
 7170W        W24017  18.463  16.778  11.277  0.2169 -0.0871  0.2304
 7171W        W24018   7.071  18.484  12.065 -0.3569  0.1919  0.2030
 7172W        W24019   1.854   1.206   0.612  0.1524 -0.1783  0.0040
 7173W        W24020   2.382   4.202   0.254 -0.2058  0.1655 -0.2336
 7174W        W24021  13.368  16.260   1.359 -0.4466 -0.0304  0.2697
 7175W        W24022   5.630   6.440  13.259 -0.0521  0.0314  0.1596
 7176W        W24023   5.914  12.608   3.713 -0.2012  0.1571  0.0796
 7177W        W24024  14.639  13.426  13.660 -0.1959  0.1277 -0.0405
 7178W        W24025  15.166   4.080  11.233 -0.1314 -0.2534 -0.1685
 7179W        W24026  17.953   8.026   4.471 -0.1257 -0.2714  0.0972
 7180W        W24027   0.096  14.970   0.419  0.0763 -0.2042  0.0156
 7181W        W24028  13.903  10.404   3.761  0.1370  0.0292 -0.3677
 7182W        W24029  14.691  11.155  12.029  0.0257  0.3229 -0.2813
 7183W        W24030   7.603  11.746   0.393 -0.0070 -0.1599  0.0183
 7184W        W24031  12.568   8.600  13.861  0.3141  0.0167  0.2459
 7185W        W24032   1.846  14.479   5.327  0.0607 -0.0506  0.2790
 7186W        W24033   4.334   3.686   3.642  0.1573  0.2595 -0.0916
 7187W        W24034   9.308  14.088   3.325 -0.2599  0.0579 -0.4071
 7188W        W24035  15.784   7.814  12.127  0.1005 -0.0650  0.1309
 7189W        W24036   7.095   0.274   1.473 -0.0234  0.2884  0.1500
 7190W        W24037   9.224   6.662   0.851  0.0826  0.1438  0.0159
 7191W        W24038  14.736  11.220  14.825 -0.0617  0.1122  0.1308
 7192W        W24039   0.721  12.685   3.906 -0.1740 -0.0354 -0.4325
 7193W        W24040   1.297   6.564   4.165 -0.1474 -0.0012  0.1722
 7194W        W24041   5.532   7.269   3.595  0.2151  0.0702  0.0196
 7195W        W24042  16.616   6.044  13.364  0.1470 -0.0808 -0.1198
 7196W        W24043   2.808  10.882  10.933 -0.1928 -0.3344 -0.0831
 7197W        W24044   9.278  17.228  14.291  0.4529 -0.0883  0.1216
 7198W        W24045  18.294  10.451   0.178 -0.2296  0.2363 -0.0749
 7199W        W24046   7.366  15.288  14.977 -0.2754 -0.1666 -0.1956
 7200W        W24047   4.264  12.253   5.303 -0.1213 -0.1570  0.1439
 7201W        W24048  13.826   4.700  13.582  0.2252  0.1264 -0.0307
 7202W        W24049   1.683  18.382  11.537 -0.1613  0.3226 -0.4559
 7203W        W24050  11.510   4.310   2.507  0.3399 -0.1322  0.0256
 7204W        W24051   9.731  13.288  13.346 -0.0261 -0.0301  0.0269
 7205W        W24052  16.243  10.136  14.964 -0.0409  0.1424  0.1348
 7206W        W24053   0.674   9.590   1.170 -0.3255  0.2217 -0.0912
 7207W        W24054   8.305   1.155  13.990 -0.2068 -0.0528 -0.3188
 7208W        W24055   7.460  17.874   0.756  0.1580  0.1856  0.1823
 7209W        W24056  18.435  14.697   0.219 -0.0436 -0.1304  0.1454
 7210W        W24057  17.306   4.751   1.086 -0.1433 -0.2400  0.0719
 7211W        W24058   7.051   8.362  14.881 -0.0312 -0.2314 -0.0656
 7212W        W24059   6.763  11.006  10.943 -0.1643  0.0153  0.1388
 7213W        W24060  16.607  14.253   9.956  0.0962 -0.0462  0.0350
 7214W        W24061  18.840   6.190   3.735 -0.4439  0.0593  0.2339
 7215W        W24062   3.302   7.947  15.300 -0.2938 -0.0900  0.1966
 7216W        W24063  16.781  11.835   0.708  0.0540  0.0006  0.3895
 7217W        W24064   0.570   2.333   4.854 -0.0073  0.2634 -0.1271
 7218W        W24065   5.639  14.533  11.941  0.0504  0.2336 -0.0487
 7219W        W24066  11.815   9.420   4.512 -0.0396 -0.1552 -0.1769
 7220W        W24067   3.709  11.416  12.758 -0.1958  0.1375  0.1429
 7221W        W24068  10.812  18.827  13.565  0.1382  0.3726  0.1940
 7222W        W24069   7.453  10.387  13.508 -0.0392  0.0707  0.1270
 7223W        W24070  16.985  11.720  13.958  0.2419 -0.1445 -0.2146
 7224W        W24071  14.972   6.145   4.834 -0.1669 -0.0326 -0.2862
 7225W        W24072   3.658  11.050  12.226  0.2698  0.0035  0.0622
 7226W        W24073  10.961  13.491   4.872 -0.4089 -0.0970 -0.2318
 7227W        W24074  18.508  11.322  11.958  0.0304  0.0030 -0.1297
 7228W        W24075   9.686  13.268  10.837 -0.0889  0.1478 -0.0328
 7229W        W24076  15.346  17.959  10.963  0.0710  0.2637 -0.0402
 7230W        W24077  18.454   6.858   1.165 -0.2305  0.3426  0.1527
 7231W        W24078   0.861  16.756   4.796 -0.0058  0.1981 -0.0585
 7232W        W24079   5.048   9.997   4.872 -0.0763 -0.0912 -0.1513
 7233W        W24080  14.127  11.299   3.837 -0.0309  0.1919 -0.1254
 7234W        W24081   1.814  16.727   1.003  0.2077  0.2330 -0.0233
 7235W        W24082  18.154  17.733   4.713  0.1350  0.2298  0.0207
 7236W        W24083   8.337   8.632   0.542  0.1097  0.1661  0.3278
 7237W        W24084  11.103   7.457  11.052  0.2376 -0.0897 -0.1856
 7238W        W24085   5.417  10.866  11.119  0.1523 -0.0150 -0.3295
 7239W        W24086   6.004   2.572  13.984 -0.0554 -0.2207  0.0888
 7240W        W24087   5.084  17.324  12.348  0.0834  0.1036  0.1396
 7241W        W24088  12.574   6.250  12.536  0.1103 -0.0268 -0.1226
 7242W        W24089  11.182   2.660   0.515  0.2416  0.2131 -0.1330
 7243W        W24090  13.840  13.243   4.367 -0.1317 -0.0513 -0.2405
 7244W        W24091  18.631  16.752   2.865 -0.2368  0.1117  0.0995
 7245W        W24092   3.536   2.773  14.939 -0.3439 -0.2262  0.0824
 7246W        W24093   5.925  14.985  14.716 -0.1186  0.0958 -0.1538
 7247W        W24094   1.859   4.850  14.316  0.0260  0.0467  0.1290
 7248W        W24095  16.144   4.585   0.013 -0.0337  0.1305  0.0785
 7249W        W24096   9.962   0.538  13.625  0.2494  0.1099  0.0371
 7250W        W24097   4.839   9.090  13.410  0.1475 -0.3379 -0.0310
 7251W        W24098  10.924   4.867   3.696  0.2570  0.1889  0.0865
 7252W        W24099  17.405  16.785   4.348 -0.1652  0.5087 -0.2624
 7253W        W24100  18.041  17.568  14.771 -0.2930 -0.0581  0.0243
 7254W        W24101  17.006   3.438   4.577 -0.4384  0.1674 -0.1038
 7255W        W24102  15.920  16.726  13.175  0.0181  0.0896  0.0888
 7256W        W24103  13.737  10.177  12.727  0.0168  0.0714  0.2229
 7257W        W24104   4.436   3.074   3.898  0.0445 -0.0673  0.0432
 7258W        W24105   1.559   0.109   1.601 -0.1150 -0.1849 -0.1539
 7259W        W24106  10.719   4.722   4.132 -0.4360  0.1262 -0.0795
 7260W        W24107   3.267  14.791   1.789  0.0417 -0.2323  0.0441
 7261W        W24108   8.168   8.127  15.240 -0.1958  0.3456 -0.2025
 7262W        W24109  16.516   5.176   5.100  0.0407 -0.0556  0.0042
 7263W        W24110  12.153   0.488   2.919  0.2382 -0.1288  0.1604
 7264W        W24111  14.962  14.922  12.117  0.0318  0.0643 -0.1972
 7265W        W24112  18.193   0.595  13.759  0.2153 -0.0652  0.2411
 7266W        W24113  12.733  11.057  13.059  0.0307  0.1973 -0.1279
 7267W        W24114  18.624   6.184  15.371  0.0565  0.2234 -0.0381
 7268W        W24115   4.584   3.133  11.756  0.0855 -0.2301 -0.0232
 7269W        W24116  11.416   7.456   3.173 -0.1152  0.1101  0.2736
 7270W        W24117  10.590   0.532  11.361 -0.1373 -0.1183 -0.1614
 7271W        W24118   2.207   0.376  10.871  0.0906 -0.1024  0.2981
 7272W        W24119  11.799  13.750  10.281  0.1344 -0.0062  0.0229
 7273W        W24120  13.759  14.214  11.071 -0.0548 -0.4217  0.0719
 7274W        W24121   7.062   8.123  11.390 -0.1500 -0.2456 -0.1888
 7275W        W24122   4.596   1.528  10.588  0.2488 -0.1792 -0.2254
 7276W        W24123  11.688  14.005  14.869 -0.2198  0.0449 -0.3888
 7277W        W24124  11.538   6.577   1.096 -0.1331 -0.1355 -0.1346
 7278W        W24125  11.333  12.729  13.224  0.1393 -0.1664  0.3365
 7279W        W24126   6.998   9.443  10.867  0.3720  0.0917  0.0753
 7280W        W24127   8.529  18.595   3.479  0.0108 -0.1425  0.3030
 7281W        W24128   6.398   3.326  10.397 -0.0474 -0.3750 -0.0763
 7282W        W24129  15.870   3.697   5.640  0.0171 -0.2096 -0.0560
 7283W        W24130   9.949  15.585  13.186 -0.2783  0.0725  0.4982
 7284W        W24131   3.614   2.834   4.411  0.3226  0.1295  0.0010
 7285W        W24132   7.644  13.108  14.703  0.0566 -0.0826 -0.0839
 7286W        W24133   1.100  13.415  14.318  0.0789  0.0122 -0.4557
 7287W        W24134  14.722   9.752   5.900 -0.2842 -0.0754 -0.1834
 7288W        W24135   8.305   3.961  11.934  0.1360  0.0681  0.1280
 7289W        W24136   6.388  17.859   3.518  0.1263 -0.0543 -0.1295
 7290W        W24137   7.518  14.649   0.201  0.0869 -0.1630  0.1664
 7291W        W24138   6.353  16.920  13.185  0.1913  0.1159 -0.3524
 7292W        W24139   5.388   5.641  14.332 -0.3458 -0.1976 -0.0397
 7293W        W24140  18.183  10.019  15.137 -0.1317 -0.0134  0.1027
 7294W        W24141  10.513  16.740  14.725  0.0178 -0.1170 -0.1486
 7295W        W24142  11.743   9.749  10.787  0.1907 -0.2171 -0.2186
 7296W        W24143   9.980  14.544  13.183  0.0073  0.0822  0.0512
 7297W        W24144  15.067  14.748  14.092 -0.1161  0.0091  0.0640
 7298W        W24145   2.370  13.412  11.833  0.0316  0.3768 -0.1252
 7299W        W24146   1.429   4.640  13.409  0.0367  0.3540 -0.0457
 7300W        W24147   9.863   9.017  12.634 -0.2994  0.0666 -0.0443
 7301W        W24148  15.384   6.656  13.143 -0.2179 -0.2343  0.0555
 7302W        W24149  16.266  12.594   2.726 -0.0948  0.2153  0.0372
 7303W        W24150  10.218   1.105   5.775  0.1019  0.1224  0.0234
 7304W        W24151  16.605   5.812  12.778  0.0504  0.1284 -0.1298
 7305W        W24152  16.502   3.643   4.841 -0.2135 -0.1287  0.2651
 7306W        W24153   5.393  17.059  15.503  0.0791 -0.0748  0.0412
 7307W        W24154  15.676  17.469  13.479 -0.0295  0.0006 -0.0397
 7308W        W24155   5.792  12.617   0.625 -0.0628 -0.0138  0.0935
 7309W        W24156   3.510   8.492  14.480 -0.0844 -0.1641  0.0772
 7310W        W24157  10.947   0.066  12.724  0.1658 -0.3352 -0.1919
 7311W        W24158  17.090  13.013  14.592 -0.3435 -0.0682  0.0547
 7312W        W24159   2.974   4.330   1.232 -0.3804  0.0954 -0.2633
 7313W        W24160   4.091  13.296  14.694  0.1206 -0.1964 -0.0560
 7314W        W24161  18.322  11.047  10.286 -0.1324 -0.0486 -0.0426
 7315W        W24162   8.609   3.198  15.413  0.3435  0.1839  0.1152
 7316W        W24163   5.023   4.839   0.794  0.2954 -0.0159  0.3950
 7317W        W24164   6.110   2.551   3.426 -0.2981  0.4351  0.0616
 7318W        W24165   5.199   7.782  12.922  0.0103  0.1271 -0.1619
 7319W        W24166  12.559   2.088   0.345  0.2020 -0.2641 -0.1196
 7320W        W24167  11.043   9.223   0.418 -0.0275 -0.0557 -0.1120
 7321W        W24168  12.447   5.056   5.153  0.1105 -0.3142 -0.0868
 7322W        W24169   0.364   0.019  15.442 -0.1074 -0.0530  0.2448
 7323W        W24170   5.744  14.653  12.466 -0.0153  0.2819 -0.0997
 7324W        W24171  11.640  17.029  13.615  0.1177  0.4200  0.1978
 7325W        W24172   7.315  15.458  12.728 -0.3934 -0.3165 -0.5736
 7326W        W24173  12.746  12.343  13.073 -0.0617  0.1468 -0.2553
 7327W        W24174   0.217  16.507   3.024 -0.1696  0.0426 -0.2130
 7328W        W24175   1.074  12.216   1.170 -0.2933  0.1815  0.0359
 7329W        W24176   6.064  12.603   2.702  0.1248  0.0408  0.2371
 7330W        W24177   9.180   1.026   4.640 -0.1070 -0.1984 -0.0684
 7331W        W24178   1.127  15.050   1.870  0.2024  0.2157  0.0381
 7332W        W24179   9.296   9.948   3.757 -0.1343  0.1888  0.2453
 7333W        W24180  14.963   7.788   5.423 -0.0163 -0.0150 -0.0058
 7334W        W24181   3.463   6.470  13.016  0.1671  0.0598  0.1690
 7335W        W24182  16.440  17.625   3.073 -0.0381 -0.0300  0.3484
 7336W        W24183   3.477   3.040  12.569  0.0452 -0.1476  0.0727
 7337W        W24184   1.041   1.343  13.034 -0.0848  0.2296 -0.0623
 7338W        W24185   5.710  13.098   4.032 -0.1046 -0.0960 -0.0820
 7339W        W24186   0.334  18.119   1.968 -0.0307 -0.1420 -0.0202
 7340W        W24187  15.754  14.285   1.713 -0.1027 -0.1983 -0.3796
 7341W        W24188  18.557   3.403  12.474 -0.2302 -0.2134 -0.0007
 7342W        W24189  17.984  17.966  11.517 -0.0431 -0.0483 -0.1173
 7343W        W24190  14.280   2.559  12.263 -0.0363 -0.0203  0.1409
 7344W        W24191  17.347   9.681  14.689  0.1972 -0.0248 -0.0800
 7345W        W24192   1.425   2.931  14.348  0.1159 -0.0959 -0.6034
 7346W        W24193  14.271   7.546   4.043  0.0268  0.1686  0.2366
 7347W        W24194   6.599   4.384   4.957  0.1679 -0.0536 -0.1213
 7348W        W24195  16.270   9.533  13.855 -0.0360 -0.1208 -0.0137
 7349W        W24196   4.928  12.631  12.991  0.0495 -0.0654 -0.0181
 7350W        W24197   3.166   5.096   0.625  0.3709 -0.1392  0.2621
 7351W        W24198  10.995  12.558   0.082 -0.0480 -0.2441  0.4167
 7352W        W24199   2.950  16.011  10.156  0.0303 -0.0241 -0.3360
 7353W        W24200  18.578  16.315   3.112 -0.4359 -0.1652 -0.1711
 7354W        W24201   7.404  11.753  12.470 -0.1519 -0.2013 -0.0129
 7355W        W24202   6.944   7.306   2.522 -0.0239 -0.0157 -0.0915
 7356W        W24203  10.165   1.469   4.889 -0.4207  0.2389  0.0177
 7357W        W24204  11.997  15.522   3.535 -0.2870 -0.0259 -0.0065
 7358W        W24205  11.059   3.317   5.694 -0.1754 -0.2374  0.0139
 7359W        W24206   7.888   5.593   0.315  0.1885  0.2100 -0.0333
 7360W        W24207   9.049  17.014   4.587 -0.0914  0.1399 -0.2556
 7361W        W24208   3.503   5.722   5.411 -0.0143  0.0237  0.2028
 7362W        W24209  13.448   4.404  11.162  0.1827 -0.2433  0.0097
 7363W        W24210   8.388  14.509  15.306  0.1197  0.0863 -0.1551
 7364W        W24211   2.264  12.385   1.030 -0.0154 -0.0557 -0.0936
 7365W        W24212  15.409  10.174  10.765 -0.0871 -0.3214  0.0528
 7366W        W24213   1.283  12.309  15.156  0.2325 -0.1815 -0.1460
 7367W        W24214  15.590   7.502  12.950 -0.2725  0.0409 -0.2460
 7368W        W24215  14.480  10.155   5.733  0.2667 -0.0791  0.1460
 7369W        W24216   1.197  10.712   0.349  0.0979 -0.2893 -0.1730
 7370W        W24217   8.633   8.736  10.692 -0.0014  0.1795  0.2002
 7371W        W24218  15.651  14.133   3.363  0.3238 -0.0284  0.0875
 7372W        W24219  17.433   1.692  13.438 -0.1166  0.1567  0.0084
 7373W        W24220   2.145  12.347  15.188 -0.1241 -0.1942  0.0198
 7374W        W24221   2.407  11.311   5.455  0.1236  0.0747 -0.0239
 7375W        W24222   2.439  10.425  12.957  0.1652 -0.0196  0.1640
 7376W        W24223  13.416  18.755   3.119 -0.1313 -0.0058  0.3273
 7377W        W24224   2.637   4.669   2.295 -0.0507 -0.3566 -0.1283
 7378W        W24225  16.488  10.153  13.389 -0.0065 -0.0378  0.2114
 7379W        W24226   0.072   2.542  11.986 -0.0575  0.1433  0.1257
 7380W        W24227  13.695  11.204  12.116 -0.0544  0.0434  0.0061
 7381W        W24228  14.943   9.612   0.898  0.0607 -0.0292  0.0065
 7382W        W24229   4.479  14.334  12.520  0.0105 -0.0985 -0.0637
 7383W        W24230   3.299   0.941   2.693  0.2736  0.1961 -0.0019
 7384W        W24231   9.939  15.019   3.966 -0.2437 -0.1419  0.1037
 7385W        W24232   1.803  11.074   2.832 -0.0387  0.1033 -0.2411
 7386W        W24233  12.955  11.696  12.361  0.0065  0.2599  0.2963
 7387W        W24234   3.807  12.805  11.435  0.0391  0.0023 -0.0327
 7388W        W24235   7.062  10.768  14.438 -0.1856  0.0142 -0.1660
 7389W        W24236   8.765   0.740   4.433  0.1268 -0.0790 -0.4307
 7390W        W24237   5.671   6.325   4.769 -0.1371 -0.2804  0.0675
 7391W        W24238  17.427  10.037  15.464 -0.4755 -0.0431 -0.0615
 7392W        W24239   5.147  13.439   0.634 -0.2228  0.0820 -0.0675
 7393W        W24240   4.662  11.684  12.082 -0.1891  0.1966  0.4046
 7394W        W24241  12.045   3.722   3.474 -0.0723  0.2005  0.2062
 7395W        W24242  14.195  11.413   4.313 -0.0803 -0.0740 -0.1781
 7396W        W24243   4.365  11.480   4.295  0.3490 -0.1229 -0.1187
 7397W        W24244  18.007   6.523  12.795  0.2129  0.1595 -0.0162
 7398W        W24245  17.899   9.194   4.144  0.0362 -0.1181  0.1770
 7399W        W24246  14.670   3.833  12.469 -0.2331 -0.0289  0.4471
 7400W        W24247  14.960  15.925  14.649 -0.1308 -0.0275 -0.0157
 7401W        W24248  12.599  10.146  10.549  0.1136 -0.0058  0.0981
 7402W        W24249   8.292   1.625   2.602 -0.1059 -0.4224  0.0197
 7403W        W24250  17.763   6.554  11.832  0.3343 -0.1206 -0.0659
 7404W        W24251   8.287  14.632   2.700  0.0079  0.0038 -0.2627
 7405W        W24252   7.727  17.522   5.959 -0.0371 -0.0179  0.0846
 7406W        W24253   9.866   8.563   2.365  0.0823 -0.0141  0.2332
 7407W        W24254  11.921  16.005   3.413 -0.0584 -0.1291 -0.0424
 7408W        W24255  12.174   2.947   1.828 -0.1693 -0.3624  0.0682
 7409W        W24256   1.937   3.124   5.026 -0.1387  0.0815  0.3244
 7410W        W24257   8.685  18.453   0.945  0.0068 -0.1906 -0.3625
 7411W        W24258  13.664   4.872  13.037 -0.2985  0.0891 -0.4412
 7412W        W24259  16.525   0.780   4.372  0.1169 -0.0949  0.0514
 7413W        W24260   7.346   8.119  12.145  0.0011  0.3685 -0.2693
 7414W        W24261   1.410  10.134  13.954  0.1639  0.0912 -0.2353
 7415W        W24262   4.967  10.493  11.272  0.0949  0.3418  0.0801
 7416W        W24263  18.200  15.098   0.425  0.1496  0.0906  0.2669
 7417W        W24264   7.423  18.263  12.349  0.2464  0.1996  0.0806
 7418W        W24265   7.291   3.476  15.189 -0.0755  0.1178  0.1773
 7419W        W24266  11.538   9.058  13.660  0.3168  0.0759 -0.1574
 7420W        W24267   0.091   8.858   4.574 -0.0711 -0.2177 -0.0374
 7421W        W24268  16.664  10.546  13.048  0.0395  0.0958 -0.0532
 7422W        W24269  14.588  16.828  10.757 -0.2427 -0.0153 -0.3830
 7423W        W24270   4.211  15.038  15.061  0.0273 -0.2207 -0.0060
 7424W        W24271  17.983   7.774   2.344  0.2498  0.0069  0.1233
 7425W        W24272   1.899   3.901  10.792 -0.3284  0.3230 -0.0067
 7426W        W24273  13.885   9.934  15.007 -0.3688 -0.1797 -0.1237
 7427W        W24274  12.960  16.043  12.365  0.1035  0.0005 -0.1896
 7428W        W24275  16.609   3.044  12.337  0.1754 -0.0966 -0.2758
 7429W        W24276   8.679  16.031  13.500  0.0202 -0.2067  0.0397
 7430W        W24277   8.849  11.991  15.540 -0.0322 -0.0202  0.3236
 7431W        W24278  15.304   3.296  10.818 -0.3609  0.0229 -0.1030
 7432W        W24279   2.670  13.282  13.209  0.0135  0.0579 -0.2115
 7433W        W24280   6.835  11.896   5.679  0.3034  0.2389  0.1122
 7434W        W24281  12.965   4.040   2.393  0.0566 -0.0407  0.0119
 7435W        W24282   5.369  18.495   3.390 -0.0094 -0.0153 -0.1306
 7436W        W24283   7.197   5.474   1.672  0.1516  0.1030  0.0214
 7437W        W24284  13.748   8.170   5.129  0.2362  0.0177 -0.2858
 7438W        W24285  10.712  15.605  14.151 -0.1262  0.3733 -0.0526
 7439W        W24286   1.289  18.790  15.015 -0.1345  0.2007 -0.3127
 7440W        W24287   2.761   4.376   2.776 -0.2148  0.1915  0.1230
 7441W        W24288   3.762   1.168   2.433 -0.0857 -0.5522 -0.2928
 7442W        W24289   3.930  11.517  11.743  0.0302  0.0178  0.1757
 7443W        W24290   4.885   8.715   2.537  0.3341 -0.2475  0.0108
 7444W        W24291   8.546  16.834   1.609 -0.3222 -0.0860  0.2153
 7445W        W24292   9.244   0.976   4.131  0.1630  0.0220 -0.1218
 7446W        W24293  17.538   8.988   4.885  0.1209 -0.1089  0.0906
 7447W        W24294   4.859  16.414   3.973 -0.1263  0.0463  0.1562
 7448W        W24295   8.304   2.928  14.989 -0.0119 -0.0020 -0.0014
 7449W        W24296   0.877   1.705   2.203 -0.1221 -0.1767  0.3057
 7450W        W24297  15.529  18.013  13.247  0.0096  0.1655 -0.0621
 7451W        W24298   9.342  16.498  11.361 -0.0592 -0.1788  0.0108
 7452W        W24299   5.122   6.664  11.822  0.0281  0.0136 -0.0500
 7453W        W24300  14.816  17.480  14.996  0.0327 -0.0954 -0.0657
 7454W        W24301  10.181   0.055  10.198  0.2719  0.0760 -0.0189
 7455W        W24302  15.975   6.924   5.777  0.1228  0.2672  0.0162
 7456W        W24303  11.851   0.968  10.989 -0.0748 -0.1031 -0.0932
 7457W        W24304   2.544   7.349  15.444  0.1916  0.1856 -0.3223
 7458W        W24305  14.667  13.192  12.170 -0.1510 -0.0243 -0.0997
 7459W        W24306  11.226   2.382  15.201  0.1339  0.2814 -0.1071
 7460W        W24307  18.102  10.700   5.325 -0.2395  0.0628  0.1670
 7461W        W24308   4.887  15.405  13.852  0.3695 -0.0232 -0.3180
 7462W        W24309   5.998  10.995  12.796 -0.1184 -0.2490  0.2723
 7463W        W24310  13.854  11.195  11.074  0.0581  0.3068  0.1234
 7464W        W24311   9.357   1.203  13.344  0.1013 -0.4412  0.1494
 7465W        W24312   8.817   2.411   2.116 -0.1003  0.0842  0.1843
 7466W        W24313  14.222   3.733   0.393 -0.2067 -0.0398  0.3998
 7467W        W24314   0.548  17.365   4.840 -0.1002 -0.2238  0.0839
 7468W        W24315  17.095   9.182  12.313 -0.1694  0.0007 -0.1095
 7469W        W24316   3.749  13.409  13.063  0.3481 -0.0951 -0.1537
 7470W        W24317  18.798   5.731   4.818 -0.0211  0.1573  0.0839
 7471W        W24318  14.967   4.803   4.235  0.0348  0.3232 -0.2571
 7472W        W24319  15.586  15.597   1.544  0.0899  0.0633  0.1533
 7473W        W24320  10.152  13.828   2.031  0.0364 -0.0709  0.1427
 7474W        W24321  10.600  15.751  12.570 -0.0509  0.0267  0.2999
 7475W        W24322   7.563  16.490  11.859  0.1303  0.0320 -0.1150
 7476W        W24323  12.747  14.237   0.898 -0.0590  0.1201  0.0870
 7477W        W24324   1.238   4.542   4.229  0.0420  0.0467  0.1729
 7478W        W24325  16.963   6.605   4.686  0.1542  0.2278  0.1702
 7479W        W24326  11.666   8.669   5.464  0.0997 -0.0090 -0.1738
 7480W        W24327   9.904  14.915   4.552  0.5193  0.0922  0.1936
 7481W        W24328   5.517  18.343   5.412  0.0989  0.2154 -0.1070
 7482W        W24329  14.869   6.289   3.337 -0.1477  0.0694 -0.1378
 7483W        W24330   9.274  12.469  15.006  0.1347 -0.1391  0.0201
 7484W        W24331   5.284   7.143  12.114 -0.0828 -0.0464  0.2488
 7485W        W24332  17.705   8.090   0.580  0.0868  0.1689 -0.1033
 7486W        W24333   3.531   2.113   1.763  0.5036  0.0564 -0.1270
 7487W        W24334   1.455  16.895  13.127  0.1689 -0.0398 -0.1141
 7488W        W24335   3.866   8.487   5.189 -0.0586  0.0022 -0.2901
 7489W        W24336  11.859   5.427  12.476  0.2071 -0.1982 -0.0850
 7490W        W24337   2.670   5.178  11.087 -0.1458  0.2563 -0.2830
 7491W        W24338   7.814  15.843   1.122  0.2235  0.0279 -0.2186
 7492W        W24339   9.214   6.718  14.328 -0.0380 -0.1552  0.1346
 7493W        W24340  15.454   7.138  11.421 -0.1096 -0.0874  0.4842
 7494W        W24341   2.247   8.011   4.641 -0.0411 -0.0980  0.0240
 7495W        W24342   5.806   1.877   0.654  0.1024 -0.1386 -0.0782
 7496W        W24343   6.159   0.001  10.690 -0.1489  0.0050  0.1937
 7497W        W24344   5.384   7.138   1.683 -0.0293 -0.0459  0.2060
 7498W        W24345  10.878  13.882   3.488 -0.0182  0.1760 -0.1422
 7499W        W24346  11.903  16.949   3.443 -0.1912 -0.1554  0.0493
 7500W        W24347  15.289  11.622   4.463  0.0225 -0.2244  0.1999
 7501W        W24348   5.842   2.943  15.288  0.1135 -0.1582  0.0384
 7502W        W24349   0.584  12.267   4.814 -0.1830  0.1001  0.9075
 7503W        W24350   5.306   4.034   2.762 -0.3883  0.0789  0.3914
 7504W        W24351  14.588  15.485  12.237  0.0139 -0.3185 -0.1585
 7505W        W24352   8.815  13.238  14.080 -0.1757 -0.0621 -0.2043
 7506W        W24353   7.612  13.883  13.647  0.0055 -0.2838  0.1779
 7507W        W24354  16.554  13.745   4.954 -0.0552  0.1601  0.2289
 7508W        W24355  15.897   1.976  14.601  0.0501  0.1529 -0.2140
 7509W        W24356  13.206  13.422  11.553 -0.1614  0.2548  0.0339
 7510W        W24357   1.746  14.489  14.632  0.1612 -0.0779  0.1374
 7511W        W24358   4.817  11.956   2.268 -0.1429 -0.1613  0.0322
 7512W        W24359   9.353   2.550  11.298 -0.1158  0.0657 -0.2933
 7513W        W24360   8.961  17.452   9.901  0.1146 -0.0711  0.2194
 7514W        W24361   3.480  12.172  11.144  0.2904  0.2914 -0.1838
 7515W        W24362  12.216  11.990   3.183 -0.0542  0.2051 -0.0052
 7516W        W24363   8.803  15.406  14.791 -0.1569  0.0743 -0.0371
 7517W        W24364  11.508   3.665  15.045 -0.0463  0.1206 -0.1781
 7518W        W24365  11.585   8.314  13.763  0.0359  0.0550  0.3324
 7519W        W24366   4.732  16.888  11.137 -0.1345 -0.0534  0.0115
 7520W        W24367   1.197   0.246  11.830 -0.1329  0.1128 -0.1476
 7521W        W24368   0.112   8.437   2.059 -0.0779 -0.1526  0.0633
 7522W        W24369   1.532  12.996  11.205 -0.4068  0.1511  0.2167
 7523W        W24370  14.933   2.046  15.355  0.0167  0.2028 -0.0700
 7524W        W24371  16.744  11.735  12.684  0.0285 -0.0573  0.1046
 7525W        W24372   2.528  10.546   4.497  0.0951 -0.0926 -0.4485
 7526W        W24373  11.482  11.388  15.540 -0.0780 -0.1662 -0.2763
 7527W        W24374   5.875  11.531  11.581 -0.0009 -0.0349 -0.1507
 7528W        W24375   8.996  15.610   0.417 -0.0347 -0.1647 -0.3455
 7529W        W24376   7.601  16.851   0.779 -0.1677  0.2895  0.0974
 7530W        W24377  13.888   0.297  13.570 -0.1828 -0.1700  0.2089
 7531W        W24378  14.754   2.376  11.530 -0.1873  0.1087 -0.1671
 7532W        W24379   6.483   7.032  12.657 -0.2572  0.1145  0.0923
 7533W        W24380  16.794   5.733  11.174  0.3457 -0.0218  0.1210
 7534W        W24381   0.103  13.350  11.471 -0.2416 -0.0936 -0.4510
 7535W        W24382   7.839   1.304   5.406 -0.0184  0.0449 -0.2056
 7536W        W24383  11.059  14.989   0.606 -0.1914  0.0396  0.0811
 7537W        W24384  14.119  12.302  12.288  0.1837  0.1706 -0.0694
 7538W        W24385  15.184  10.507  14.121  0.1933 -0.0685  0.2231
 7539W        W24386   6.558  18.223  11.402 -0.3477  0.3007 -0.0305
 7540W        W24387   3.090   5.500   0.234  0.3990 -0.1699 -0.0168
 7541W        W24388   7.138  13.349  14.433  0.0379  0.1142  0.2502
 7542W        W24389   7.921   4.044   3.044 -0.0902  0.0725  0.2930
 7543W        W24390  13.504   5.649   1.691  0.1655 -0.0455  0.2258
 7544W        W24391  10.142   4.213   2.957  0.2192 -0.2880  0.1930
 7545W        W24392  16.986  11.689   4.231  0.1588  0.0010 -0.1073
 7546W        W24393  14.314  15.591   2.023  0.0347 -0.0659  0.1995
 7547W        W24394  18.124  17.405   4.306  0.2101  0.0214  0.0661
 7548W        W24395   2.848   1.566   1.583  0.4530  0.4181  0.2370
 7549W        W24396   3.703  15.624  13.129 -0.2481 -0.0511  0.2393
 7550W        W24397   5.568   0.593   1.452  0.0964  0.1194  0.0302
 7551W        W24398  12.272  17.430  12.411 -0.0745  0.4411  0.0981
 7552W        W24399   1.070  17.500  11.382  0.0853 -0.0702  0.0269
 7553W        W24400  11.175   5.225  12.610 -0.1883  0.1541 -0.2765
 7554W        W24401   5.368   8.285  14.490  0.1237  0.1391 -0.1618
 7555W        W24402   9.361   7.157  14.943  0.1548  0.2442  0.0372
 7556W        W24403  13.141  10.015   4.575  0.1136 -0.1441  0.0921
 7557W        W24404  17.743  13.259  12.911  0.1048  0.1599 -0.2094
 7558W        W24405  17.957  17.898  12.616 -0.1353  0.0770  0.0494
 7559W        W24406   6.987   4.594  14.129 -0.1348 -0.0498 -0.0026
 7560W        W24407  17.685   0.169   4.542  0.0047  0.2030 -0.1165
 7561W        W24408   0.126   2.349   1.382 -0.0503  0.1116 -0.0979
 7562W        W24409  10.956   1.882  14.464  0.1936  0.2658  0.4857
 7563W        W24410  13.061  15.519  12.267 -0.0488 -0.0334 -0.0741
 7564W        W24411   4.923  13.580  11.445 -0.1617 -0.1767  0.3314
 7565W        W24412  11.388   1.322   0.557 -0.0404  0.0563  0.0622
 7566W        W24413   6.713   9.813   3.186 -0.4264  0.5456 -0.2365
 7567W        W24414   4.951  11.302  14.537 -0.0336 -0.0157 -0.0330
 7568W        W24415   5.710  16.382   5.397 -0.0185 -0.0644  0.1712
 7569W        W24416  14.481   8.816  12.170 -0.2077  0.2368  0.0023
 7570W        W24417  13.721  11.986   0.653  0.2201  0.0703  0.2057
 7571W        W24418  15.460  17.710   0.328  0.0907  0.0861  0.0529
 7572W        W24419  10.282   6.598  13.688 -0.0673 -0.2924 -0.3702
 7573W        W24420   4.186  18.605  12.156  0.0214 -0.2802  0.1415
 7574W        W24421  18.731   8.416  10.937 -0.2985  0.0756  0.2185
 7575W        W24422  17.498  11.183  13.502  0.2223 -0.1743  0.2543
 7576W        W24423  18.686   1.692   4.383 -0.0706 -0.0405 -0.2435
 7577W        W24424  10.367   6.358   2.972 -0.0495  0.1173  0.0825
 7578W        W24425   3.228   9.950   4.211 -0.1242 -0.1406 -0.0521
 7579W        W24426  10.704   8.103   3.497  0.2827 -0.2220 -0.0311
 7580W        W24427   9.490  11.465   4.180 -0.0441 -0.0324 -0.0800
 7581W        W24428  10.220   3.763   2.035 -0.0337  0.0385 -0.0255
 7582W        W24429   5.117   4.844  15.408 -0.0962 -0.2962 -0.1834
 7583W        W24430   6.920  15.896  12.932  0.1064  0.1278  0.0192
 7584W        W24431  16.163  10.173  14.201  0.0828 -0.0738  0.1024
 7585W        W24432  13.720   0.181  12.498 -0.2934  0.0997 -0.0207
 7586W        W24433   6.816   4.516  12.979 -0.0117  0.1573  0.1028
 7587W        W24434   6.648  16.428  10.875  0.0381 -0.3472  0.1217
 7588W        W24435  14.885   0.948   4.609  0.2523 -0.3648  0.0743
 7589W        W24436  16.787   8.707   3.940  0.2398  0.1388 -0.1102
 7590W        W24437  14.070   7.506   3.218 -0.1113 -0.2728 -0.2930
 7591W        W24438  17.068   0.466  11.789 -0.0067 -0.1395 -0.2439
 7592W        W24439   6.318   2.461  12.425 -0.0674 -0.0044  0.0290
 7593W        W24440   3.272  15.907   5.595  0.3556 -0.1250  0.0960
 7594W        W24441  10.772   2.346   3.889  0.0487  0.1958  0.1589
 7595W        W24442  12.181   4.193   3.347 -0.1027 -0.1306 -0.0644
 7596W        W24443  10.644  18.401  14.958  0.1940 -0.4082 -0.2522
 7597W        W24444  14.358  14.440   4.873  0.0170 -0.0087 -0.4905
 7598W        W24445   4.097  10.582   1.910 -0.0578  0.0616 -0.2905
 7599W        W24446   6.131   9.389   0.522 -0.0102 -0.0462  0.2316
 7600W        W24447   2.768  11.599  14.582 -0.0258 -0.3161  0.0620
 7601W        W24448   6.436  17.353   1.825 -0.1983  0.1072  0.1052
 7602W        W24449   2.701  10.695  14.472  0.2136 -0.2322  0.0707
 7603W        W24450  10.782   8.627   4.538 -0.1135  0.0193 -0.1062
 7604W        W24451  16.604   1.076   0.821 -0.0763 -0.1563 -0.1415
 7605W        W24452   0.431  17.118  15.533 -0.0590  0.1058  0.0304
 7606W        W24453   5.167  13.659   2.414 -0.0846  0.1808  0.1813
 7607W        W24454   5.536  18.652   1.748 -0.0743 -0.0631 -0.2836
 7608W        W24455   3.649   0.971  11.387  0.0574  0.0774  0.0308
 7609W        W24456  15.943  11.543   4.493 -0.0220  0.1345  0.1500
 7610W        W24457  11.486   0.619  15.017  0.0908 -0.2202  0.0178
 7611W        W24458  13.972   6.344  13.066  0.0742 -0.3070  0.0667
 7612W        W24459   9.492  12.378   1.233 -0.2021  0.0180 -0.0490
 7613W        W24460  18.081   0.400   0.591 -0.1257 -0.1179  0.2784
 7614W        W24461  10.204  16.130   5.474  0.1120 -0.1454  0.1751
 7615W        W24462  13.274  13.264   1.522 -0.3917 -0.1273 -0.0831
 7616W        W24463   7.254   1.590  15.167 -0.0499  0.1248 -0.2767
 7617W        W24464  14.906  14.340  15.471 -0.0016 -0.0320  0.0395
 7618W        W24465   9.316   0.649   3.075  0.1993 -0.0192 -0.0886
 7619W        W24466   7.267   5.387  11.920 -0.0251  0.1401  0.3440
 7620W        W24467  10.336  10.639   1.905  0.1611 -0.0796 -0.0867
 7621W        W24468  14.026  18.425  15.419  0.1946 -0.1124  0.0338
 7622W        W24469  15.264   2.554  12.611  0.0517  0.1945 -0.1856
 7623W        W24470   6.824   8.199  14.436  0.1544 -0.0145  0.2755
 7624W        W24471   0.569   8.975   3.698 -0.1529 -0.2588  0.1747
 7625W        W24472  16.113  17.696  11.616 -0.0370  0.1500 -0.2027
 7626W        W24473  11.159  10.794   0.638 -0.2035  0.0016  0.2194
 7627W        W24474  13.020  14.349  11.651  0.0534 -0.0692  0.0112
 7628W        W24475  18.127   9.470  11.175  0.2481  0.1242 -0.1288
 7629W        W24476  14.317   2.812  12.723 -0.3449 -0.2296  0.0109
 7630W        W24477  17.841   8.237   1.021 -0.0707 -0.0933 -0.0092
 7631W        W24478  12.370   4.631  12.621  0.0907  0.1306 -0.1698
 7632W        W24479  13.617  14.908   1.810 -0.0122  0.0536  0.0242
 7633W        W24480   8.829  11.058   0.431  0.0241  0.1633  0.0117
 7634W        W24481  11.640  18.591  12.010 -0.2426  0.0362 -0.0749
 7635W        W24482   1.624   4.200  13.438 -0.1195 -0.3562 -0.0731
 7636W        W24483  17.761   8.355  11.062  0.3191  0.0569  0.1006
 7637W        W24484   7.482  18.240   1.193  0.3057 -0.5172  0.2795
 7638W        W24485  16.289   5.850   1.839 -0.2437  0.0201  0.0083
 7639W        W24486   9.954   6.735  12.743 -0.0359  0.2473  0.2052
 7640W        W24487   8.407  17.224   4.249  0.2223 -0.2456 -0.2860
 7641W        W24488   6.037   4.412   2.990  0.1006  0.2870 -0.1600
 7642W        W24489  10.199  14.479  11.698  0.1357  0.3913 -0.2283
 7643W        W24490  18.417   6.910   4.707  0.1945 -0.2379 -0.0769
 7644W        W24491   9.209  12.019  12.155 -0.2041 -0.0298 -0.3547
 7645W        W24492   7.466  14.148  11.171 -0.1169 -0.1241  0.0591
 7646W        W24493  16.219  11.573   5.281 -0.0804 -0.3349 -0.1984
 7647W        W24494  13.552   5.705   1.043 -0.0229  0.0702  0.0566
 7648W        W24495   5.614  16.721   2.001 -0.0433 -0.1474 -0.1137
 7649W        W24496   1.330   5.839   1.139 -0.0366 -0.1849  0.1207
 7650W        W24497   8.637   9.727   1.766  0.3483  0.1706  0.2627
 7651W        W24498  10.912   8.278   1.451  0.0693 -0.0755 -0.2338
 7652W        W24499   6.103  13.564   0.763 -0.1574 -0.2778  0.2371
 7653W        W24500   6.893   6.782   4.910 -0.1840 -0.0057  0.3586
 7654W        W24501   6.479  15.062  14.628  0.2031  0.1201  0.2278
 7655W        W24502  18.272   1.476  12.207 -0.0636  0.0265 -0.1380
 7656W        W24503   1.173   9.166  13.466 -0.0391  0.0601  0.0661
 7657W        W24504   4.600  14.067  15.093 -0.3390  0.0709  0.1077
 7658W        W24505   7.596   0.905  13.776  0.0355  0.1391  0.1690
 7659W        W24506  17.785   8.085  12.875  0.1182  0.1343 -0.0054
 7660W        W24507  15.705   5.603   4.378  0.2752 -0.1897  0.4522
 7661W        W24508  10.931  18.715  14.096 -0.0468  0.1349  0.0805
 7662W        W24509   4.191  18.223   0.814 -0.1213  0.0518 -0.0089
 7663W        W24510  17.790  12.528   1.414 -0.1579  0.1296  0.1182
 7664W        W24511  14.095   8.975  13.298 -0.0680  0.0336 -0.0634
 7665W        W24512   5.483  13.248   0.245  0.0588 -0.3765 -0.0254
 7666W        W24513  15.173  15.541  14.290  0.3880 -0.0771  0.1045
 7667W        W24514  12.692   4.013   4.130  0.1187  0.0717  0.0890
 7668W        W24515   4.220  10.019  11.870 -0.1325 -0.3947 -0.0711
 7669W        W24516  10.072  14.263   1.709 -0.0244  0.1884 -0.0909
 7670W        W24517  15.291  16.851   4.175 -0.1837 -0.0462  0.3637
 7671W        W24518   3.715  14.809   4.083 -0.0342 -0.0679  0.0772
 7672W        W24519   0.355   7.355   2.313 -0.0448 -0.1115 -0.0515
 7673W        W24520  12.646  16.483  12.259 -0.0425 -0.0496 -0.0835
 7674W        W24521  18.016   0.441  14.384 -0.1663 -0.2480 -0.0624
 7675W        W24522  11.429   0.616  15.535  0.2045 -0.3311  0.0048
 7676W        W24523   2.036   1.171   3.166  0.1006 -0.0783  0.2452
 7677W        W24524   1.107   6.418   0.347  0.0851  0.2182 -0.0813
 7678W        W24525  10.039   5.676   4.616  0.0190 -0.3209  0.1659
 7679W        W24526   7.069  17.438  14.454 -0.0474  0.2821  0.3227
 7680W        W24527  16.343   2.178   3.313  0.3144  0.1726 -0.1004
 7681W        W24528  16.317   8.978  11.650 -0.3736  0.2270 -0.1331
 7682W        W24529  12.232  17.307   2.130 -0.1694 -0.2070 -0.0820
 7683W        W24530   6.894   9.394   0.191 -0.0508 -0.0126  0.0130
 7684W        W24531   8.488   9.876   3.398  0.3620 -0.0146 -0.0688
 7685W        W24532   1.581  15.834  11.392 -0.1140 -0.0600  0.2514
 7686W        W24533  13.148  15.192  11.172 -0.3035 -0.0157  0.2099
 7687W        W24534   0.200  14.822   1.026 -0.0306  0.0770  0.3162
 7688W        W24535   8.851  10.191   0.881 -0.0030  0.0108 -0.0769
 7689W        W24536  11.833   7.504   1.711  0.2011  0.2380  0.0783
 7690W        W24537  18.841  18.756   4.772  0.0292 -0.0614  0.1967
 7691W        W24538   4.366  10.125  14.469  0.1499 -0.0105 -0.0005
 7692W        W24539   3.859   7.664   2.158  0.1479  0.0851  0.1684
 7693W        W24540   7.904   6.752  10.952  0.1213  0.1634 -0.0817
 7694W        W24541   6.536   9.447  14.211  0.2566 -0.3394  0.0738
 7695W        W24542   9.684   1.792  12.136  0.3072 -0.1930 -0.2950
 7696W        W24543   2.833   0.987  10.917  0.2911  0.0470  0.4249
 7697W        W24544  17.454   3.596  12.838 -0.0752  0.3640  0.1164
 7698W        W24545  13.075   6.164   3.752  0.0104  0.0965 -0.0745
 7699W        W24546   7.122   4.113  12.509  0.1915  0.1566  0.2572
 7700W        W24547   1.056   2.611  11.105 -0.0151 -0.2233 -0.0251
 7701W        W24548  15.608   7.198   1.148 -0.1901 -0.0385 -0.0458
 7702W        W24549  11.439   6.221  12.478  0.1127 -0.1712 -0.1996
 7703W        W24550  13.639  18.597  12.230  0.0431  0.1701 -0.1524
 7704W        W24551   2.010  17.897  12.098 -0.0606 -0.4406 -0.0376
 7705W        W24552  17.866  15.362   1.314 -0.2994  0.0354 -0.2265
 7706W        W24553  13.411   7.524   3.438  0.0677 -0.0411  0.0014
 7707W        W24554   4.259  13.674  14.158  0.1142  0.0001 -0.0459
 7708W        W24555  10.885   5.756  13.222 -0.0198  0.1455  0.1234
 7709W        W24556   5.523   8.437   0.395  0.0068 -0.0890 -0.4367
 7710W        W24557  17.185  15.777   1.487  0.0833 -0.0832  0.3649
 7711W        W24558   5.285  17.521   3.486  0.1104  0.0230  0.0221
 7712W        W24559   2.260  18.430   4.567 -0.2972 -0.2362  0.0264
 7713W        W24560  11.230  17.255  15.044 -0.3152  0.0397 -0.2391
 7714W        W24561  12.169  17.068  12.752 -0.0408  0.0401 -0.1222
 7715W        W24562  14.723   7.249   2.273  0.1409  0.0329  0.0223
 7716W        W24563  12.452   4.152   2.937  0.2042 -0.0799 -0.2071
 7717W        W24564   2.572  14.807   0.724 -0.0498 -0.0285 -0.0761
 7718W        W24565  13.020   7.046  11.634 -0.1466 -0.1560  0.1448
 7719W        W24566   9.413  11.137  15.343 -0.0658 -0.0569 -0.0255
 7720W        W24567  10.628  14.616   0.970 -0.1026  0.3078 -0.1475
 7721W        W24568  12.765   7.440   2.662  0.3597 -0.1328  0.0033
 7722W        W24569   1.343  12.623  14.699  0.1075  0.3696  0.4077
 7723W        W24570  12.317   8.274   1.874  0.1894 -0.1765 -0.1899
 7724W        W24571  11.208  17.227  10.854 -0.0034 -0.1606 -0.1024
 7725W        W24572  13.437   0.663   1.092 -0.1403  0.1122 -0.1189
 7726W        W24573   6.898  12.806   2.891 -0.0242  0.0090  0.0375
 7727W        W24574  18.156   8.425   5.053  0.1938  0.1927  0.2100
 7728W        W24575  10.716  14.926   3.940  0.0266 -0.1889  0.0231
 7729W        W24576   5.394  13.716  11.522 -0.1622 -0.3138  0.1489
 7730W        W24577  12.454   9.932  10.958  0.0772  0.1620 -0.5092
 7731W        W24578   4.673  18.400   0.923  0.0167  0.2204  0.1758
 7732W        W24579  14.974  11.354  14.429 -0.0763 -0.1609  0.0452
 7733W        W24580   9.708   8.477  10.094 -0.0530 -0.1843 -0.1105
 7734W        W24581   2.500  18.700   9.857 -0.1280  0.0167 -0.2456
 7735W        W24582  17.978   5.084  11.048  0.2063 -0.1873  0.0761
 7736W        W24583   7.735  16.432   4.707 -0.1443 -0.0905  0.0363
 7737W        W24584   3.360  10.674   0.633  0.2463  0.0243 -0.0992
 7738W        W24585  17.306   2.302   3.156  0.1701  0.0113 -0.0868
 7739W        W24586  12.820   1.439   5.164  0.1816 -0.1608  0.1346
 7740W        W24587  18.094   8.427  11.584  0.0324  0.1686 -0.0830
 7741W        W24588  14.014  15.164  12.525 -0.1829  0.0595  0.2579
 7742W        W24589  18.227  15.595  11.818  0.0859  0.0536 -0.1286
 7743W        W24590   5.131   3.261  11.623 -0.0768  0.5074 -0.1974
 7744W        W24591   4.198  18.694   0.794  0.1730  0.3098  0.2059
 7745W        W24592   9.175   0.240   3.326 -0.4167  0.2914  0.0197
 7746W        W24593  15.590  13.195   9.916 -0.1225  0.3949 -0.3569
 7747W        W24594  13.992  14.246  11.594 -0.1221 -0.3113  0.1773
 7748W        W24595   7.249   6.208   2.085  0.0688  0.0746  0.1242
 7749W        W24596   9.667  11.077   3.272 -0.0654  0.1460  0.2314
 7750W        W24597   5.726   9.711   0.272 -0.3409 -0.2877 -0.1024
 7751W        W24598   9.707   1.800   5.059  0.1420 -0.3323 -0.1705
 7752W        W24599   4.892   1.430  15.538  0.1049 -0.2103 -0.3021
 7753W        W24600  11.789  13.719  15.307 -0.3020  0.2746  0.1244
 7754W        W24601  13.546   9.378   0.931 -0.0152 -0.0171  0.0440
 7755W        W24602  13.349   9.250  14.245 -0.2803  0.0443 -0.1478
 7756W        W24603   3.339  15.943  11.526 -0.1764 -0.0616  0.2008
 7757W        W24604   3.269  18.602  14.633 -0.1497 -0.0871 -0.0577
 7758W        W24605   2.551  18.399   0.089 -0.2873 -0.1700 -0.0865
 7759W        W24606  16.761  16.970   1.994 -0.2949  0.1076  0.0115
 7760W        W24607   8.549   9.273  11.442 -0.0869 -0.4464 -0.0847
 7761W        W24608  14.884   3.320  11.617 -0.3493 -0.1972  0.0562
 7762W        W24609  12.346  14.503  15.483  0.3527 -0.2284 -0.4373
 7763W        W24610   6.652  14.990   0.146 -0.0413  0.1002 -0.1016
 7764W        W24611   4.813   3.841   3.403  0.0302  0.0926  0.3210
 7765W        W24612  11.851   4.089   0.803  0.3114 -0.0742  0.1420
 7766W        W24613   4.935   8.374  14.180  0.1223  0.1271  0.0155
 7767W        W24614  17.665   4.452  13.855 -0.0873  0.1800 -0.0314
 7768W        W24615  14.518  18.368  13.974  0.0441 -0.0942  0.2522
 7769W        W24616   1.758  10.538   4.287  0.2220 -0.0053 -0.2724
 7770W        W24617  10.962   3.675   4.917 -0.4564 -0.2106 -0.0937
 7771W        W24618   5.137   7.149  13.486 -0.2425 -0.0282  0.1448
 7772W        W24619  13.814  16.706   4.865 -0.2235 -0.3194 -0.3120
 7773W        W24620  12.369   6.195   2.918 -0.3038  0.0642 -0.2364
 7774W        W24621   1.777   7.677  14.589  0.1709  0.2166 -0.3781
 7775W        W24622  16.362   5.076   4.078 -0.2991  0.0545  0.0395
 7776W        W24623  13.513  14.555  11.380  0.4182  0.1598 -0.0018
 7777W        W24624  15.237   0.212   2.776 -0.3104 -0.2900 -0.0722
 7778W        W24625  14.066  12.262   0.395  0.1747  0.0108  0.0855
 7779W        W24626   5.430   8.681  14.827  0.2167 -0.0759 -0.1347
 7780W        W24627   1.403  17.486  12.469  0.4120  0.3209 -0.4651
 7781W        W24628  17.419  12.922  13.446 -0.0698  0.0204  0.3339
 7782W        W24629  10.932  14.850  12.224  0.1241  0.0383  0.0371
 7783W        W24630  12.590  15.315  13.044  0.0396  0.0400 -0.1378
 7784W        W24631  16.029  18.808   4.088  0.1668 -0.0643  0.0229
 7785W        W24632   6.424  17.660  11.067 -0.1739  0.2381 -0.3731
 7786W        W24633   0.144  11.729   1.337 -0.2786 -0.2088  0.0348
 7787W        W24634  14.841   6.805   0.189  0.1601  0.3573  0.0218
 7788W        W24635  17.427  13.691  10.812  0.0526  0.1689 -0.1357
 7789W        W24636  11.019   6.517   2.804  0.0217 -0.0489 -0.1586
 7790W        W24637  17.206   0.447  11.344 -0.3562  0.1053  0.1054
 7791W        W24638   8.923   9.460   0.344  0.1078  0.1130  0.0519
 7792W        W24639   5.928   8.447  14.095  0.4793 -0.0169 -0.2211
 7793W        W24640  18.805   5.174  13.299 -0.2115  0.2686 -0.0730
 7794W        W24641   0.353   5.388   3.675  0.1671 -0.0044  0.1739
 7795W        W24642   0.084   9.735  12.199 -0.0116  0.2184 -0.2254
 7796W        W24643   7.552   0.086   1.671  0.0001 -0.2100  0.1216
 7797W        W24644  13.908  14.824  11.783  0.2286  0.0446 -0.3764
 7798W        W24645  11.661  16.388  15.306 -0.5187  0.0594  0.0128
 7799W        W24646  10.633  18.492   4.915  0.0923 -0.2106  0.0181
 7800W        W24647  15.361   5.109   2.847 -0.0141  0.4062 -0.1934
 7801W        W24648   9.322  11.876   1.280 -0.1406 -0.2270  0.1428
 7802W        W24649   8.942  18.050   4.244  0.3797 -0.0300 -0.1261
 7803W        W24650   2.356   3.375  15.432 -0.0247 -0.0670 -0.2184
 7804W        W24651   6.895  14.532   5.633  0.0073  0.2767  0.3841
 7805W        W24652  11.533   2.966  12.300 -0.1234  0.1205 -0.1163
 7806W        W24653   3.200   3.915   3.876  0.0790 -0.0231  0.0517
 7807W        W24654  14.186  13.829  13.545  0.3282  0.1352 -0.1199
 7808W        W24655   7.800  12.188   5.024  0.0047 -0.3018 -0.2158
 7809W        W24656  15.308  17.597   1.789 -0.1891 -0.0157  0.1737
 7810W        W24657  15.274   3.164   0.039  0.0109 -0.2048  0.0309
 7811W        W24658   8.326  11.406  11.602  0.0492 -0.0351  0.1053
 7812W        W24659  14.963   7.243  15.467 -0.1490 -0.0537 -0.1156
 7813W        W24660  14.135   5.147  13.704 -0.0210  0.2309  0.0651
 7814W        W24661   1.483   5.848   0.251 -0.2699 -0.0182 -0.1822
 7815W        W24662  11.730   6.254  13.001  0.1725  0.1478  0.0667
 7816W        W24663   3.087   9.445   4.255 -0.1227  0.3623  0.0380
 7817W        W24664  13.752   8.971  14.263 -0.1466 -0.1804  0.1232
 7818W        W24665   7.329  12.573   2.133 -0.3898  0.5032  0.3354
 7819W        W24666   5.710  17.885   0.085  0.3209  0.0579  0.1536
 7820W        W24667  16.712   9.565   3.085 -0.3461  0.0432  0.0411
 7821W        W24668   3.223   2.391  11.464 -0.0397  0.0920 -0.0771
 7822W        W24669   8.567   1.481  14.495  0.2405  0.1294  0.3152
 7823W        W24670   3.781   9.301  14.692 -0.1448  0.2169 -0.1921
 7824W        W24671   7.212   9.124  11.204 -0.0264  0.0932 -0.3288
 7825W        W24672  13.059  17.109  10.842  0.0942 -0.1761 -0.0427
 7826W        W24673   2.032   6.813  12.903 -0.3659  0.1183 -0.4138
 7827W        W24674  14.125  18.636   4.394  0.2018  0.5279  0.3778
 7828W        W24675   3.837  10.827  12.837  0.0320 -0.1309  0.1961
 7829W        W24676   2.487   9.503   4.761 -0.0946 -0.0740  0.0077
 7830W        W24677   9.678  18.181   3.277 -0.2351 -0.1100  0.1788
 7831W        W24678  13.933   1.542   1.085 -0.1221  0.0351 -0.0995
 7832W        W24679  18.743  17.598   5.781 -0.0799 -0.1869 -0.2305
 7833W        W24680  17.362  11.666  11.536  0.0975 -0.0467  0.1236
 7834W        W24681   1.258   2.482  12.658 -0.0326 -0.2007 -0.0541
 7835W        W24682  18.816   7.824  14.015  0.4135 -0.3704 -0.2193
 7836W        W24683   0.696   8.123  13.355 -0.0442  0.1321  0.2073
 7837W        W24684   9.882  18.038   1.835 -0.2530  0.0170  0.0933
 7838W        W24685   9.025   8.539  15.096 -0.1311 -0.1044  0.0812
 7839W        W24686   4.522  13.005  10.268 -0.1487 -0.1116  0.1076
 7840W        W24687  14.334   7.611  10.508 -0.2189 -0.0688 -0.3209
 7841W        W24688  11.470   6.221   1.925  0.0851  0.1245 -0.0784
 7842W        W24689   0.649   9.005  14.185  0.0904 -0.3413 -0.2443
 7843W        W24690   4.598  11.270  12.484 -0.1097  0.2928  0.4236
 7844W        W24691   3.616  17.838  11.174 -0.0150 -0.3221 -0.1440
 7845W        W24692  13.407  10.646   3.728 -0.1306  0.0011 -0.0136
 7846W        W24693   8.863  11.628  14.404  0.1025  0.3317  0.0005
 7847W        W24694   6.749   6.040  14.330 -0.2850  0.0636 -0.3496
 7848W        W24695   3.311   0.474   1.094 -0.2390  0.0557  0.0634
 7849W        W24696   3.267   5.980   0.566 -0.0397  0.0501 -0.3040
 7850W        W24697   4.031   8.067   2.339  0.3042 -0.1595 -0.0167
 7851W        W24698   1.395  12.255   0.792 -0.1563  0.1993 -0.2986
 7852W        W24699   6.948  16.696   5.117 -0.0966 -0.0370  0.0744
 7853W        W24700  18.738   3.479   1.636 -0.2372  0.0372 -0.1073
 7854W        W24701   6.780   1.993   4.194 -0.0595  0.2917 -0.0046
 7855W        W24702   9.064  15.535   2.861 -0.2578 -0.0286  0.0453
 7856W        W24703   8.711  12.470   0.144 -0.1099 -0.0421  0.1596
 7857W        W24704   7.726   1.354   1.910  0.3233 -0.2406 -0.2216
 7858W        W24705   0.461   5.697   2.398 -0.1433  0.0947 -0.2704
 7859W        W24706   4.911  10.124   0.641 -0.1646  0.1359  0.2272
 7860W        W24707  12.595  13.907  12.862  0.1428  0.1347  0.0681
 7861W        W24708   4.159   6.228   3.141 -0.1196  0.1250 -0.0845
 7862W        W24709   2.231  18.721   0.531 -0.2126 -0.0375  0.0458
 7863W        W24710  11.836  14.001   0.657  0.3367  0.2264  0.0506
 7864W        W24711   3.090  16.044   1.976  0.2871 -0.1836  0.0685
 7865W        W24712  18.110  10.079  11.806  0.0718 -0.0081 -0.0557
 7866W        W24713   0.761   0.787   3.097 -0.3833 -0.0502 -0.0188
 7867W        W24714   9.423   0.981   2.766 -0.1463  0.4707 -0.2903
 7868W        W24715   3.139  17.948   3.624 -0.0453 -0.3117 -0.0764
 7869W        W24716   0.281  13.666  15.391  0.1871 -0.0579  0.1122
 7870W        W24717   4.374   5.195  12.824  0.1733 -0.0013 -0.0516
 7871W        W24718  11.819   5.739  14.231 -0.1474 -0.2446  0.1932
 7872W        W24719   0.813   5.410   9.528 -0.4634 -0.0478 -0.1617
 7873W        W24720  11.982  17.019  11.268  0.1016 -0.2900  0.4114
 7874W        W24721   4.363   9.204  13.742 -0.1399 -0.1037 -0.2261
 7875W        W24722   9.644  13.621   4.070 -0.2155 -0.1805  0.0571
 7876W        W24723  14.009  10.854  11.543  0.1809  0.0495 -0.0403
 7877W        W24724  17.335   8.104   3.375 -0.1872  0.1327  0.0318
 7878W        W24725  15.091   1.924   1.248  0.1439 -0.0813 -0.2352
 7879W        W24726  11.741   1.852  15.428  0.1396 -0.3345  0.0693
 7880W        W24727   0.986  13.352   2.174 -0.0677  0.1380 -0.3356
 7881W        W24728  15.071  18.638  11.740 -0.1398  0.0818  0.1389
 7882W        W24729   1.447   0.133  11.334  0.0716  0.0489  0.0782
 7883W        W24730  16.368  15.537   4.956 -0.3701 -0.2635 -0.1383
 7884W        W24731   8.815   0.640  14.084 -0.0221  0.0096 -0.2444
 7885W        W24732  10.667  16.725  12.867 -0.3789 -0.1204 -0.3121
 7886W        W24733  18.712   1.369  13.159  0.0612 -0.1436  0.0240
 7887W        W24734   0.233  14.534  10.750  0.2353 -0.1791  0.2652
 7888W        W24735  10.715  10.299  11.743  0.0706 -0.2247 -0.0005
 7889W        W24736  12.113  11.449   1.640  0.2077 -0.1094  0.3052
 7890W        W24737  10.796   9.830   4.649 -0.0123  0.0038 -0.0162
 7891W        W24738   5.934  12.508  12.025 -0.1310 -0.0233  0.5066
 7892W        W24739   7.606   1.093  14.559 -0.1871  0.2181  0.3133
 7893W        W24740   7.882  16.502  13.036  0.3102 -0.0218 -0.1638
 7894W        W24741   7.097   0.459  13.430 -0.0814  0.2390  0.1547
 7895W        W24742  12.494  10.625   2.963  0.0164  0.3584  0.0719
 7896W        W24743   4.391   4.669  13.103  0.0254  0.1357 -0.1244
 7897W        W24744   2.645   2.015   4.157 -0.0314 -0.1577  0.1501
 7898W        W24745  18.024  10.568   0.985 -0.1132 -0.1687  0.0020
 7899W        W24746   0.395  16.716  15.092 -0.0212 -0.3687 -0.0080
 7900W        W24747   9.222  15.036   5.636 -0.3939  0.0359 -0.3452
 7901W        W24748  14.442  16.406   3.644 -0.0852 -0.4048  0.2036
 7902W        W24749  17.338   6.830  11.750 -0.0364 -0.1478 -0.0110
 7903W        W24750  16.072  12.157   2.696  0.1378  0.5049 -0.1617
 7904W        W24751   2.499  10.564   0.812  0.0299 -0.3157 -0.1433
 7905W        W24752   0.429   7.280  13.206 -0.1650  0.1494 -0.1673
 7906W        W24753   1.960   8.506  12.185 -0.0575  0.0836 -0.1568
 7907W        W24754   4.896   2.076   0.703 -0.1172  0.0734 -0.0979
 7908W        W24755  14.707  15.524   2.438  0.3114 -0.3956 -0.1713
 7909W        W24756  14.610  14.504  11.941 -0.2227 -0.1350  0.1254
 7910W        W24757   8.384   0.767  13.267  0.1701  0.0028  0.0557
 7911W        W24758   2.567   5.945  14.185 -0.0279 -0.0968 -0.0104
 7912W        W24759  12.239  10.904   3.864  0.1977 -0.3828  0.0876
 7913W        W24760   4.387   2.073   4.040 -0.0684  0.1000 -0.1871
 7914W        W24761   7.804   4.454   1.126 -0.2107  0.2783  0.1086
 7915W        W24762  14.203  13.114  13.809 -0.2313  0.0354  0.1819
 7916W        W24763   0.667  12.480  15.103  0.1517 -0.0321 -0.0919
 7917W        W24764   3.350   1.759  11.390  0.2893  0.0863  0.0237
 7918W        W24765  10.029   5.375   5.127 -0.1032 -0.0933 -0.1581
 7919W        W24766   2.608  14.914  13.478 -0.3419  0.2082  0.1347
 7920W        W24767  10.969   9.854   2.939  0.0487 -0.0722 -0.2597
 7921W        W24768   9.041  15.163   2.454  0.1007 -0.0298  0.0302
 7922W        W24769   2.626  18.801  15.340 -0.1346  0.2362  0.0652
 7923W        W24770   7.042   8.310   2.639 -0.1347 -0.0369  0.0500
 7924W        W24771   4.905   9.575   2.762  0.1251  0.3279  0.0661
 7925W        W24772  13.871  12.873  14.526  0.0887 -0.0712  0.1816
 7926W        W24773   8.329  18.529  10.422  0.0362 -0.0751  0.0687
 7927W        W24774  15.343  16.462   5.461  0.2951  0.0374  0.4981
 7928W        W24775   6.818   9.450   3.586  0.1920 -0.2349  0.0273
 7929W        W24776   9.012   8.546   2.937  0.1039 -0.2258  0.0659
 7930W        W24777   3.019   9.914   3.308  0.1238  0.1042 -0.0391
 7931W        W24778  13.636   8.544  10.796  0.2091 -0.0582 -0.0518
 7932W        W24779  11.994  11.841   1.285 -0.0965 -0.0322  0.2685
 7933W        W24780   4.141  18.009  15.402 -0.0273 -0.1116 -0.1485
 7934W        W24781  14.522  13.835   1.459 -0.0205 -0.0568 -0.3020
 7935W        W24782   0.395   4.220  12.555  0.3935  0.0015 -0.1254
 7936W        W24783  10.682   4.569  12.240  0.1861 -0.0095  0.1484
 7937W        W24784  14.494   3.061  12.203  0.0468 -0.2648  0.1437
 7938W        W24785  13.359  16.972  13.093  0.0522 -0.1092  0.0238
 7939W        W24786   8.323  11.886  13.666 -0.1958  0.1584  0.1413
 7940W        W24787  12.341   8.023   0.826 -0.4035 -0.0331 -0.6403
 7941W        W24788   2.809  10.601   5.604 -0.0320 -0.1043 -0.1912
 7942W        W24789   0.355   1.017   1.805 -0.0794  0.3787  0.0086
 7943W        W24790  10.114   2.849   3.191  0.0882 -0.2060  0.2366
 7944W        W24791   6.817  14.045  13.350  0.0247 -0.2742  0.1687
 7945W        W24792  11.852   8.955  13.277 -0.1049 -0.1211  0.2932
 7946W        W24793   3.321  10.697  13.542  0.0431  0.0796 -0.0337
 7947W        W24794   8.007   7.381   0.748  0.0711 -0.2845 -0.4451
 7948W        W24795   3.873   5.459   4.543  0.1282 -0.0343  0.3487
 7949W        W24796  11.549   3.387   4.113 -0.1411  0.5390 -0.0357
 7950W        W24797  17.569  12.133  13.497  0.2257  0.2336  0.0416
 7951W        W24798   6.572  13.184   2.776 -0.1826 -0.1487 -0.1118
 7952W        W24799  16.118   5.412   5.736  0.4802 -0.2372  0.0586
 7953W        W24800  10.163   8.791   2.716 -0.0607 -0.2999  0.1337
 7954W        W24801   3.906   3.726   2.808 -0.1126 -0.2342 -0.1019
 7955W        W24802  15.746   9.396   1.526 -0.2296  0.0623 -0.0591
 7956W        W24803   6.842  12.884  14.270  0.0862 -0.0191  0.3078
 7957W        W24804  14.213   8.665   2.152 -0.2519  0.2140  0.1109
 7958W        W24805   2.189  14.029   1.534 -0.0088  0.0013  0.2617
 7959W        W24806   9.571   9.013   4.689  0.1484 -0.0473 -0.0665
 7960W        W24807   5.506  12.358   1.405  0.0426 -0.0832 -0.0286
 7961W        W24808   3.538  18.715  13.538 -0.2465  0.0892 -0.2180
 7962W        W24809   9.305   5.247   2.113 -0.2120 -0.2350  0.2698
 7963W        W24810   3.425  14.238   2.515  0.2401 -0.0669 -0.2479
 7964W        W24811  11.855   9.394  13.818  0.2163 -0.1565  0.0518
 7965W        W24812  17.694   5.799  11.474  0.2597  0.0609  0.0281
 7966W        W24813  17.945  16.602  10.421 -0.1312 -0.0112  0.1033
 7967W        W24814  14.656  17.810   5.575  0.0432 -0.0392 -0.2156
 7968W        W24815  17.015   9.976  14.394 -0.2292 -0.0608  0.1339
 7969W        W24816   1.859  18.479  13.744 -0.1396 -0.0033  0.2991
 7970W        W24817  11.577  11.355   5.170 -0.2171 -0.1050 -0.0098
 7971W        W24818   5.414   3.309  12.099  0.2036 -0.1676 -0.3329
 7972W        W24819   1.993  15.944   2.247 -0.0400 -0.0556  0.1023
 7973W        W24820  11.202   1.440   2.179  0.0998  0.2104 -0.2505
 7974W        W24821  12.152  13.052  13.564  0.2340 -0.1661  0.0875
 7975W        W24822   4.023   1.847   0.011 -0.1680  0.0497  0.0257
 7976W        W24823   3.427  10.654   2.893  0.0959  0.0437 -0.1689
 7977W        W24824  15.086  17.336   0.334  0.1650 -0.1688  0.0922
 7978W        W24825   9.785  11.378   5.182  0.4159  0.1226 -0.0698
 7979W        W24826   9.147   8.156   1.811  0.2744  0.3942 -0.0042
 7980W        W24827  15.421  12.604  14.860  0.6670 -0.1713  0.0076
 7981W        W24828  12.695  10.619   4.457  0.1592  0.0701 -0.1514
 7982W        W24829  14.567   2.583   0.035 -0.3456 -0.2542  0.3007
 7983W        W24830   2.016  17.110   0.217  0.1479  0.1491  0.0452
 7984W        W24831  18.521   8.611  11.380  0.0655  0.2613 -0.1680
 7985W        W24832   6.014  16.715   1.271 -0.2089  0.1057 -0.0655
 7986W        W24833   8.045  14.020   2.977 -0.2120  0.0887 -0.1849
 7987W        W24834  12.487  10.187   2.667  0.0160  0.3427 -0.3170
 7988W        W24835   8.149   6.125   5.074  0.3409  0.0088 -0.1458
 7989W        W24836  17.714  15.721   1.697 -0.3212 -0.2987  0.1156
 7990W        W24837   0.347   8.402  14.673 -0.1313  0.0825  0.1002
 7991W        W24838  10.784  10.728   2.466  0.1590  0.1116 -0.1586
 7992W        W24839  14.391  16.695  15.131 -0.1111  0.0349  0.2004
 7993W        W24840  10.635  17.592   3.285  0.0398 -0.3219 -0.2785
 7994W        W24841   0.380  12.717   5.228 -0.0814 -0.0704  0.1284
 7995W        W24842  11.365   7.856   1.398  0.1027  0.2148 -0.0708
 7996W        W24843  15.351   7.430   5.649  0.1360  0.0209  0.1299
 7997W        W24844   8.353   5.636   1.242 -0.2542 -0.0438  0.1703
 7998W        W24845   1.852   1.333  13.037 -0.0118  0.0895 -0.2878
 7999W        W24846   7.359  14.608   4.110 -0.0771  0.0283  0.0576
 8000W        W24847   0.484  10.333   3.162 -0.1273  0.0425 -0.0185
 8001W        W24848   0.213  11.810   3.543  0.1300 -0.1254 -0.0479
 8002W        W24849   0.481   9.837  11.335 -0.0858 -0.1624 -0.1572
 8003W        W24850   9.634  12.106  14.302  0.1789 -0.3327  0.0067
 8004W        W24851   2.023   4.839  12.404 -0.0856 -0.0302 -0.0489
 8005W        W24852   7.420  11.362   1.812  0.0771 -0.1164  0.0404
 8006W        W24853   5.469   7.669   1.453 -0.0426  0.0167  0.1219
 8007W        W24854   3.614   1.850  14.043  0.2055  0.0085  0.3313
 8008W        W24855  15.622   2.416   5.314  0.0684 -0.0499  0.0007
 8009W        W24856   4.387  16.798  13.515 -0.0334 -0.0249  0.2967
 8010W        W24857  16.097   8.545   3.699  0.0664 -0.0816 -0.0904
 8011W        W24858   1.926  14.602  15.524  0.0311 -0.0482 -0.1459
 8012W        W24859  15.413  17.777  12.055 -0.4786 -0.1817 -0.1654
 8013W        W24860  17.721  18.586  14.120 -0.0226 -0.0686 -0.0474
 8014W        W24861  14.263  10.982   3.003 -0.1379 -0.2402  0.0131
 8015W        W24862   4.643  14.353  13.611 -0.3266 -0.1664  0.0269
 8016W        W24863   6.057   3.222   4.242  0.1303 -0.0973  0.1901
 8017W        W24864  17.129  13.111  13.834 -0.0419 -0.0727 -0.2191
 8018W        W24865  18.556  10.839   2.589 -0.1150 -0.0010  0.1379
 8019W        W24866  17.473  17.011  15.195  0.0783 -0.1561  0.0197
 8020W        W24867  14.161  12.870  11.574 -0.0182 -0.3893  0.2574
 8021W        W24868   5.442   9.238  11.618 -0.0497 -0.1779 -0.3051
 8022W        W24869  10.658   0.613  13.985  0.1657 -0.0125  0.2268
 8023W        W24870   2.400   0.523  12.783  0.1031 -0.1535  0.1540
 8024W        W24871   0.368  14.517   1.383  0.4464 -0.3320 -0.0556
 8025W        W24872  15.101  16.612  10.940  0.0174 -0.3437  0.2790
 8026W        W24873   6.432   6.952  14.164 -0.2401  0.0810  0.0274
 8027W        W24874   0.157  17.468   3.192  0.0434  0.1221  0.0292
 8028W        W24875   6.984   0.441  15.544  0.3474  0.1010 -0.0083
 8029W        W24876  12.531   1.737   4.376  0.1041 -0.1324  0.0214
 8030W        W24877   7.887  11.804  10.747 -0.4026 -0.0621  0.1065
 8031W        W24878   6.981  12.048   3.015  0.0058 -0.0782  0.0341
 8032W        W24879  16.949  14.213  11.665 -0.0220 -0.0239 -0.1883
 8033W        W24880   4.315   8.431   3.379 -0.0421 -0.1080  0.2191
 8034W        W24881  15.369  11.762   4.960  0.0956  0.0144 -0.0427
 8035W        W24882  10.458  11.445   2.916  0.2694 -0.1082  0.1656
 8036W        W24883   1.757   0.535   2.551 -0.0014 -0.2796  0.1027
 8037W        W24884  14.213   9.968  15.369 -0.0024  0.0932 -0.1302
 8038W        W24885   7.714   7.212  11.050 -0.1777 -0.1850  0.1309
 8039W        W24886   7.288  11.405   0.069 -0.0603  0.0110  0.4051
 8040W        W24887   7.937   6.432   1.378  0.0945  0.0326  0.1775
 8041W        W24888  13.347  13.287   0.878 -0.2046 -0.3614 -0.1245
 8042W        W24889  18.348   5.352  10.568 -0.0410 -0.0323 -0.0633
 8043W        W24890  12.187   7.004   0.453 -0.2796 -0.1844 -0.0435
 8044W        W24891  16.751  13.331   3.118  0.2131  0.3415  0.1468
 8045W        W24892  16.646  13.150  14.101  0.1139  0.1080 -0.3458
 8046W        W24893   4.744   6.365   4.944 -0.0411 -0.0608 -0.1044
 8047W        W24894   2.185   1.951   2.596 -0.1445  0.0159  0.0346
 8048W        W24895   5.424   4.735   0.253 -0.1012  0.0564 -0.0113
 8049W        W24896   1.484   3.770   2.832  0.4534  0.1299  0.1067
 8050W        W24897   1.624   2.742   4.753  0.1216  0.1750  0.0659
 8051W        W24898   2.775  15.435  12.326 -0.2459 -0.0950 -0.4285
 8052W        W24899   7.842  18.440  12.847 -0.0784 -0.0812 -0.0894
 8053W        W24900   9.306  18.558   2.843  0.1417 -0.2501 -0.1600
 8054W        W24901   4.433   5.727  11.475  0.2088  0.1690 -0.0482
 8055W        W24902   4.307   5.769   1.587 -0.0249  0.3895  0.1518
 8056W        W24903  13.090  10.500  14.030  0.1274 -0.5228 -0.2493
 8057W        W24904  18.456   0.241  14.742 -0.1822 -0.1053 -0.1410
 8058W        W24905   9.843   7.563   1.773 -0.0343 -0.2134 -0.1210
 8059W        W24906   8.854   9.688   3.618  0.0252  0.1300 -0.1490
 8060W        W24907   1.264  15.774   2.877 -0.1690 -0.2127  0.0398
 8061W        W24908   2.711  14.885  10.745  0.0533 -0.1591 -0.0707
 8062W        W24909   6.300  11.983   1.020  0.2197 -0.2935 -0.4199
 8063W        W24910   7.539  17.081  14.572 -0.0125  0.2259  0.0233
 8064W        W24911  11.897   4.466  14.915  0.0308  0.2526  0.1959
 8065W        W24912   8.783  15.469  14.294 -0.2120 -0.0271 -0.0213
 8066W        W24913   2.708   2.866   0.532 -0.1202  0.0141  0.0023
 8067W        W24914   5.216  13.715   4.840  0.3889  0.2862  0.1336
 8068W        W24915   1.262  15.579  10.715 -0.2816  0.0695 -0.2548
 8069W        W24916   0.759   0.926  15.141 -0.1468 -0.0177 -0.0114
 8070W        W24917  14.112  13.019  13.003  0.0973  0.0335 -0.1182
 8071W        W24918   4.853   7.961   1.291 -0.2213  0.1043  0.1457
 8072W        W24919   4.771  13.927   3.264  0.1213 -0.0033 -0.2325
 8073W        W24920   9.043   3.764   4.946  0.0973  0.0526  0.1279
 8074W        W24921   5.777   2.004   1.206  0.0118  0.0066 -0.2188
 8075W        W24922   7.362   0.358  15.197  0.0846 -0.3648  0.1653
 8076W        W24923   2.243  17.126  14.917 -0.0783  0.1251  0.0185
 8077W        W24924   0.493  13.476   4.288  0.0271 -0.1082  0.0622
 8078W        W24925   1.487  15.826   1.419 -0.0691  0.1882 -0.2080
 8079W        W24926  17.381  18.279   4.600  0.2481  0.2305  0.2910
 8080W        W24927  14.515  12.225  13.677 -0.1164  0.1222 -0.3663
 8081W        W24928   3.430   3.167  13.163 -0.0004 -0.1394 -0.3144
 8082W        W24929   3.999  17.247   4.638 -0.3592 -0.1352 -0.2611
 8083W        W24930  15.348   7.454   0.831 -0.0849 -0.4429 -0.1460
 8084W        W24931  14.514  11.164  13.086  0.1449 -0.2138  0.1026
 8085W        W24932   7.657   8.449  12.540  0.1651  0.1216  0.0879
 8086W        W24933   3.099   3.025  11.572 -0.1960 -0.2365 -0.3589
 8087W        W24934   1.537  14.139   2.715  0.0982 -0.2173 -0.0739
 8088W        W24935  12.704  15.908   0.761  0.0145  0.2537  0.1180
 8089W        W24936   0.186  17.711   4.517  0.0887 -0.1169  0.2557
 8090W        W24937   0.763  16.513  14.227  0.0723 -0.1599  0.0352
 8091W        W24938  12.549   4.201  11.274 -0.1063  0.1655  0.1857
 8092W        W24939  10.586  15.073   0.603  0.0727 -0.1508 -0.1027
 8093W        W24940  13.092   1.759  12.493  0.0510  0.3944  0.0054
 8094W        W24941   6.179   4.693  13.690  0.0753 -0.1491 -0.1956
 8095W        W24942   0.205  14.338   1.868  0.0960  0.0205 -0.0108
 8096W        W24943   8.603   4.520   4.985  0.2248 -0.0477 -0.2798
 8097W        W24944  16.366  14.296   1.545  0.1224  0.1173  0.0224
 8098W        W24945  18.018  14.710   3.458  0.0487  0.2035  0.0422
 8099W        W24946   2.936  11.901   4.241  0.2099 -0.0556  0.0084
 8100W        W24947   6.916  15.047   3.278 -0.1751  0.0349  0.1395
 8101W        W24948  13.193  10.873  12.160 -0.1024 -0.0628  0.0006
 8102W        W24949   6.817  15.665   4.361 -0.1189 -0.2894  0.2164
 8103W        W24950   9.108  10.967  11.234  0.2377 -0.2476  0.0372
 8104W        W24951   8.059   0.802   5.136 -0.0742 -0.2532  0.2345
 8105W        W24952  16.990   1.563   1.486  0.2672 -0.1469 -0.1395
 8106W        W24953   6.719   7.294   1.170 -0.0898 -0.0941  0.1105
 8107W        W24954   4.277  12.661  14.054 -0.0418 -0.1173 -0.0978
 8108W        W24955  17.106   9.442   1.740  0.3934 -0.3674  0.1178
 8109W        W24956   1.279  12.976  13.379  0.2279 -0.1159 -0.1611
 8110W        W24957  16.168   8.104  10.798  0.0729 -0.3219 -0.3842
 8111W        W24958   2.682  12.621  12.470 -0.0742 -0.0974 -0.2790
 8112W        W24959   0.077   5.960  11.134  0.0543  0.1268  0.1303
 8113W        W24960   8.729   3.496   4.077  0.0661  0.1072 -0.0805
 8114W        W24961  11.776  12.132  10.870  0.3758  0.2359 -0.0623
 8115W        W24962  16.678   5.848   0.428 -0.0921 -0.0066 -0.1591
 8116W        W24963  17.325  17.786  14.657  0.1534  0.0188 -0.0237
 8117W        W24964   1.277  18.215  14.215  0.2310 -0.1930  0.0210
 8118W        W24965  18.669  16.746  14.115 -0.0659 -0.1194  0.0512
 8119W        W24966  12.933  18.494   2.993 -0.0377 -0.1956  0.1144
 8120W        W24967  17.199   0.927  10.940 -0.0999  0.2002  0.1251
 8121W        W24968   9.799   6.329   1.412 -0.2755 -0.1339 -0.2017
 8122W        W24969  13.283   2.903   4.184  0.0135 -0.2028  0.0755
 8123W        W24970   2.514   0.573  11.286  0.0297  0.1044  0.4006
 8124W        W24971   3.827   9.327  14.027  0.0510 -0.2554  0.0679
 8125W        W24972  13.836  13.315  11.615  0.0455  0.0230  0.0738
 8126W        W24973   3.599  16.021  14.085  0.0497 -0.3536 -0.0299
 8127W        W24974   8.764   3.058   1.448  0.1677 -0.0349  0.1702
 8128W        W24975   3.812   4.005   2.024  0.1324 -0.0922 -0.3486
 8129W        W24976   7.585  15.804  12.466 -0.0830  0.0766 -0.2099
 8130W        W24977   8.908   7.252   1.644  0.1388  0.0418  0.0784
 8131W        W24978   5.555  16.965   2.455 -0.0186 -0.0908  0.0328
 8132W        W24979  15.438   0.486   1.009 -0.1186  0.3745 -0.0544
 8133W        W24980   7.143  14.182  11.608  0.0277  0.1016  0.0544
 8134W        W24981   7.943  17.902  13.597 -0.1470 -0.1011 -0.0530
 8135W        W24982   0.927  16.207   4.316  0.2019  0.0499 -0.0835
 8136W        W24983  16.049   7.783   4.335  0.2762 -0.4327  0.1721
 8137W        W24984  11.436   8.142  12.634 -0.0410  0.2204 -0.2051
 8138W        W24985  18.133  14.135  14.079  0.2580 -0.0084 -0.2119
 8139W        W24986  14.537   3.310   3.944 -0.2203 -0.0590 -0.2714
 8140W        W24987  16.158   1.279   4.239 -0.0235 -0.0481  0.0373
 8141W        W24988   0.383   1.413   1.308  0.0760 -0.2768 -0.1164
 8142W        W24989  17.179   4.634   3.862 -0.0279  0.1213  0.0057
 8143W        W24990   5.298   9.086  13.727  0.1502 -0.2101 -0.2620
 8144W        W24991  16.604  11.193   2.659  0.1142 -0.1467 -0.1073
 8145W        W24992  15.657   6.183   1.171 -0.0533  0.1240 -0.1391
 8146W        W24993   0.143  18.807   0.352 -0.2650  0.0055 -0.0389
 8147W        W24994   7.483  14.572   2.900  0.0424  0.0552  0.2078
 8148W        W24995   3.798   6.972   1.443 -0.3078 -0.0249  0.1314
 8149W        W24996   7.540   6.032   3.596 -0.1798  0.2509  0.2883
 8150W        W24997   9.031   6.404  12.687  0.0248  0.1131  0.1637
 8151W        W24998   2.293  18.289   3.510 -0.1174  0.1249 -0.0451
 8152W        W24999  13.978  15.007   2.472 -0.1661  0.1675 -0.2995
 8153W        W25000   6.185   4.199   1.701 -0.1197  0.1420 -0.4026
 8154W        W25001   9.883  12.350   0.072  0.2749  0.1550  0.2089
 8155W        W25002   9.319   2.013   0.869  0.2197  0.1185 -0.0336
 8156W        W25003  17.761   1.663   2.700  0.0253 -0.0479  0.1627
 8157W        W25004  12.959  16.695  15.102 -0.0518 -0.1751  0.1902
 8158W        W25005   6.489  12.479  11.137  0.3670  0.0437  0.0146
 8159W        W25006  10.435  13.948   4.481 -0.0885 -0.0085 -0.1327
 8160W        W25007   3.508   9.647   3.140 -0.3831  0.0441  0.2705
 8161W        W25008   4.743   9.470  14.922  0.1601  0.1639  0.0827
 8162W        W25009   0.591  11.990  11.177 -0.3858 -0.1000  0.0739
 8163W        W25010   7.817  10.773  10.886 -0.1269  0.2647 -0.2960
 8164W        W25011  11.796   1.282   1.468  0.1600  0.0967  0.0882
 8165W        W25012   0.092  15.563   3.479  0.0508  0.1030 -0.0548
 8166W        W25013  18.840   7.533   0.153 -0.0309 -0.1392  0.0828
 8167W        W25014  14.268  10.959  14.772  0.3150 -0.1193  0.1852
 8168W        W25015  12.935   7.360  14.278  0.2097  0.4652  0.2756
 8169W        W25016  12.877  10.545  13.621  0.2500 -0.2214  0.0920
 8170W        W25017   2.904  11.707   1.098  0.0418 -0.2762  0.0962
 8171W        W25018  15.550  16.487   1.806 -0.1053  0.2037 -0.2205
 8172W        W25019  13.893   8.517   1.728  0.0229 -0.3464 -0.3221
 8173W        W25020  13.657   8.577   0.785 -0.0840  0.1808 -0.0164
 8174W        W25021  14.070  13.764  15.499  0.1153 -0.0105  0.0048
 8175W        W25022   8.699   4.260  13.275  0.3460 -0.0788 -0.1163
 8176W        W25023  14.159   1.682   1.512  0.2859  0.1036  0.1112
 8177W        W25024   3.055  10.170  12.044 -0.2003 -0.4234 -0.0158
 8178W        W25025   6.254  12.133  12.154 -0.1715  0.3694  0.2484
 8179W        W25026  15.769  17.055  15.195 -0.2449  0.0312  0.2628
 8180W        W25027  17.051  15.495   0.180  0.0355  0.1211 -0.1043
 8181W        W25028   9.810  18.222  12.361  0.0682 -0.0860 -0.1383
 8182W        W25029   0.791   7.319   2.594  0.1451 -0.1115 -0.3394
 8183W        W25030   7.744   6.912  12.250  0.1070  0.4436 -0.2111
 8184W        W25031   6.277   0.251  14.185 -0.3178  0.2812 -0.0654
 8185W        W25032  16.048  14.773   2.591 -0.0768 -0.2628 -0.3931
 8186W        W25033   4.969   7.958  12.229 -0.1779 -0.2634 -0.0838
 8187W        W25034   2.858  10.161  13.051  0.1606 -0.2439 -0.1364
 8188W        W25035   0.656   3.346   2.069  0.0356  0.1203 -0.3304
 8189W        W25036   2.378   3.656   4.436 -0.0707  0.0582 -0.2635
 8190W        W25037   4.664  18.163   1.561 -0.0769 -0.0782 -0.0855
 8191W        W25038   5.255  14.000  11.934 -0.1975  0.2637  0.4019
 8192W        W25039   0.982   5.484   1.893  0.1539 -0.4119 -0.2718
 8193W        W25040  12.868   5.972  11.713  0.4309  0.0216  0.4630
 8194W        W25041  17.549  12.586   1.870  0.1843 -0.1435  0.2538
 8195W        W25042   2.505  14.906  12.276  0.0157 -0.3167 -0.3533
 8196W        W25043   0.984   7.500  13.979  0.2220  0.1414  0.0391
 8197W        W25044  12.802   8.566  11.349 -0.0214  0.1435  0.1410
 8198W        W25045  10.266  13.958  12.891  0.0643  0.2567  0.0295
 8199W        W25046  10.199   9.209   2.370  0.0339 -0.1907 -0.0905
 8200W        W25047   3.697  12.901   4.237  0.0737 -0.2675 -0.1024
 8201W        W25048  16.286   2.856  12.662  0.0610  0.1432  0.0641
 8202W        W25049  16.570   6.132   0.845 -0.2831  0.2095  0.0403
 8203W        W25050   2.225   1.042   1.116 -0.0090  0.2941  0.1259
 8204W        W25051   4.331   0.203  11.685 -0.1548  0.1430  0.1017
 8205W        W25052  13.393   0.014  15.065  0.0737  0.0759  0.2743
 8206W        W25053  14.811  16.356  10.655  0.0902  0.4058 -0.2913
 8207W        W25054   2.630  17.126  13.608 -0.0731  0.2634 -0.2469
 8208W        W25055  14.265   9.916  12.034  0.1488 -0.2468  0.1019
 8209W        W25056  12.732  17.533   3.484  0.2434 -0.2396  0.0859
 8210W        W25057  16.819   3.446  12.662  0.0744 -0.4010  0.1988
 8211W        W25058   3.606  13.932   4.001  0.2424  0.0227 -0.0962
 8212W        W25059   8.139   0.816  10.738  0.0062  0.0644 -0.1047
 8213W        W25060   0.718  11.410   0.587  0.1210 -0.4175 -0.1957
 8214W        W25061   7.144   5.654  12.430  0.0579 -0.1122  0.1663
 8215W        W25062  15.251  17.519  13.088 -0.3204 -0.2546 -0.0897
 8216W        W25063   3.789   3.287   1.746  0.0806 -0.0981 -0.0531
 8217W        W25064  16.690   2.755  15.029  0.5353  0.0447 -0.1148
 8218W        W25065   1.456  15.464   0.378  0.1638 -0.1355  0.2318
 8219W        W25066   9.553   7.843  11.166  0.0756 -0.0859  0.1336
 8220W        W25067  14.757  14.399   0.426  0.1486  0.1333  0.1330
 8221W        W25068   4.705   2.552   1.401 -0.0320 -0.1566 -0.0541
 8222W        W25069   6.788   3.310  15.031  0.1404  0.0471  0.1604
 8223W        W25070   8.990  16.474  13.757 -0.0459  0.0152  0.1892
 8224W        W25071  13.807   0.160   4.398  0.2357  0.0171  0.1208
 8225W        W25072  14.647  18.003  14.812  0.0698 -0.2175 -0.2117
 8226W        W25073  18.457   5.583   2.493  0.0178  0.0867  0.1032
 8227W        W25074  18.032  15.970   4.268 -0.2858 -0.1016 -0.2756
 8228W        W25075  13.871  15.932   2.156  0.0171 -0.4831 -0.1836
 8229W        W25076   2.965   9.804  12.402 -0.2964  0.1802 -0.1520
 8230W        W25077   1.443  12.690   5.182 -0.0567  0.0850 -0.0412
 8231W        W25078   0.714  11.452  12.461 -0.2578 -0.0880 -0.0107
 8232W        W25079  16.130  11.974  14.604 -0.2880  0.1620  0.1295
 8233W        W25080  18.069   8.648   0.243  0.0540  0.0473  0.3343
 8234W        W25081   1.403   5.890   2.785 -0.0473 -0.0945 -0.0584
 8235W        W25082  17.608  17.808   0.145 -0.2818  0.2415 -0.4298
 8236W        W25083  13.217   2.165   2.690 -0.0183  0.2800  0.1338
 8237W        W25084  11.744   8.652   4.102  0.0593  0.3985 -0.1172
 8238W        W25085   8.331  12.363   4.270  0.2413 -0.1998 -0.1326
 8239W        W25086  17.597  11.945   4.495  0.1984  0.0609 -0.1342
 8240W        W25087   9.999   4.590   1.566  0.1445 -0.0451 -0.0327
 8241W        W25088  15.604  16.695  11.294  0.3213 -0.1438 -0.2717
 8242W        W25089   0.051   9.151  11.993  0.1953  0.2013  0.0124
 8243W        W25090  18.670  11.672   5.969 -0.0087 -0.0085  0.4784
 8244W        W25091   5.589   8.057   4.596  0.1554 -0.0710  0.1609
 8245W        W25092   5.689  17.571  13.088  0.0185 -0.1826  0.3190
 8246W        W25093   5.491   6.383  13.789 -0.3878 -0.3196  0.0367
 8247W        W25094   5.934  18.419  14.783  0.1629 -0.0214  0.2090
 8248W        W25095   4.861  16.370  15.248  0.2094  0.1452  0.2042
 8249W        W25096   3.062   5.870   3.115 -0.0896  0.1090 -0.3160
 8250W        W25097  14.612  12.102   3.610 -0.0787 -0.1080 -0.1718
 8251W        W25098   3.947  17.860   4.678 -0.1041  0.2975 -0.1311
 8252W        W25099  18.698  10.651   0.403 -0.1620 -0.2055  0.4580
 8253W        W25100   7.855   7.884  12.037 -0.0719  0.3573  0.0987
 8254W        W25101  11.931   6.368  14.858  0.1546 -0.3546 -0.2609
 8255W        W25102  11.142  13.955  12.701 -0.0159  0.2324 -0.1477
 8256W        W25103   6.358   9.409   3.053  0.3316 -0.2138  0.2080
 8257W        W25104   8.969   9.708   4.148 -0.0970 -0.1455 -0.0249
 8258W        W25105  11.927  12.238   0.416  0.1074 -0.3067 -0.0536
 8259W        W25106  18.579  15.005  11.874 -0.1578 -0.1114 -0.2635
 8260W        W25107   2.579   0.374   2.273 -0.3528  0.0407 -0.2303
 8261W        W25108  15.117  15.750   5.227 -0.1304 -0.0370  0.0353
 8262W        W25109  14.352   3.235  11.633  0.1235  0.1690  0.0290
 8263W        W25110   8.369  11.771   1.942 -0.2282 -0.2363 -0.2351
 8264W        W25111  13.346   5.979   4.209 -0.0996 -0.2585 -0.1127
 8265W        W25112   9.879   0.416   4.943  0.2723 -0.3081  0.3126
 8266W        W25113  12.773   1.008  12.118  0.0289 -0.0372 -0.1713
 8267W        W25114   3.342  16.412   5.608 -0.0372  0.0063 -0.2175
 8268W        W25115   3.168  12.358  13.703  0.1814  0.1580  0.1509
 8269W        W25116   7.150  18.681  12.547  0.3922 -0.0511 -0.1189
 8270W        W25117   5.721   0.335  14.236  0.0241 -0.1684  0.0576
 8271W        W25118   6.853   3.519   2.522 -0.0604 -0.1695 -0.2200
 8272W        W25119  18.666   0.806  13.818  0.1100  0.1186  0.1029
 8273W        W25120   5.343   8.611   5.820 -0.1424 -0.1816 -0.3272
 8274W        W25121  15.719  12.364   4.287 -0.0995 -0.0375 -0.1267
 8275W        W25122   8.323   9.644   4.893  0.0341  0.1867  0.1137
 8276W        W25123  16.467  12.736   0.211 -0.1455  0.1375 -0.0778
 8277W        W25124   4.615   8.140   4.822  0.0903 -0.1136  0.3845
 8278W        W25125  17.323  16.861   3.387  0.1609 -0.0597 -0.0247
 8279W        W25126   6.633  14.946  14.106 -0.0650  0.1067  0.6008
 8280W        W25127  14.903   5.120  12.765  0.2068  0.0947  0.0410
 8281W        W25128  17.215  13.930  11.206 -0.3664  0.0994  0.0134
 8282W        W25129  16.805  17.429  14.642  0.0004 -0.0432 -0.0423
 8283W        W25130  10.389   5.653  13.890 -0.0009 -0.1816 -0.0389
 8284W        W25131   4.458   8.960  12.536 -0.0927 -0.1227  0.1513
 8285W        W25132  12.249  15.780  12.908  0.2810  0.0585 -0.0336
 8286W        W25133   6.409   5.926  15.344  0.2655  0.1300 -0.2181
 8287W        W25134  14.238  10.746   2.519  0.0806  0.1472  0.1888
 8288W        W25135   4.632   3.388   1.041  0.0242 -0.3016 -0.3391
 8289W        W25136  16.836   7.846   2.728 -0.0087 -0.1814 -0.0366
 8290W        W25137   5.963   3.034   4.710 -0.3843 -0.1724  0.2535
 8291W        W25138   2.007   7.420  11.143  0.0342 -0.2578  0.0003
 8292W        W25139  10.044   5.086   1.638 -0.1564 -0.1428  0.0105
 8293W        W25140   7.910  13.355   0.760 -0.2564 -0.1557  0.2922
 8294W        W25141   7.615   4.665   0.196  0.2147  0.0426  0.3262
 8295W        W25142  16.926   8.943  14.247 -0.1542  0.0863 -0.1251
 8296W        W25143  10.126  10.111  15.189  0.0367  0.1121  0.0541
 8297W        W25144   3.747   2.752  12.196 -0.0492 -0.1805 -0.0262
 8298W        W25145  13.947   9.511  13.505 -0.0460  0.1150 -0.1432
 8299W        W25146  12.761   7.728  13.995 -0.1443  0.1348  0.2235
 8300W        W25147  14.587   9.506   4.763 -0.0332  0.0788 -0.1370
 8301W        W25148   9.846   3.427  12.090 -0.0831  0.0022 -0.2002
 8302W        W25149  15.358   6.294  13.812 -0.0586 -0.2254 -0.4311
 8303W        W25150   1.621   0.079  13.524 -0.2798 -0.0027  0.2320
 8304W        W25151   1.584   8.126   0.525 -0.0841 -0.2593  0.2189
 8305W        W25152   2.188  14.718   2.093 -0.0352  0.1732  0.0758
 8306W        W25153  15.576   1.875  12.401 -0.1899  0.0805 -0.4142
 8307W        W25154  16.027   5.876   2.503 -0.0815  0.5933 -0.1354
 8308W        W25155   7.043   3.417  14.598  0.1012  0.0074  0.1495
 8309W        W25156   4.442   9.893   0.770 -0.2715  0.1138  0.2329
 8310W        W25157   2.207   9.727   0.518 -0.2226 -0.3511 -0.2631
 8311W        W25158   8.428  10.075  10.990 -0.0635  0.1528 -0.1172
 8312W        W25159   8.315  11.028   5.081  0.3744 -0.1758 -0.2033
 8313W        W25160   8.202   4.028  12.469 -0.0361  0.0945 -0.1403
 8314W        W25161  10.482   9.617  15.283 -0.1155  0.1262  0.0205
 8315W        W25162   5.597   3.071   1.161  0.1539  0.2604 -0.1025
 8316W        W25163   0.840  15.602  15.529  0.1486 -0.0093 -0.2016
 8317W        W25164  15.807  16.488  14.987  0.2140  0.0989 -0.1145
 8318W        W25165   4.819  12.162   4.260 -0.0138  0.2966 -0.0084
 8319W        W25166  12.561  16.664   1.770  0.1929 -0.0095 -0.2457
 8320W        W25167   0.524   5.310   0.372  0.1254  0.1253  0.4820
 8321W        W25168   6.020   1.726   9.997 -0.0248  0.0324 -0.0194
 8322W        W25169   4.311   4.604   3.502  0.1591 -0.0187 -0.2779
 8323W        W25170   2.626   0.363  14.424  0.1503 -0.1005 -0.1395
 8324W        W25171  10.020   7.920   6.192  0.0758  0.0035  0.2974
 8325W        W25172  13.957  15.731   1.657 -0.0828 -0.0568 -0.1682
 8326W        W25173   8.417   6.138  15.178  0.0043  0.2883 -0.0960
 8327W        W25174   9.520  14.533   0.787 -0.2482  0.0950  0.0724
 8328W        W25175  15.461  15.618  11.773  0.0360 -0.3491 -0.1879
 8329W        W25176   2.852  18.026   0.824  0.0541  0.0012  0.3048
 8330W        W25177  10.201  12.393  13.296 -0.2148 -0.3434 -0.2515
 8331W        W25178  18.248  17.807   2.034  0.2670 -0.0080  0.2308
 8332W        W25179   1.293  11.890  15.485  0.0479  0.4451 -0.0666
 8333W        W25180  18.061  10.233   3.991 -0.0146 -0.2822 -0.2286
 8334W        W25181   4.362   9.880   0.143 -0.0372 -0.1598 -0.0863
 8335W        W25182   1.143   2.372   1.763 -0.0462 -0.1561 -0.1433
 8336W        W25183   7.553   9.118   0.446 -0.3534  0.1082 -0.3385
 8337W        W25184  17.945   7.110   3.274 -0.0529 -0.0003 -0.0418
 8338W        W25185  15.457  11.962   4.092  0.1731 -0.1544 -0.0639
 8339W        W25186   4.487   3.178   0.074 -0.2122 -0.1122  0.0265
 8340W        W25187   9.700   7.802  11.929  0.2203  0.1022  0.0951
 8341W        W25188   6.430   9.245   0.089 -0.2551 -0.0703 -0.5662
 8342W        W25189  14.792  18.188   4.810  0.0569 -0.2933 -0.3119
 8343W        W25190   9.989  18.650   1.175  0.3827  0.1574 -0.0750
 8344W        W25191   5.709   5.942   5.662  0.3787  0.2087 -0.1219
 8345W        W25192  14.161   4.664  11.078  0.0207  0.0028 -0.1433
 8346W        W25193  11.426   6.863  15.330 -0.0830 -0.2426 -0.0629
 8347W        W25194  17.750  10.199   3.632 -0.1206 -0.0635  0.0681
 8348W        W25195   7.406  16.402  10.553 -0.1226 -0.2125  0.0719
 8349W        W25196  16.295   9.871   1.555 -0.1059 -0.1701 -0.1527
 8350W        W25197  17.917   9.758   1.482 -0.1327 -0.0531 -0.0417
 8351W        W25198  12.644  13.168  15.458  0.1318 -0.1001 -0.3064
 8352W        W25199  12.233  10.179   4.881  0.0278 -0.0350  0.3154
 8353W        W25200  17.751  10.476  11.800  0.0550  0.1452 -0.1279
 8354W        W25201   9.112   7.687  12.006 -0.1789 -0.2769 -0.0433
 8355W        W25202   7.013   8.002  12.950 -0.1873 -0.2084 -0.1046
 8356W        W25203  12.433   9.964  11.870  0.2050 -0.2544  0.2533
 8357W        W25204  14.162  13.695  14.550  0.0707  0.0761 -0.2028
 8358W        W25205  18.243  11.700   5.238  0.0641  0.1822 -0.0391
 8359W        W25206  15.618   2.777   5.807  0.0925 -0.0057  0.0155
 8360W        W25207   1.495  12.455  11.740 -0.1238  0.3058 -0.0307
 8361W        W25208  14.009  12.758   0.345 -0.2614 -0.1133  0.0225
 8362W        W25209   5.385   1.054  13.039 -0.0124 -0.0649 -0.0562
 8363W        W25210   6.161  16.694  11.149 -0.2066 -0.3782 -0.1010
 8364W        W25211  18.598  11.822  12.987  0.5129  0.0694 -0.0358
 8365W        W25212   5.104  14.268  13.827 -0.1978 -0.0529 -0.1106
 8366W        W25213  18.345  17.067   3.200 -0.1793 -0.0153  0.2510
 8367W        W25214  17.594   0.514  10.958  0.1207  0.2457  0.0934
 8368W        W25215   9.883   9.723  11.150  0.3348 -0.0669  0.1663
 8369W        W25216  13.134   1.562   1.416 -0.1275 -0.0098 -0.2176
 8370W        W25217  17.857   4.431  11.831 -0.0550  0.2492  0.2224
 8371W        W25218  16.649   1.675  15.539  0.0976  0.4010 -0.1233
 8372W        W25219   9.634  12.383   3.703  0.0363 -0.2575  0.3541
 8373W        W25220  14.879  16.174   5.298 -0.3580  0.2662  0.0199
 8374W        W25221   3.921  15.900  15.390  0.2858  0.1309 -0.1757
 8375W        W25222  17.109  12.500   2.740  0.2939 -0.3415  0.0718
 8376W        W25223  13.624   8.719  13.343  0.1298 -0.0733 -0.0102
 8377W        W25224  13.194   4.508   3.872 -0.2804  0.0272  0.2825
 8378W        W25225  12.172  17.407   4.479  0.0782 -0.0180 -0.0531
 8379W        W25226   2.571  10.927   3.325 -0.0658  0.1926 -0.0235
 8380W        W25227  11.898   6.988   1.293  0.0101 -0.0481 -0.0534
 8381W        W25228   4.851   0.379  13.231 -0.2312  0.1299  0.1849
 8382W        W25229  13.129  15.155   0.714 -0.1245 -0.0672 -0.1875
 8383W        W25230  14.359   6.031   2.659  0.0254  0.0656  0.0242
 8384W        W25231   9.587  18.369  13.571  0.4625 -0.1581  0.3139
 8385W        W25232  12.902   4.393  12.237 -0.1800 -0.2200 -0.3240
 8386W        W25233   0.421  10.020   0.919 -0.1575  0.1067 -0.0237
 8387W        W25234   3.731  15.178  14.971  0.0720 -0.4269  0.0624
 8388W        W25235  13.280  10.667   0.224  0.0338 -0.1528  0.4128
 8389W        W25236  13.489   5.731  13.555  0.0144 -0.3080  0.1314
 8390W        W25237  14.993  12.187   3.056 -0.0961 -0.0429  0.1034
 8391W        W25238   7.978   5.127  15.220  0.1803 -0.1174 -0.3213
 8392W        W25239   9.248   3.951  11.515  0.0058  0.3059  0.2542
 8393W        W25240  13.252  15.273   3.991  0.1431 -0.2414  0.2445
 8394W        W25241  14.788   0.839  13.632  0.0448 -0.1541  0.2044
 8395W        W25242  11.984   0.694  14.078  0.0621  0.1468  0.0293
 8396W        W25243   5.082  12.664  15.318  0.0760  0.1116 -0.1120
 8397W        W25244   6.541   6.402   4.832 -0.2517 -0.2854 -0.1080
 8398W        W25245   7.909   9.241  13.050  0.1517  0.3418  0.0107
 8399W        W25246  18.638   3.291  14.170 -0.0591  0.0612  0.2320
 8400W        W25247  16.258   9.820   2.968 -0.2253 -0.4017 -0.2674
 8401W        W25248  18.310   0.025  11.494  0.2839 -0.1822  0.0228
 8402W        W25249   3.319   9.008  12.950  0.4477 -0.6216 -0.2473
 8403W        W25250  11.781   9.593  14.897  0.0668 -0.0088 -0.0423
 8404W        W25251   8.824   7.664   3.506 -0.2741 -0.0666  0.1482
 8405W        W25252  16.309  10.565  15.333 -0.1038 -0.0955 -0.0721
 8406W        W25253  12.282  18.026  13.544 -0.2139  0.1131  0.1548
 8407W        W25254  10.332  17.228  12.516 -0.1193 -0.0330 -0.0461
 8408W        W25255  17.217  12.068  12.111 -0.0727  0.1049  0.0734
 8409W        W25256  16.271  17.082  10.538 -0.0774 -0.0392  0.0195
 8410W        W25257  12.959  12.011   1.329  0.0048  0.0216 -0.0256
 8411W        W25258  16.934  13.891  10.756  0.0023  0.1277 -0.1271
 8412W        W25259  10.887  16.112  14.181 -0.4060 -0.1042  0.0385
 8413W        W25260   3.373  14.275   0.172 -0.2190 -0.1425  0.0379
 8414W        W25261  12.318   7.350  15.129 -0.0401 -0.1025 -0.0903
 8415W        W25262  12.936  17.297   0.558 -0.0078  0.1363 -0.1451
 8416W        W25263   8.531   8.847  15.205 -0.0040 -0.0747 -0.0718
 8417W        W25264   7.971  16.616  12.167 -0.0519 -0.0796  0.1736
 8418W        W25265  18.174   3.218   5.383  0.0407 -0.0500  0.3718
 8419W        W25266  13.198  18.318   4.792 -0.1113  0.0012  0.0414
 8420W        W25267   4.412   2.288   4.987 -0.0747 -0.1876 -0.1473
 8421W        W25268  15.237  13.439  14.362 -0.0728 -0.0367 -0.0042
 8422W        W25269  14.535  15.504   3.890  0.0625  0.0678 -0.0633
 8423W        W25270   9.997  17.335   0.999  0.0715 -0.5363 -0.0186
 8424W        W25271   0.038   7.064  13.706  0.0780  0.3720  0.1809
 8425W        W25272  17.280  18.599   2.845 -0.1215  0.1817  0.3368
 8426W        W25273   6.718   5.585   2.415  0.2718  0.0953  0.4686
 8427W        W25274  11.927   8.237   1.045 -0.0569 -0.0660  0.0302
 8428W        W25275   7.808  11.311   0.034 -0.3454 -0.2151  0.1118
 8429W        W25276   1.124  13.286  11.220  0.3941 -0.5449  0.1080
 8430W        W25277   9.571  15.415   1.614 -0.1107 -0.0788  0.0223
 8431W        W25278  13.516   6.166   5.068  0.1584 -0.0732 -0.0354
 8432W        W25279   4.916   1.281  12.951  0.0675 -0.2743  0.0158
 8433W        W25280   0.143   4.566   2.728 -0.0540 -0.1150 -0.1603
 8434W        W25281  14.628  10.067   3.028 -0.0567  0.0707 -0.1167
 8435W        W25282   5.099   9.801   5.336 -0.0527 -0.2946  0.2252
 8436W        W25283  13.021   7.454   2.237  0.1938  0.0893  0.2586
 8437W        W25284  11.045   9.377   1.948 -0.0991  0.4371  0.2863
 8438W        W25285  10.344  17.061  13.039 -0.0007 -0.0721  0.2450
 8439W        W25286   9.067   9.560  12.203 -0.1245  0.0819 -0.0682
 8440W        W25287  13.985  13.852   2.442 -0.0954 -0.3542 -0.0932
 8441W        W25288  17.605   6.895  14.410 -0.1006 -0.0814 -0.0021
 8442W        W25289   7.805  15.750  11.287 -0.0108 -0.4300  0.1214
 8443W        W25290   4.908   1.368  14.008 -0.0637  0.2580  0.0605
 8444W        W25291  17.160   3.924  14.857  0.1009  0.0165 -0.1166
 8445W        W25292  15.201  16.901   0.105  0.1144 -0.1035 -0.0578
 8446W        W25293   7.203   1.234  10.938  0.0940 -0.0542 -0.1874
 8447W        W25294   4.780   6.158  14.941  0.1060 -0.4278  0.3007
 8448W        W25295   6.696   2.011  11.447  0.0411  0.0137 -0.1009
 8449W        W25296   5.611   9.529  14.433 -0.1233 -0.2824 -0.4262
 8450W        W25297   8.269   4.884   5.238  0.2889  0.0326 -0.0247
 8451W        W25298   9.696   7.895  15.450  0.1910 -0.1487  0.0094
 8452W        W25299   2.265  10.734   1.947 -0.1049  0.1197 -0.2551
 8453W        W25300  14.266  16.129  14.351  0.1858  0.2633 -0.0152
 8454W        W25301   9.921   0.060   5.307  0.3471 -0.2854 -0.3583
 8455W        W25302  11.659  14.767  14.449 -0.0541 -0.1590 -0.0575
 8456W        W25303   3.133   3.411  12.296 -0.3690  0.1868  0.0184
 8457W        W25304  13.910  10.622   2.848 -0.1884 -0.0854  0.3573
 8458W        W25305   6.505  18.336   2.131 -0.0588 -0.0306  0.2144
 8459W        W25306  10.084  17.349   0.102 -0.0011 -0.0331  0.1566
 8460W        W25307  16.938   8.083  12.739  0.0341  0.0477 -0.2583
 8461W        W25308  17.837   0.303  13.018  0.3604 -0.2566  0.1690
 8462W        W25309  17.726  15.849   0.852 -0.0918 -0.0337  0.0263
 8463W        W25310  14.261   4.968  14.638 -0.1138 -0.4462 -0.1043
 8464W        W25311  15.785   1.693   3.023  0.1149  0.1280 -0.3479
 8465W        W25312  14.439   4.957  14.128  0.1356 -0.1164 -0.0450
 8466W        W25313  14.819   9.946   5.011  0.5113  0.1664  0.1675
 8467W        W25314  16.689  11.770   1.272  0.0776 -0.0079  0.2467
 8468W        W25315   3.992   3.257   0.016 -0.0775  0.1160  0.0337
 8469W        W25316   2.767   6.237  12.134  0.2789 -0.0019  0.0727
 8470W        W25317   9.108  16.171   3.972  0.0406  0.0692  0.0423
 8471W        W25318  16.858  14.077  13.501 -0.3535  0.2283  0.0498
 8472W        W25319  17.731  13.127   3.011 -0.4775 -0.1696 -0.0675
 8473W        W25320  16.273   1.461   3.749 -0.2944 -0.1753  0.2456
 8474W        W25321  16.981   9.950  13.892  0.2258  0.1782 -0.0042
 8475W        W25322   3.780  18.846  13.148  0.0108 -0.2798 -0.0714
 8476W        W25323   5.831   7.317   1.480 -0.0923 -0.0650  0.4028
 8477W        W25324  17.159  10.207   2.602 -0.2468  0.2975 -0.1126
 8478W        W25325  12.976   9.497   5.455  0.0480 -0.0204 -0.3588
 8479W        W25326  16.062  14.393  15.409 -0.2194 -0.2614  0.3272
 8480W        W25327   7.192   9.572  15.343  0.1001  0.0486  0.1616
 8481W        W25328  10.613  11.229  14.512 -0.1402 -0.1000  0.1420
 8482W        W25329   8.212   4.491  12.107  0.0613  0.2607 -0.4368
 8483W        W25330  12.008   1.931  12.251  0.1421 -0.1375 -0.1430
 8484W        W25331  11.215   4.031   5.214 -0.0998  0.0764  0.1451
 8485W        W25332  11.519  16.322  13.094  0.1408  0.2342  0.0934
 8486W        W25333  10.152   4.242  12.245  0.1570 -0.0018 -0.0496
 8487W        W25334  10.540  16.804  11.423  0.1301  0.2263  0.1748
 8488W        W25335   3.332  10.435  11.678 -0.2686 -0.0068 -0.0090
 8489W        W25336  12.718  16.711   3.521  0.0167  0.1084 -0.0165
 8490W        W25337  14.017   8.142   2.513  0.0154 -0.3293 -0.0062
 8491W        W25338  10.450   3.701  13.979  0.2609  0.1055 -0.3307
 8492W        W25339   0.200  12.685   0.922  0.0650 -0.0211  0.0130
 8493W        W25340   3.721  17.181   2.135  0.0718 -0.0055  0.1457
 8494W        W25341   3.846  16.505  13.018 -0.2321 -0.0602  0.0060
 8495W        W25342   2.968  10.702   0.923 -0.1131  0.0135  0.0656
 8496W        W25343  15.517  17.798  14.675 -0.1313 -0.1198 -0.3584
 8497W        W25344  14.786  10.888  13.874 -0.0129  0.0597 -0.2984
 8498W        W25345  14.590   4.315   1.944  0.0179 -0.0004  0.1842
 8499W        W25346  14.342  17.965  12.577 -0.3889  0.0984 -0.0187
 8500W        W25347  14.274  14.032   3.896 -0.2710  0.0371  0.1390
 8501W        W25348   2.430   8.905   2.329  0.0805  0.1779 -0.2434
 8502W        W25349  17.079  17.069   5.154  0.2490  0.2434  0.2085
 8503W        W25350  17.867  18.704  13.246  0.3952  0.0132 -0.2158
 8504W        W25351  10.217   5.362   4.236  0.0060  0.0977 -0.5094
 8505W        W25352   0.972  12.170   0.396  0.0134  0.1351 -0.4701
 8506W        W25353   6.904   2.175  13.487 -0.1555  0.1362  0.1007
 8507W        W25354   2.409  13.403   5.013 -0.1159 -0.2039 -0.1565
 8508W        W25355   8.124  11.860   4.348 -0.2168  0.0295 -0.0160
 8509W        W25356  15.316   8.102  14.392 -0.2649  0.1312 -0.0651
 8510W        W25357   3.470   1.275  14.602  0.2317 -0.1441 -0.2698
 8511W        W25358  10.514  17.683  11.757  0.0661  0.0398 -0.1340
 8512W        W25359  10.282   2.290   3.875 -0.1475  0.2111 -0.1104
 8513W        W25360  12.964   1.959   4.430 -0.3902  0.0310 -0.0132
 8514W        W25361  18.381  18.120  13.777 -0.0321  0.1736 -0.1404
 8515W        W25362   5.776   7.928  11.556 -0.1881 -0.1266 -0.2327
 8516W        W25363  15.814   2.475  14.750  0.1967  0.2165  0.0037
 8517W        W25364  10.324   2.470  14.116  0.1627  0.1677  0.2154
 8518W        W25365  18.603  16.088   0.422  0.2828  0.0156  0.1302
 8519W        W25366   6.705  11.856  14.209 -0.4739 -0.0804  0.0559
 8520W        W25367  13.521  15.642   1.885  0.0859 -0.2000 -0.2895
 8521W        W25368   4.074   7.523   4.667  0.2116  0.1900 -0.0868
 8522W        W25369   9.976   4.213  11.022 -0.1272  0.1160 -0.1149
 8523W        W25370   5.244  18.309   0.813 -0.0073 -0.0918 -0.1131
 8524W        W25371   8.718   8.685   2.173  0.1461 -0.2529  0.0104
 8525W        W25372  13.765   1.325  14.791  0.0817  0.1279 -0.1506
 8526W        W25373  14.273  17.770   3.285  0.0311  0.1733 -0.0927
 8527W        W25374   6.563  14.083  14.580 -0.1536  0.0065 -0.2063
 8528W        W25375  14.118   1.690  11.575  0.0127  0.1785  0.0633
 8529W        W25376  11.908   8.098   3.934 -0.1225 -0.0109 -0.1756
 8530W        W25377   3.180  11.086   1.715 -0.1084 -0.3452 -0.0493
 8531W        W25378   0.635  14.797  12.849 -0.2058 -0.1038  0.2016
 8532W        W25379   9.848  10.200  13.049  0.1201 -0.0110 -0.1421
 8533W        W25380  10.052  14.401  11.265 -0.0019  0.1773  0.0248
 8534W        W25381  11.681   4.109  13.383 -0.0711  0.3868 -0.0659
 8535W        W25382  10.978  14.690  15.546  0.0189  0.2441 -0.4710
 8536W        W25383   3.430  17.639   4.402  0.4174 -0.0664 -0.0341
 8537W        W25384  16.904  13.674  13.200 -0.3134  0.2721  0.1588
 8538W        W25385   0.805   2.470  11.529  0.0704  0.1814  0.0743
 8539W        W25386   7.718   8.889  14.798  0.0544  0.0490  0.0969
 8540W        W25387  13.024  14.587  13.662  0.0798  0.1441 -0.0003
 8541W        W25388  13.494   6.600   2.345 -0.0544  0.2828 -0.2059
 8542W        W25389  11.422  15.306  15.100 -0.2281 -0.1174 -0.2362
 8543W        W25390   6.157  16.401   0.873  0.0545 -0.1474 -0.4070
 8544W        W25391  18.527   1.562  11.780 -0.1986  0.0748 -0.1704
 8545W        W25392  17.403  13.528  13.949  0.2252 -0.3284  0.0830
 8546W        W25393   8.677   7.714   0.003 -0.0061 -0.0673 -0.0991
 8547W        W25394  18.472  18.680   5.144  0.1677  0.0096  0.1041
 8548W        W25395   7.840  18.400  15.036 -0.0531  0.0851 -0.2395
 8549W        W25396   7.203   5.012  14.468 -0.0685  0.0410 -0.1654
 8550W        W25397   7.346  13.519  14.948 -0.1235 -0.0832 -0.0026
 8551W        W25398   3.184  17.496   2.055 -0.2129  0.0083 -0.0412
 8552W        W25399   3.582   8.771   1.834 -0.1087  0.3796 -0.2649
 8553W        W25400   8.075  11.332  10.732  0.3112  0.0336 -0.0710
 8554W        W25401  16.152  16.945   3.673 -0.0102 -0.0832  0.0728
 8555W        W25402  15.589   3.252   2.618 -0.0673 -0.0261  0.0999
 8556W        W25403   2.930   2.068  15.104 -0.0074 -0.1949  0.0956
 8557W        W25404   6.259   8.826  14.352 -0.1114  0.1787 -0.1137
 8558W        W25405  11.660   0.567  11.283 -0.1822  0.1932  0.2330
 8559W        W25406   4.511   8.043   2.522 -0.1407 -0.1007 -0.0012
 8560W        W25407   0.974  13.134  13.767 -0.1580  0.3418 -0.0371
 8561W        W25408   6.130  12.279   5.440  0.0031 -0.2747 -0.1368
 8562W        W25409   0.891  10.384  12.441 -0.1013 -0.1189  0.1257
 8563W        W25410   5.674   0.959  13.702  0.0377  0.0654  0.3264
 8564W        W25411  14.059   0.844  14.298  0.0785  0.1055  0.3380
 8565W        W25412  13.464   8.582   0.326  0.0245  0.0253 -0.1766
 8566W        W25413  16.467  17.148   2.526 -0.0816 -0.2008  0.0082
 8567W        W25414  13.092   7.629   1.448 -0.0815 -0.1861 -0.1096
 8568W        W25415  13.315  11.440  13.484  0.2478  0.0564 -0.1083
 8569W        W25416   2.097   5.799   3.580 -0.0720 -0.0755  0.1567
 8570W        W25417   4.793   7.458   2.731 -0.0506  0.0433  0.2304
 8571W        W25418   5.898   4.737   3.887 -0.1401 -0.0697 -0.0705
 8572W        W25419   0.582   5.382   1.262  0.1539 -0.0050  0.4090
 8573W        W25420   2.014   4.590  11.081  0.3186  0.0981 -0.3841
 8574W        W25421  12.590   7.833   9.645  0.1750  0.1758 -0.1329
 8575W        W25422  16.426   0.676  13.526 -0.0274 -0.1621 -0.3041
 8576W        W25423  12.198  10.494  11.730  0.0396 -0.0934  0.0906
 8577W        W25424  10.754   5.518  12.783 -0.0264 -0.0711 -0.1549
 8578W        W25425   4.920  18.315  10.941 -0.1281  0.0520 -0.2383
 8579W        W25426  10.385  18.614  13.378 -0.1522 -0.1104 -0.1133
 8580W        W25427   8.389   2.554   1.351 -0.1382 -0.2983 -0.0818
 8581W        W25428  16.920   1.947   0.373  0.2049  0.0781  0.2224
 8582W        W25429   7.445  17.533  11.102 -0.0649  0.2411  0.0121
 8583W        W25430   0.085   9.233   3.629  0.1784  0.0064 -0.1430
 8584W        W25431  13.738   7.087  13.433  0.1473  0.0144  0.1018
 8585W        W25432  18.672  12.803   4.576 -0.1514  0.2271  0.0480
 8586W        W25433   3.318   8.828   3.326 -0.0632  0.4568  0.1676
 8587W        W25434  15.846   7.739   4.780  0.3501  0.1717 -0.1581
 8588W        W25435   9.730   9.013   0.719  0.2262 -0.2555  0.0517
 8589W        W25436   1.819   9.889   3.995  0.4848 -0.3303 -0.1812
 8590W        W25437   1.599  17.282  11.553 -0.1370  0.0161  0.1645
 8591W        W25438   7.832  15.195   0.343 -0.2591 -0.0378  0.3168
 8592W        W25439   8.361   5.184  14.765  0.3707  0.1879  0.2981
 8593W        W25440  16.240  12.233   0.841  0.3508 -0.0948 -0.2437
 8594W        W25441   4.947   0.989   2.377  0.2186 -0.0497 -0.1199
 8595W        W25442  10.559   4.830   4.945  0.0927  0.0772 -0.1055
 8596W        W25443  12.804   2.773   3.035 -0.1013 -0.0593 -0.0223
 8597W        W25444   2.127  10.232   0.689 -0.0499  0.1391  0.2510
 8598W        W25445  10.764  10.222   5.546  0.2608 -0.2385 -0.4090
 8599W        W25446   9.497   3.295   4.128 -0.3068  0.0320 -0.1677
 8600W        W25447   8.326   6.539   1.732  0.4153  0.0474  0.1481
 8601W        W25448  15.897   9.782  14.043  0.1875  0.1546  0.1184
 8602W        W25449  14.925   9.192  11.547  0.0647 -0.1376 -0.2090
 8603W        W25450   5.311  16.193  14.963  0.1432 -0.2322  0.1173
 8604W        W25451   6.132  16.782  14.164  0.0508  0.1658 -0.0339
 8605W        W25452   4.512   1.328  15.016 -0.1610 -0.4305  0.4041
 8606W        W25453   6.733   1.519   5.016  0.2589  0.2646 -0.2652
 8607W        W25454  11.897   5.853   3.552  0.1012 -0.0298 -0.1574
 8608W        W25455  17.805   3.076   3.010 -0.1419  0.0860 -0.1689
 8609W        W25456  11.975   5.860   3.046 -0.1073 -0.0146 -0.4481
 8610W        W25457  10.801   6.845  12.949  0.1270  0.1611 -0.1108
 8611W        W25458   7.941  16.801   5.006  0.0523  0.1059 -0.0213
 8612W        W25459  17.717   0.709   4.844  0.0622  0.0467 -0.0169
 8613W        W25460   9.684  15.604  14.261 -0.5252 -0.0056  0.4015
 8614W        W25461  11.057   9.905  12.775 -0.0401 -0.1258  0.4216
 8615W        W25462  10.678   3.744  12.702 -0.1314 -0.2269 -0.1072
 8616W        W25463  12.485   8.539   4.705  0.2180  0.1494 -0.1846
 8617W        W25464  13.145   4.074  12.521 -0.2199  0.1871 -0.0240
 8618W        W25465  15.107   3.413   4.692 -0.1716 -0.3151 -0.0450
 8619W        W25466  10.734   2.205   4.974 -0.3183  0.1585 -0.0442
 8620W        W25467   4.351   1.790   2.095  0.0205  0.0153 -0.1820
 8621W        W25468  14.992   1.210  11.176  0.0808  0.0007  0.1698
 8622W        W25469  12.707  12.174  15.100 -0.2160  0.0452  0.1062
 8623W        W25470  18.829   1.461  12.232  0.1256  0.4825 -0.2336
 8624W        W25471   4.151  14.559   2.841  0.0499 -0.0380  0.2046
 8625W        W25472  14.477  14.103  11.617  0.4816 -0.0008 -0.0255
 8626W        W25473  18.472   5.240  14.852 -0.1603 -0.1812 -0.0108
 8627W        W25474  12.120  18.166   4.355  0.1158 -0.0348  0.0840
 8628W        W25475   8.286  13.588  15.450  0.0324 -0.2137 -0.0473
 8629W        W25476   8.277   8.586   2.294  0.2085 -0.0252 -0.0511
 8630W        W25477   1.680   1.551  13.678 -0.0902  0.1268  0.0329
 8631W        W25478   2.270   4.317  11.550  0.2056  0.0848  0.2262
 8632W        W25479  18.692   4.300   4.604 -0.2600 -0.0213  0.0604
 8633W        W25480  18.708  12.798   5.223 -0.1999 -0.0567 -0.1636
 8634W        W25481   6.577  14.580  12.220 -0.1125  0.0227  0.1471
 8635W        W25482   2.307   7.833  10.976 -0.1907  0.2438 -0.3710
 8636W        W25483   7.334  13.021   3.099  0.0630  0.0752  0.0492
 8637W        W25484  11.453   1.681   5.298  0.1456 -0.2301 -0.2235
 8638W        W25485  11.297   6.697   1.959 -0.1122 -0.0938 -0.2479
 8639W        W25486   9.034  12.684  13.856  0.1178  0.1210  0.4990
 8640W        W25487  18.836   5.588   1.434  0.2587  0.3125  0.0732
 8641W        W25488  11.267  16.726  13.308 -0.2240  0.1429  0.0958
 8642W        W25489  11.969  13.802   2.593  0.1084  0.1666 -0.2368
 8643W        W25490  15.321  14.860  14.927  0.2689 -0.1245  0.0629
 8644W        W25491   9.814   6.471  15.179 -0.0983  0.0886 -0.1341
 8645W        W25492   7.943   9.831  11.028 -0.2156 -0.0859  0.0347
 8646W        W25493   3.791   5.399   3.562 -0.2663 -0.0994 -0.0665
 8647W        W25494   8.505  17.377  13.139  0.2411 -0.1978  0.2380
 8648W        W25495  16.215  12.930  14.420  0.1571 -0.1906  0.0247
 8649W        W25496   0.302   5.424  12.960  0.3196  0.1695  0.1763
 8650W        W25497  11.688   3.928  15.475 -0.0980  0.2666 -0.2901
 8651W        W25498  17.754   2.201   2.132  0.0749  0.0069  0.0645
 8652W        W25499  15.959   1.559   2.370 -0.3018 -0.0113  0.0425
 8653W        W25500   4.397  13.442   1.685  0.0417  0.0161 -0.2764
 8654W        W25501   0.632   3.933  11.474 -0.2733 -0.1894  0.3075
 8655W        W25502   1.203  16.923   1.058  0.0171 -0.0465 -0.1364
 8656W        W25503   9.037   5.403   1.054 -0.1494 -0.0178 -0.0166
 8657W        W25504  16.136   2.527   2.323 -0.0206 -0.1123 -0.2101
 8658W        W25505  14.322  12.635  10.987 -0.1511 -0.0606 -0.2574
 8659W        W25506   6.430  18.014   2.484  0.1197 -0.0753  0.0408
 8660W        W25507  12.564  14.999  10.540 -0.1886  0.2858 -0.0785
 8661W        W25508   6.505   2.116   1.808  0.2726  0.1679  0.1119
 8662W        W25509   2.954   9.808  13.420  0.3194  0.1614 -0.3048
 8663W        W25510  10.315  15.706   3.412 -0.3591  0.1579  0.0335
 8664W        W25511  14.876   1.922   0.762 -0.0713 -0.0383 -0.0928
 8665W        W25512  13.337   8.872   1.042  0.2889 -0.0216  0.0044
 8666W        W25513   9.308   9.960   4.440 -0.0383 -0.1469 -0.2452
 8667W        W25514  14.681   3.909  14.996  0.1415 -0.0591  0.2698
 8668W        W25515   2.583  13.790  12.663  0.0318  0.0178 -0.1155
 8669W        W25516  13.595  13.923  14.309 -0.1218 -0.1663 -0.3446
 8670W        W25517  12.454  11.874   5.090 -0.4420 -0.0964 -0.2041
 8671W        W25518   6.403  17.294   3.916  0.2871 -0.0004 -0.4266
 8672W        W25519   3.764   3.717  11.913 -0.0325 -0.1202  0.2608
 8673W        W25520  15.388   8.833  11.063 -0.1117 -0.0289 -0.0908
 8674W        W25521  10.484  10.330   0.464 -0.2224  0.1336 -0.0011
 8675W        W25522  11.965   0.516   4.626 -0.0610  0.1020 -0.0090
 8676W        W25523   8.107   0.450  11.901 -0.3174  0.0482 -0.4540
 8677W        W25524   1.047   8.792  11.616  0.0463 -0.1558 -0.1463
 8678W        W25525   2.118   4.489   4.996 -0.1382  0.0086  0.0376
 8679W        W25526   8.977  14.435   3.171  0.0169 -0.0886  0.4068
 8680W        W25527  15.913  12.074  12.222 -0.5350  0.1693 -0.2702
 8681W        W25528  12.054   9.882  12.471  0.0896 -0.2177 -0.1071
 8682W        W25529   1.018  12.187  13.781 -0.0688 -0.0219  0.0877
 8683W        W25530  13.560  15.679   0.021  0.1403 -0.3918  0.0922
 8684W        W25531   7.767   5.951   5.318  0.0132  0.1002 -0.1699
 8685W        W25532   0.974   3.347   4.573  0.0577  0.0111  0.0081
 8686W        W25533   0.435   0.210   2.295 -0.2993 -0.0567  0.3312
 8687W        W25534   5.411   8.931   3.173 -0.3385 -0.6071  0.0654
 8688W        W25535   2.313  16.020  12.967  0.0248 -0.1567  0.1027
 8689W        W25536   0.354  13.100  11.843 -0.5189  0.0891 -0.2786
 8690W        W25537   7.953  12.771  13.317  0.0532 -0.1295  0.3403
 8691W        W25538   7.488   7.307   3.776 -0.1241 -0.0625 -0.2967
 8692W        W25539   1.231  15.918   5.340  0.0266 -0.0763  0.2365
 8693W        W25540   8.201   3.499  13.046  0.0469  0.0254  0.1458
 8694W        W25541   1.112  10.626  15.409 -0.2766 -0.0083 -0.0605
 8695W        W25542  18.827  14.686  14.302 -0.2575 -0.3569  0.3759
 8696W        W25543   1.112  13.656  11.660 -0.0045 -0.3126  0.1513
 8697W        W25544  14.190  10.158  13.416  0.2567  0.1241 -0.1083
 8698W        W25545   1.578  11.483  11.655  0.1136  0.1363 -0.3668
 8699W        W25546   6.655   2.107   0.019  0.0619  0.0119  0.2366
 8700W        W25547  12.034   9.102  10.886  0.0804 -0.0158  0.0104
 8701W        W25548  14.273  18.647   3.387 -0.3530 -0.2975  0.3836
 8702W        W25549   9.219   2.611   1.852  0.1254  0.1673 -0.0261
 8703W        W25550   1.394   5.081  15.094  0.2811  0.3099 -0.1051
 8704W        W25551  13.480  16.205   0.179  0.1565  0.1600 -0.1855
 8705W        W25552   0.499   5.124   0.837  0.1026  0.1754  0.1611
 8706W        W25553  18.819  12.209  14.612 -0.1518  0.1600 -0.2186
 8707W        W25554  11.081   2.797   2.366  0.2474  0.0946  0.1138
 8708W        W25555  13.778  13.073   1.997 -0.1753 -0.3600 -0.0619
 8709W        W25556  12.945  17.650  13.047  0.2054 -0.2575 -0.0041
 8710W        W25557   5.981  15.249   2.336  0.0038 -0.0614  0.0250
 8711W        W25558  16.878  11.505   3.571  0.1566  0.0392 -0.3800
 8712W        W25559   0.090   0.991  11.254  0.0172  0.2235 -0.0736
 8713W        W25560  14.290  15.584   5.048  0.2306  0.3507 -0.1276
 8714W        W25561  10.877   3.496  13.220 -0.1439 -0.2885  0.1391
 8715W        W25562  16.599   6.165   2.193 -0.0744  0.1496  0.3006
 8716W        W25563  11.924   3.095  15.539 -0.0063 -0.2732 -0.2325
 8717W        W25564   1.282   0.522  13.639 -0.3962  0.0585 -0.0486
 8718W        W25565   1.014  14.114  11.712  0.0175 -0.1866 -0.0724
 8719W        W25566  12.412  10.276   1.203  0.0021  0.0771  0.1046
 8720W        W25567   6.157   7.436  12.777 -0.0181  0.1819  0.1910
 8721W        W25568  11.408  10.948  10.688  0.3956 -0.0162 -0.1297
 8722W        W25569  14.502   4.177  12.788  0.0290 -0.2580 -0.1236
 8723W        W25570  14.114   2.373   0.093  0.0010  0.2593 -0.2757
 8724W        W25571  12.351   5.861   4.229 -0.2897 -0.0833 -0.0930
 8725W        W25572  11.920   4.553  11.937 -0.4129 -0.1887  0.2045
 8726W        W25573   1.674  15.463   4.223  0.1703  0.1911 -0.0076
 8727W        W25574   0.104  13.239   4.605  0.1127 -0.0345  0.2794
 8728W        W25575   7.778   4.230  15.343 -0.0046  0.0428  0.0360
 8729W        W25576   2.917  17.176   0.733  0.2159 -0.1372 -0.1677
 8730W        W25577   9.576   5.973   3.541 -0.0660  0.0047  0.2649
 8731W        W25578  18.758   8.531   3.310 -0.0839 -0.0576 -0.0358
 8732W        W25579   7.766  16.026   3.993 -0.0022 -0.3235  0.2428
 8733W        W25580  13.478   6.549   3.792 -0.1621  0.2650  0.2572
 8734W        W25581   4.229  11.482  12.147 -0.0067 -0.0369 -0.0375
 8735W        W25582  15.038  10.271   4.128 -0.0056  0.0991 -0.3627
 8736W        W25583  10.728   5.002  12.481 -0.2953 -0.0774  0.0520
 8737W        W25584  17.608  17.375   2.016 -0.0416 -0.1386 -0.2199
 8738W        W25585   8.891   7.678   0.883 -0.0329 -0.3108  0.0474
 8739W        W25586  17.650   8.898   0.252  0.1282  0.0071 -0.1978
 8740W        W25587   1.810   6.843  14.399 -0.0698 -0.2341  0.1871
 8741W        W25588  16.723  15.595  10.699 -0.1661  0.1133  0.1640
 8742W        W25589  11.837  12.002  11.364  0.2660  0.2814 -0.0616
 8743W        W25590   6.115   8.650   3.404 -0.2232  0.1367  0.0383
 8744W        W25591  16.228   6.105   0.491 -0.0822 -0.1953  0.2482
 8745W        W25592   0.627   3.870  10.551  0.1188 -0.0799 -0.0257
 8746W        W25593  11.284  13.139   0.732 -0.1647  0.0007  0.0625
 8747W        W25594   0.382   6.174  11.930 -0.0993  0.3868  0.1010
 8748W        W25595  12.414   6.453  15.312  0.1199 -0.0434 -0.1817
 8749W        W25596  18.394   4.844  14.101 -0.4756  0.0008  0.2810
 8750W        W25597   3.058  11.012  13.888  0.0084  0.0152  0.0785
 8751W        W25598  10.584   1.916   4.369 -0.2756 -0.1128  0.1844
 8752W        W25599   5.536  10.852  12.418 -0.0911 -0.0135  0.0104
 8753W        W25600   4.455  12.561   4.225  0.4031 -0.3065  0.0248
 8754W        W25601   6.565   6.617  12.855  0.2109  0.2232  0.0632
 8755W        W25602  14.033  16.663  13.609 -0.0029  0.2152  0.0116
 8756W        W25603   3.581   1.094  15.541  0.0173  0.0027  0.5087
 8757W        W25604   2.231   1.333   0.133 -0.2502 -0.0876 -0.1407
 8758W        W25605  13.744  14.452  14.188 -0.2792 -0.1863 -0.0595
 8759W        W25606  17.719   1.935   0.815  0.0458 -0.1026  0.0360
 8760W        W25607   4.827   3.344   2.464 -0.0178 -0.4051  0.1210
 8761W        W25608   0.891  15.742  12.594  0.2562 -0.1969 -0.3138
 8762W        W25609  16.472   8.172  12.521 -0.2471 -0.0204 -0.0279
 8763W        W25610   2.438  10.282   2.249 -0.2714 -0.0059  0.3483
 8764W        W25611   8.840   6.062   5.211 -0.1668 -0.0347 -0.0050
 8765W        W25612  10.954  15.385   0.373  0.2685 -0.1994 -0.0256
 8766W        W25613  16.661  18.513  10.782 -0.4180  0.1635 -0.0503
 8767W        W25614  13.484  17.489   2.444 -0.2344  0.0867 -0.1995
 8768W        W25615   6.183  16.574   3.105 -0.1420 -0.0544 -0.0550
 8769W        W25616   8.629  12.107  13.235 -0.2510 -0.0748  0.0099
 8770W        W25617   6.947   9.520   4.614  0.1047 -0.0364  0.0712
 8771W        W25618  14.826  17.527   1.707  0.2359  0.0553  0.1548
 8772W        W25619  12.688   6.246   3.363 -0.1329 -0.1350  0.0006
 8773W        W25620   2.923   0.669   2.009 -0.0307 -0.0848  0.1261
 8774W        W25621  10.482  17.120  14.277 -0.0111  0.0268 -0.0798
 8775W        W25622   6.559  10.776  10.270 -0.0278  0.0629  0.0401
 8776W        W25623   7.891   3.201  12.130  0.3034  0.1046 -0.0553
 8777W        W25624   5.848  13.083   1.732  0.2330  0.1375  0.2080
 8778W        W25625  15.822  17.403   0.952  0.2809 -0.1033  0.1362
 8779W        W25626   4.465   0.609  13.557  0.0150  0.3658  0.0367
 8780W        W25627  14.840   3.611   3.601  0.2798  0.4934 -0.0648
 8781W        W25628  18.398  12.609   2.268  0.0454  0.1213  0.1355
 8782W        W25629  12.157   9.822   4.499  0.3000 -0.0882  0.3351
 8783W        W25630   3.229  16.817  10.576 -0.0274  0.0202  0.0951
 8784W        W25631  10.940   7.759  10.613 -0.0431 -0.1360 -0.2225
 8785W        W25632  12.734   3.290  14.507  0.3644 -0.0571 -0.1945
 8786W        W25633   0.659   4.213   5.003 -0.0253  0.3377  0.1065
 8787W        W25634  10.986   0.209   4.452 -0.2011  0.1144  0.1150
 8788W        W25635  15.874   9.602   3.244 -0.0562  0.2080 -0.2404
 8789W        W25636  18.069  18.687   2.284  0.2311 -0.1704  0.1709
 8790W        W25637  18.363   3.616  11.217  0.1708 -0.2939 -0.1068
 8791W        W25638  14.484   8.671   1.712  0.1542 -0.1208  0.1003
 8792W        W25639   0.370  13.521   2.924  0.2588 -0.4379 -0.0970
 8793W        W25640  12.252   9.452  12.185 -0.3919 -0.1382 -0.0618
 8794W        W25641  14.274  13.083   1.142  0.0393  0.1392 -0.0108
 8795W        W25642   0.403   3.216  15.238  0.0723  0.1038  0.0899
 8796W        W25643   2.518  16.086  11.319 -0.2682 -0.0677 -0.0200
 8797W        W25644  17.481   3.750  14.043 -0.1136  0.2715 -0.0173
 8798W        W25645  16.997   1.495   3.356  0.2562 -0.3222 -0.1922
 8799W        W25646  13.713   2.441  12.629 -0.4027  0.2799 -0.0045
 8800W        W25647   6.181  17.240   9.882  0.2789 -0.1157 -0.2186
 8801W        W25648   2.510   8.380   4.877  0.2907 -0.0351  0.0771
 8802W        W25649  13.464   3.638   4.959  0.0700  0.1047 -0.1234
 8803W        W25650   1.869   2.294   4.022  0.1838 -0.0061 -0.2046
 8804W        W25651  13.618   0.929   4.789 -0.0001  0.0963 -0.0180
 8805W        W25652  13.443  12.560  12.022  0.0574 -0.3761 -0.0489
 8806W        W25653  17.811   5.127   3.799 -0.1904 -0.0348 -0.2637
 8807W        W25654  17.894   3.952   3.227  0.0898 -0.2755 -0.3053
 8808W        W25655  17.606   2.362  10.583  0.0696 -0.3562 -0.1228
 8809W        W25656   5.123   7.283  12.835 -0.2043  0.0596  0.0551
 8810W        W25657  11.268   4.659  12.430 -0.2390 -0.1455  0.0106
 8811W        W25658  16.371  16.502   4.592  0.3739 -0.2372  0.3870
 8812W        W25659  12.622   8.359   0.030 -0.2801  0.1659  0.0144
 8813W        W25660  10.483   6.066   2.544  0.3050  0.2544  0.0649
 8814W        W25661  16.517   3.731  13.505  0.0794  0.2054 -0.1269
 8815W        W25662  14.063   9.083  11.454  0.4631  0.0438 -0.0071
 8816W        W25663   9.463   8.876  11.949 -0.2150 -0.0562  0.0624
 8817W        W25664   9.208   9.930  15.506  0.2863  0.1178 -0.0471
 8818W        W25665  14.971  14.141  12.692 -0.0563  0.1099  0.4512
 8819W        W25666   7.233   9.356  12.087 -0.1966 -0.0784 -0.2136
 8820W        W25667  17.950   7.096   4.828 -0.1107  0.1187 -0.3770
 8821W        W25668  17.171   1.217   1.176 -0.2722  0.2383  0.1324
 8822W        W25669  16.840  15.435   3.856  0.0419 -0.1707  0.3413
 8823W        W25670   2.627  10.234  14.651 -0.1529 -0.0464 -0.1133
 8824W        W25671   6.229  13.558   3.492 -0.2376  0.1367 -0.2489
 8825W        W25672  17.836  18.357  12.194  0.2895  0.0705  0.1840
 8826W        W25673   5.967  12.143  13.218 -0.0868 -0.3428  0.2949
 8827W        W25674  12.622  14.733  11.490 -0.0691 -0.0337  0.5370
 8828W        W25675   6.280   2.607  15.327  0.0088 -0.4624  0.0330
 8829W        W25676  15.849  15.975  11.819  0.0884 -0.1911 -0.3455
 8830W        W25677   3.704   1.620  12.276 -0.1895 -0.2516  0.0679
 8831W        W25678  15.266   7.218  12.013 -0.1300  0.1898 -0.0902
 8832W        W25679   1.687  17.038  15.368  0.3290  0.0549  0.1991
 8833W        W25680  17.376   6.428   4.986  0.1367  0.0235  0.0362
 8834W        W25681  17.228   3.750  11.945  0.2173 -0.4615  0.4529
 8835W        W25682  14.579   7.530   3.644 -0.2102  0.0929  0.1074
 8836W        W25683  16.844   2.623   2.975  0.0953 -0.0047 -0.2192
 8837W        W25684   6.690   4.398   0.247 -0.2239 -0.1680 -0.1582
 8838W        W25685  13.241  10.554  10.854 -0.0764 -0.0342 -0.4291
 8839W        W25686  12.803   3.108   0.290 -0.1338 -0.0257 -0.0740
 8840W        W25687   4.594  16.535  14.412  0.2382 -0.1882 -0.0239
 8841W        W25688   1.583  15.233   3.635  0.0785 -0.0855  0.1376
 8842W        W25689  18.413  14.100   1.189 -0.1242  0.2573  0.0142
 8843W        W25690  13.925  11.714   4.809 -0.0951  0.2084 -0.1824
 8844W        W25691   3.325  13.106   1.246 -0.1422 -0.1784 -0.0802
 8845W        W25692   2.963   5.372  12.631 -0.0252 -0.0133 -0.0022
 8846W        W25693   0.347   8.587  13.260  0.0360  0.0509  0.1342
 8847W        W25694  11.695  13.323   4.200 -0.1691 -0.1621 -0.1542
 8848W        W25695  18.090  11.524   3.476  0.1266  0.0779  0.0500
 8849W        W25696  10.042  13.892   1.301 -0.1495  0.0671 -0.0028
 8850W        W25697   1.969   5.519  13.021  0.2364 -0.2939 -0.0923
 8851W        W25698   6.924   6.103   4.953 -0.4372  0.1308  0.3829
 8852W        W25699  15.804  16.838  14.281  0.0002 -0.2788  0.1453
 8853W        W25700   8.967  13.499   0.346  0.0849 -0.1924  0.0108
 8854W        W25701  13.558   2.162  14.771 -0.0755  0.1251  0.0771
 8855W        W25702  16.708   2.976  12.864  0.2771 -0.0200 -0.1350
 8856W        W25703   7.477   5.951   4.909  0.1365 -0.2751  0.0436
 8857W        W25704   8.234   0.715  15.007 -0.1662  0.3040 -0.2031
 8858W        W25705   4.787  10.218   2.841 -0.1420  0.0261 -0.3246
 8859W        W25706   7.197   5.220   1.235  0.2256  0.0091 -0.1158
 8860W        W25707   5.580   9.930   0.699  0.0723 -0.1114 -0.0654
 8861W        W25708   1.477   7.923   2.064  0.0990  0.0641 -0.0181
 8862W        W25709   6.980   5.278  15.438  0.1672 -0.2697  0.0407
 8863W        W25710   7.144   1.037   3.919 -0.2362 -0.4000  0.1256
 8864W        W25711   0.902  10.094  11.637 -0.0172  0.1283  0.0151
 8865W        W25712   1.513  12.657  12.991 -0.0199 -0.0207 -0.1709
 8866W        W25713   4.549  13.541  12.962 -0.1235 -0.2234 -0.1986
 8867W        W25714   2.881   6.766  13.292  0.1182 -0.2102  0.1699
 8868W        W25715   7.957   9.966  15.495  0.0193  0.3559  0.0470
 8869W        W25716   7.800  11.472  11.576  0.0681 -0.2128 -0.1873
 8870W        W25717  10.470  11.128  13.217 -0.1370 -0.0637  0.0820
 8871W        W25718   9.603  13.320  15.136  0.2037  0.0689 -0.1186
 8872W        W25719   8.721   9.808   0.607  0.2305 -0.0016  0.0998
 8873W        W25720   8.247  10.516  13.495 -0.0218 -0.1457 -0.1789
 8874W        W25721  18.072   2.835   4.146  0.1045 -0.0892 -0.0372
 8875W        W25722  10.380   8.975  14.708 -0.0788 -0.1921 -0.1257
 8876W        W25723   9.106  16.415  15.316 -0.0608 -0.0084 -0.0431
 8877W        W25724  17.944   1.742   3.806  0.0089 -0.0282  0.1282
 8878W        W25725  14.801   8.258   2.993 -0.0512 -0.1743  0.1960
 8879W        W25726  17.072   1.819  15.190  0.1518 -0.1520 -0.1194
 8880W        W25727  13.457  18.567  13.287 -0.1800  0.2324  0.1539
 8881W        W25728  13.963  14.177  14.616 -0.0311 -0.0945 -0.0245
 8882W        W25729  14.737   7.828   3.988 -0.2052  0.2545  0.1971
 8883W        W25730   4.293   3.223   3.393 -0.4740 -0.2416  0.4052
 8884W        W25731   2.254   4.503  13.882 -0.4012  0.0696  0.2006
 8885W        W25732  17.595  15.989  12.397  0.4018 -0.1989 -0.0340
 8886W        W25733  17.663  10.997   4.503 -0.2458 -0.5295 -0.0899
 8887W        W25734  10.977   4.635   1.650 -0.0478  0.1507  0.3026
 8888W        W25735   6.095   9.140   2.071  0.4737 -0.1992 -0.2019
 8889W        W25736   6.229   5.510   1.262  0.1255 -0.0995  0.0032
 8890W        W25737   1.500   2.743   3.867 -0.0806  0.3052  0.0524
 8891W        W25738   7.442   0.585   3.765 -0.3207 -0.2624 -0.1457
 8892W        W25739  16.440   5.563  13.211 -0.0120  0.3187 -0.1272
 8893W        W25740  14.148   0.028  12.775  0.2308 -0.0244  0.0315
 8894W        W25741  14.996  10.003  11.573 -0.0813  0.1265  0.1146
 8895W        W25742   7.182  16.850   1.824  0.0775 -0.1563 -0.1172
 8896W        W25743   9.302  12.650   4.990 -0.2479 -0.0823 -0.2126
 8897W        W25744   7.127   1.630   2.817  0.0141 -0.0774  0.2390
 8898W        W25745  14.821   0.867   5.672 -0.1174 -0.2572  0.0146
 8899W        W25746  17.786   0.247   2.086 -0.0458  0.2629 -0.2045
 8900W        W25747   6.386   9.972  15.513  0.2693  0.3094  0.2475
 8901W        W25748  14.856   6.605   0.677  0.1458  0.1701  0.0027
 8902W        W25749   5.205  16.596   0.776  0.0131 -0.0964  0.4269
 8903W        W25750   2.405  13.139   2.224  0.0407  0.1169  0.1531
 8904W        W25751   7.329   0.827  15.454 -0.0605  0.2688 -0.2014
 8905W        W25752   0.081  13.549  10.932  0.0441 -0.2928  0.1517
 8906W        W25753  10.835   1.802   2.350 -0.1748  0.0313 -0.0560
 8907W        W25754   3.415  13.213  14.660  0.0586  0.0400  0.0877
 8908W        W25755   3.922  16.437  13.543  0.1833 -0.2489  0.0184
 8909W        W25756   0.690   6.185   3.918 -0.1222  0.0842  0.0987
 8910W        W25757   6.198  17.292  10.402  0.0894 -0.1800 -0.1098
 8911W        W25758   9.069   6.742  11.280  0.1491  0.4065 -0.1416
 8912W        W25759   7.164   8.325  12.592  0.1174  0.0999  0.1222
 8913W        W25760   9.521  13.256   2.803 -0.0910  0.1555  0.2906
 8914W        W25761   4.811   9.021  12.945 -0.2233  0.1717 -0.1542
 8915W        W25762  11.306  10.677  13.804  0.0802  0.1075 -0.0104
 8916W        W25763   3.857   0.613   3.680 -0.2805 -0.2250 -0.0998
 8917W        W25764  14.622  11.959  14.632  0.0699  0.1072  0.0573
 8918W        W25765  12.568   5.582   1.519  0.0484 -0.0714  0.0247
 8919W        W25766   3.193  11.630  15.524  0.0080 -0.1237  0.0931
 8920W        W25767   6.354   0.100  15.280 -0.2044  0.2266  0.0188
 8921W        W25768   1.580   2.023   4.358  0.0589 -0.2136  0.0672
 8922W        W25769   5.945  16.826  10.528 -0.1344 -0.1837 -0.0336
 8923W        W25770  16.864  16.228  15.073  0.3165 -0.0848 -0.3208
 8924W        W25771   5.209  12.826  11.549  0.0991  0.0831  0.0407
 8925W        W25772   1.721  15.863  10.824 -0.1368  0.1202  0.1169
 8926W        W25773  13.249  16.471  10.728 -0.3305 -0.2179 -0.0762
 8927W        W25774  16.996   5.531   3.728 -0.0064 -0.0875  0.1455
 8928W        W25775  17.414  17.914  15.152 -0.0337 -0.3937  0.0595
 8929W        W25776  16.945   1.067   5.516  0.0845  0.0209 -0.1979
 8930W        W25777   4.409   9.418   1.031  0.3797 -0.1093  0.0906
 8931W        W25778  14.051   5.045  11.963 -0.0015 -0.3762 -0.3385
 8932W        W25779  16.589   0.227  14.048 -0.2375  0.0619 -0.3308
 8933W        W25780  13.331  14.183   3.485 -0.0600  0.0814 -0.1704
 8934W        W25781  18.699   9.996   1.037 -0.0889  0.0191  0.1055
 8935W        W25782  10.491   3.757   3.221  0.3462  0.0026 -0.0606
 8936W        W25783  16.675  18.733  11.576  0.0695 -0.0828  0.0436
 8937W        W25784  11.357   7.519  15.144  0.1110  0.1660 -0.0307
 8938W        W25785  10.238   2.391   0.819  0.0725 -0.0468 -0.0997
 8939W        W25786   8.692   8.715  13.315  0.0600  0.0449 -0.1139
 8940W        W25787   2.941   5.566   1.864  0.0192 -0.1169 -0.0128
 8941W        W25788   7.143  10.128   3.115 -0.0429  0.1187 -0.2040
 8942W        W25789  10.325   3.123   3.727 -0.0314  0.0237 -0.1402
 8943W        W25790  10.658  13.403   1.635  0.3859 -0.1120 -0.1118
 8944W        W25791  15.840   5.209  14.401  0.1185  0.2560 -0.0396
 8945W        W25792   8.773  16.571   3.897  0.3018 -0.4146  0.0202
 8946W        W25793   9.159  15.737   4.198  0.1807  0.0280 -0.2127
 8947W        W25794  14.316  17.762   4.316  0.1484 -0.2061  0.1089
 8948W        W25795  17.539   6.570  12.578  0.2327 -0.1374 -0.0669
 8949W        W25796   1.515  17.903   0.554  0.0098  0.2010 -0.1048
 8950W        W25797  18.063  13.282   5.201 -0.2819  0.0732  0.3154
 8951W        W25798   1.260  16.102  10.936  0.1721  0.2456  0.1049
 8952W        W25799  10.823  14.058  11.615 -0.4179 -0.0941 -0.2044
 8953W        W25800   3.655   8.187   5.641  0.0651 -0.0881  0.0808
 8954W        W25801   0.772  13.686  15.248  0.0346 -0.1137  0.2143
 8955W        W25802   0.619   3.413  14.020 -0.1010 -0.0019  0.1616
 8956W        W25803   9.871  18.130   2.789 -0.4212  0.0273  0.1922
 8957W        W25804  13.480   1.247   2.564 -0.2494  0.2424  0.0054
 8958W        W25805   4.071  15.611   5.510 -0.0602  0.1445  0.1283
 8959W        W25806   2.612   2.405   2.751 -0.0985 -0.1482 -0.2309
 8960W        W25807   1.024   4.971   4.743  0.0795  0.1666 -0.0803
 8961W        W25808  16.280  17.167  11.627  0.2488 -0.1058 -0.1780
 8962W        W25809   8.503   6.406   5.491  0.1199 -0.1771  0.1114
 8963W        W25810  17.845  11.614  10.665  0.3693 -0.2382  0.1565
 8964W        W25811  14.070   2.735  13.601  0.1703 -0.4294 -0.1410
 8965W        W25812  14.734  14.440   3.586  0.0085  0.0262 -0.1118
 8966W        W25813  17.945  15.076   2.629 -0.1114 -0.3261  0.1091
 8967W        W25814  13.745  15.448  15.056 -0.1096 -0.1223  0.1628
 8968W        W25815  14.511  10.855  11.668  0.0159 -0.1354 -0.1900
 8969W        W25816   6.620  18.751  12.175 -0.2630  0.0697 -0.0779
 8970W        W25817   8.182  14.939   3.921  0.0422 -0.2506 -0.0255
 8971W        W25818  13.877   6.470   4.753 -0.0765  0.0674  0.1340
 8972W        W25819  17.107   5.551   1.519 -0.3154 -0.2870  0.0162
 8973W        W25820   4.923  18.075   4.786 -0.3260  0.1859  0.2043
 8974W        W25821  16.474  17.147   0.360  0.0616 -0.0392 -0.0466
 8975W        W25822   9.169   7.848  13.213  0.0653  0.4034 -0.0141
 8976W        W25823  10.477   0.591   0.069  0.0262 -0.1323  0.3034
 8977W        W25824  14.263  15.387  13.339 -0.0701 -0.2347  0.3831
 8978W        W25825   1.135  12.489  12.688  0.0758  0.2441 -0.1202
 8979W        W25826  14.770   2.048  12.750 -0.0563 -0.2531  0.0331
 8980W        W25827   8.684  11.494   0.145 -0.3741  0.5586  0.2487
 8981W        W25828  16.198   5.080  12.163  0.0812  0.4118  0.1803
 8982W        W25829  11.940  18.262  14.957  0.0074 -0.0561  0.0132
 8983W        W25830   8.723   0.369   4.903 -0.0782 -0.0795 -0.0279
 8984W        W25831   6.358   4.970  14.801 -0.0359 -0.1745  0.1860
 8985W        W25832  14.553  15.131  14.747 -0.0591 -0.2655 -0.1150
 8986W        W25833  11.789   5.076   0.591 -0.1487 -0.1145  0.1522
 8987W        W25834   5.133  16.343  13.672  0.2003  0.1101  0.0595
 8988W        W25835   4.582  17.640   1.576 -0.2738  0.0951  0.1674
 8989W        W25836  13.737  18.197  14.705  0.0114  0.0966  0.1139
 8990W        W25837   6.242   1.673   4.971 -0.1719 -0.0283 -0.1107
 8991W        W25838   6.638   9.492   0.828 -0.1838  0.0837  0.0815
 8992W        W25839   1.415   9.732  14.229  0.1198  0.0602  0.1964
 8993W        W25840   0.934  10.186  15.053 -0.1024 -0.1719  0.1383
 8994W        W25841  12.343  16.546  12.788 -0.1018  0.0003 -0.1443
 8995W        W25842   3.256  16.843   2.978  0.2161  0.0497 -0.2559
 8996W        W25843  11.402  12.782   3.989 -0.1123  0.1471 -0.1082
 8997W        W25844  12.205   0.833  13.596 -0.4167 -0.2930 -0.0266
 8998W        W25845   2.092   0.490  15.042 -0.2166 -0.3020 -0.0362
 8999W        W25846   3.155   6.528  12.078  0.0165  0.0272 -0.0773
 9000W        W25847   3.094   1.711  13.840  0.0054  0.1729 -0.4856
 9001W        W25848   5.914  16.279  14.332 -0.1200 -0.3046  0.1289
 9002W        W25849  16.348   3.203  13.643  0.0630 -0.1449 -0.0824
 9003W        W25850  17.124  12.162   1.316  0.0463 -0.0027  0.2033
 9004W        W25851  13.622   9.120  11.174 -0.0668  0.0882 -0.0315
 9005W        W25852  13.328   2.310  11.779 -0.2750  0.0002 -0.0365
 9006W        W25853   0.059  12.058   4.064  0.2502 -0.1759  0.0612
 9007W        W25854   3.087  10.250  13.506 -0.1168 -0.0358 -0.0673
 9008W        W25855   1.665   3.064   2.875 -0.0032 -0.0146 -0.0324
 9009W        W25856   2.226  17.093  11.428 -0.1163  0.0482  0.1532
 9010W        W25857   3.940   2.134   4.806  0.0032 -0.1886 -0.0453
 9011W        W25858   1.815  17.969  11.133 -0.0545  0.1472  0.1049
 9012W        W25859  11.703  15.549   4.771  0.0395  0.0744 -0.0268
 9013W        W25860   8.754   2.383  13.898  0.2857  0.3055 -0.1528
 9014W        W25861  11.239  14.534  12.720  0.0558 -0.0417  0.0543
 9015W        W25862  16.602   9.645  12.932 -0.0595  0.0211  0.0622
 9016W        W25863   5.547  13.592  13.635 -0.2232 -0.0087 -0.0670
 9017W        W25864   5.481   0.786   0.745  0.3469  0.0912  0.0331
 9018W        W25865  12.243  14.662   0.812  0.2853 -0.0793  0.0612
 9019W        W25866   5.164   8.938  12.038 -0.1655 -0.0197  0.0490
 9020W        W25867   9.836   4.792   4.434 -0.0656 -0.0583  0.0832
 9021W        W25868   6.843   1.229   3.477  0.0155  0.0772  0.2132
 9022W        W25869  15.377   9.382  13.360 -0.0117  0.2100  0.0963
 9023W        W25870   7.306  16.561  11.115 -0.0347 -0.0679 -0.1056
 9024W        W25871   5.069  13.542  13.640 -0.1325  0.0281  0.0657
 9025W        W25872   3.081   7.390  12.793  0.0892  0.1897  0.0662
 9026W        W25873   2.204  17.299  10.527 -0.3026 -0.1016 -0.0525
 9027W        W25874  13.572   9.243   2.376 -0.2959 -0.2321  0.2638
 9028W        W25875  16.565  11.456  13.822 -0.1393 -0.0920 -0.0283
 9029W        W25876   3.256   5.591   2.735  0.0266 -0.0273 -0.3516
 9030W        W25877  14.255  18.297   3.790  0.0911 -0.0276 -0.0221
 9031W        W25878   1.185  18.312   1.426  0.0925 -0.2588 -0.0045
 9032W        W25879   8.071   0.982   0.632  0.0489 -0.0818 -0.0052
 9033W        W25880  14.507  13.304  11.643 -0.0925 -0.1298  0.0824
 9034W        W25881   2.477   0.256   3.139  0.0696 -0.2260 -0.3030
 9035W        W25882  12.661   6.123  14.838  0.2816  0.2037 -0.2639
 9036W        W25883   8.540  12.124   4.712  0.0050  0.1224 -0.1156
 9037W        W25884   9.668   2.454  13.424 -0.3432 -0.0499 -0.2434
 9038W        W25885   0.417  15.405  12.917 -0.0287 -0.0719  0.0937
 9039W        W25886  13.201   5.766  12.119  0.1788 -0.0494 -0.1364
 9040W        W25887  13.526  11.062  15.260  0.0516 -0.0874  0.4835
 9041W        W25888   3.689   4.725  14.061 -0.1260  0.0592  0.1570
 9042W        W25889  16.448  14.488  12.596  0.0926  0.3012 -0.0825
 9043W        W25890   2.088  16.184  10.844 -0.0157  0.0982 -0.1748
 9044W        W25891  14.788  13.743  11.495 -0.1948  0.1819 -0.0139
 9045W        W25892  17.765  13.524   1.527  0.1724 -0.1786  0.0910
 9046W        W25893  12.852   8.119   5.350 -0.0290  0.0119 -0.0305
 9047W        W25894   6.589  17.418  14.646 -0.2068 -0.0402 -0.1896
 9048W        W25895   9.047   3.391   4.439  0.1410  0.0271  0.1105
 9049W        W25896   3.604   6.539   0.003  0.2785  0.2927  0.1888
 9050W        W25897  15.254   7.999   1.642  0.3189 -0.2471  0.0891
 9051W        W25898  17.652  17.014  13.151  0.0545  0.1364 -0.1145
 9052W        W25899   4.422  18.049  14.910  0.3031 -0.0524 -0.0851
 9053W        W25900   9.279  12.983  15.032  0.0028  0.0572  0.1139
 9054W        W25901  15.719   4.757   4.703 -0.0222  0.1732  0.2172
 9055W        W25902  10.496  10.366   2.313 -0.0034  0.3776 -0.0744
 9056W        W25903   9.865  14.571   3.151  0.2406  0.2990 -0.0090
 9057W        W25904   8.592   0.271  11.199  0.0524  0.1896 -0.0775
 9058W        W25905   7.915  10.313   5.656 -0.1112 -0.0465  0.0732
 9059W        W25906   1.675  12.708   3.225 -0.1396  0.2887 -0.0373
 9060W        W25907  16.270   7.291   2.270 -0.1641 -0.3666  0.1078
 9061W        W25908  10.554   9.928  14.376  0.1970 -0.0041  0.3055
 9062W        W25909   0.194   0.213  14.377  0.0219 -0.0287  0.3292
 9063W        W25910   6.581  18.052   3.018 -0.1845 -0.0637  0.1418
 9064W        W25911  15.493   6.063   4.647  0.2410  0.1422  0.1394
 9065W        W25912   6.545   0.755   5.437  0.0683 -0.0587  0.1675
 9066W        W25913   9.161   9.789  12.628 -0.0191 -0.1850 -0.1327
 9067W        W25914   3.375  17.997  11.580  0.3167 -0.0308 -0.2786
 9068W        W25915  12.958   2.144  13.533  0.2141 -0.0617  0.3540
 9069W        W25916   7.721  14.597   3.723 -0.2818  0.0155 -0.0190
 9070W        W25917   5.013  11.300   2.132  0.0835  0.1842  0.2546
 9071W        W25918  13.142   9.411   2.940 -0.3259  0.4060 -0.0010
 9072W        W25919  14.544   0.296  12.534  0.0477  0.0584 -0.0347
 9073W        W25920  17.443  16.784  12.627 -0.0354 -0.1216 -0.0985
 9074W        W25921   2.252   4.193  10.518  0.2167 -0.0492 -0.0260
 9075W        W25922  17.902   1.723   1.740 -0.0844 -0.1165  0.0618
 9076W        W25923  13.683   8.069  11.825 -0.0700 -0.3800 -0.0654
 9077W        W25924   1.874   6.523   2.478  0.1906  0.0504 -0.0970
 9078W        W25925   4.519   1.641   1.641  0.1658 -0.2314  0.1942
 9079W        W25926   5.404  16.465  11.406 -0.2443  0.2705  0.0523
 9080W        W25927  15.819  14.298  13.004  0.5267 -0.2132  0.2053
 9081W        W25928  11.805   5.587   5.614  0.3758 -0.2308 -0.2135
 9082W        W25929   2.411   0.295  13.857  0.1865 -0.0808  0.0320
 9083W        W25930  13.146   2.685   1.427 -0.0971  0.0925 -0.0964
 9084W        W25931  16.217  13.754   4.555  0.0417 -0.0893 -0.0631
 9085W        W25932   0.105  17.230  13.546 -0.3083 -0.1557 -0.1224
 9086W        W25933   9.519  10.846  14.786  0.3581  0.0419  0.2865
 9087W        W25934   9.340   9.854   2.934 -0.2328 -0.3771 -0.2568
 9088W        W25935  15.948   2.587   4.495  0.1815  0.0443  0.3477
 9089W        W25936   8.022  17.260  14.438 -0.1839 -0.0037 -0.1208
 9090W        W25937   3.440   0.727   3.964 -0.0662 -0.0914  0.3200
 9091W        W25938   7.352   8.654  11.318  0.1910 -0.0758  0.2086
 9092W        W25939   5.384   5.916   3.067  0.1130  0.0382 -0.0148
 9093W        W25940  11.364  11.741  14.398  0.2416 -0.2141  0.0795
 9094W        W25941   8.072  13.928   1.394  0.2323 -0.0047  0.3638
 9095W        W25942   7.590   2.434   2.530 -0.2779 -0.0176  0.3718
 9096W        W25943  14.669   4.958  13.146  0.0687  0.2437 -0.1855
 9097W        W25944  10.097   7.973   4.592  0.1456 -0.0091  0.0215
 9098W        W25945   1.723  15.949   4.010  0.1893 -0.3938  0.0900
 9099W        W25946  15.418  14.682   2.426  0.0295 -0.5092  0.1230
 9100W        W25947   3.594  17.405   0.852 -0.1790  0.1887  0.1713
 9101W        W25948  10.641   9.010   4.286  0.3108 -0.0601  0.1232
 9102W        W25949   5.922  13.111  15.423 -0.0234 -0.1534  0.0142
 9103W        W25950  16.255  18.164  13.164  0.2765 -0.1524  0.2727
 9104W        W25951  14.708   4.163   2.926 -0.2370 -0.3156 -0.4578
 9105W        W25952   9.290   6.416   3.931 -0.0186  0.0466  0.2159
 9106W        W25953  18.774  16.374  15.096  0.1415 -0.3336  0.1308
 9107W        W25954   9.253  11.469   0.957  0.2803 -0.0971 -0.2352
 9108W        W25955   8.323   5.094   2.735  0.0748 -0.1186  0.4161
 9109W        W25956  14.963   1.723   2.572 -0.1150 -0.0835  0.1409
 9110W        W25957   5.241   7.703   0.958  0.2730  0.1489 -0.1127
 9111W        W25958   7.001   9.862   1.055  0.2890 -0.1289  0.4335
 9112W        W25959  11.829   6.713   0.186 -0.0450  0.1879  0.2025
 9113W        W25960  10.756   0.709   2.477 -0.1596  0.4240  0.2158
 9114W        W25961   4.214  14.614  13.897 -0.2137  0.3255 -0.0327
 9115W        W25962   2.219  10.616  13.899  0.1427 -0.0673  0.1139
 9116W        W25963  18.118   2.934   4.859 -0.0513 -0.2792 -0.1756
 9117W        W25964  14.878  13.120   2.950  0.2885  0.1106  0.3548
 9118W        W25965  16.911  13.027  11.286  0.3604 -0.0105  0.0925
 9119W        W25966   3.936   9.242   4.467  0.0587  0.1932  0.0635
 9120W        W25967   4.862  17.080   5.014 -0.0253 -0.0730 -0.0085
 9121W        W25968  17.196   2.553  11.649  0.0786 -0.1291 -0.0223
 9122W        W25969   5.683  10.870   0.683  0.2209  0.2224  0.0215
 9123W        W25970   6.972   1.998  14.965 -0.1864 -0.0238  0.0616
 9124W        W25971   9.054  10.900   4.864 -0.1589 -0.1046  0.0336
 9125W        W25972  15.997   4.256  12.573 -0.0484  0.0819 -0.0854
 9126W        W25973   2.813   4.925  14.004 -0.2367 -0.1308  0.3183
 9127W        W25974  14.239   2.252  12.725 -0.1026  0.1120 -0.0897
 9128W        W25975   5.009  10.913   0.245 -0.1199 -0.0153 -0.2804
 9129W        W25976   1.034   1.493   4.431 -0.2640 -0.1835 -0.1010
 9130W        W25977  16.895   2.490  13.652  0.0589 -0.0001  0.0006
 9131W        W25978  12.920  16.182  11.003 -0.0517  0.5314 -0.1957
 9132W        W25979   2.735  14.815   5.284  0.0270 -0.2499  0.0288
 9133W        W25980  16.470   6.615   2.157  0.2514  0.0429 -0.1254
 9134W        W25981   8.797   4.312  12.609 -0.2455 -0.3018 -0.0859
 9135W        W25982  16.933  18.690   1.358  0.1555 -0.0669 -0.1551
 9136W        W25983  10.799  11.223  13.561  0.1587 -0.0156 -0.4075
 9137W        W25984  12.561  13.571   3.753 -0.0225 -0.0629  0.2166
 9138W        W25985  14.765  10.677   4.417  0.0461 -0.1843 -0.0383
 9139W        W25986   5.947  15.752   2.255 -0.1094 -0.2671 -0.1189
 9140W        W25987  15.284  10.025   1.339 -0.0787  0.1645  0.1778
 9141W        W25988   1.425  11.906  13.592  0.0539 -0.0818 -0.1494
 9142W        W25989   2.615   9.762  11.937 -0.0114  0.2277  0.0845
 9143W        W25990  15.893  14.434  11.049  0.1200  0.0732 -0.0748
 9144W        W25991  18.505   9.452   0.192  0.3545 -0.0150  0.0091
 9145W        W25992  15.132   0.061   3.672 -0.2510  0.1393 -0.0642
 9146W        W25993   2.573   7.590  13.656 -0.0076  0.4540 -0.0364
 9147W        W25994  18.530   4.301   0.497  0.0970  0.0706  0.0494
 9148W        W25995   3.141  13.727   5.675  0.2448 -0.1079  0.0249
 9149W        W25996   0.675   2.563   1.752  0.0882  0.0256 -0.2297
 9150W        W25997  16.662   6.998  14.274  0.1068 -0.0355 -0.3255
 9151W        W25998  15.267  11.565   1.026  0.0528  0.0600  0.0843
 9152W        W25999   5.197   8.265   0.836 -0.1774 -0.0710 -0.0492
 9153W        W26000  11.977  11.383  15.401  0.2022 -0.1020  0.1680
 9154W        W26001  12.167   5.846   0.211  0.2365  0.2399  0.1391
 9155W        W26002  10.100  12.461   1.827  0.1165 -0.1629  0.2326
 9156W        W26003  17.776   6.010  11.974 -0.0279  0.0567  0.0449
 9157W        W26004   7.172   2.424  14.908 -0.2043 -0.1620  0.0016
 9158W        W26005  16.804  17.453   2.192 -0.0160  0.0668  0.1184
 9159W        W26006   2.093  15.922   0.764 -0.0341  0.3628 -0.2162
 9160W        W26007   3.841  17.898  11.782 -0.1214 -0.1473  0.1240
 9161W        W26008   2.482  11.101   0.136 -0.0416 -0.0352  0.1463
 9162W        W26009   4.823  12.275  13.480 -0.0930  0.0556  0.2323
 9163W        W26010   8.487   0.541   3.864 -0.1958  0.1838 -0.2188
 9164W        W26011   9.534   9.666   5.543  0.3063 -0.0852 -0.0390
 9165W        W26012   4.114   8.008  12.216  0.1385 -0.1434  0.1715
 9166W        W26013  12.352  17.568   4.894 -0.0551  0.0155 -0.2507
 9167W        W26014   2.991  17.385  13.844  0.1075  0.0744 -0.0767
 9168W        W26015  17.803   4.989   4.806  0.1782  0.0154  0.3947
 9169W        W26016   6.323   5.776  12.660  0.0452  0.3009 -0.1935
 9170W        W26017  15.736   1.113   2.448  0.3210  0.0933 -0.4988
 9171W        W26018   9.676   0.835   3.461 -0.0241 -0.1960  0.0211
 9172W        W26019  18.785   8.316  13.120  0.2387 -0.2184 -0.1212
 9173W        W26020   3.201  11.751   2.584  0.0063  0.0946  0.0272
 9174W        W26021   5.179   2.747  14.180 -0.1426 -0.0716  0.0253
 9175W        W26022  16.049   8.551   2.561 -0.0485  0.0783  0.1595
 9176W        W26023   3.687  16.459   1.521 -0.2923 -0.1259  0.3381
 9177W        W26024   6.304  16.725  15.502  0.0286 -0.1003  0.0966
 9178W        W26025   5.834  10.205  14.496  0.1391 -0.1348  0.3490
 9179W        W26026  15.279   8.630   3.093  0.0642 -0.0145  0.0177
 9180W        W26027  18.376   8.429  13.458  0.1880  0.0340 -0.0102
 9181W        W26028   4.467  13.469  12.501 -0.3807  0.4086 -0.1720
 9182W        W26029  12.179   1.633   0.212  0.0012 -0.1045  0.3891
 9183W        W26030   5.460   3.324   2.534 -0.0325  0.1367  0.0537
 9184W        W26031   1.972  11.768  11.438  0.1210 -0.0462  0.1128
 9185W        W26032   0.151  14.466  12.522 -0.1261  0.0961 -0.0842
 9186W        W26033  11.850  18.320   1.613 -0.1100  0.4295  0.1149
 9187W        W26034  18.056   4.277  14.864  0.0561  0.2213  0.1050
 9188W        W26035  15.288  14.434  15.164 -0.0671 -0.2285 -0.0600
 9189W        W26036  11.345   1.806   0.727  0.0274  0.0882  0.3149
 9190W        W26037  11.849   9.351   2.725 -0.1056 -0.0357 -0.4338
 9191W        W26038  16.960  13.614  13.694 -0.2237  0.2623 -0.1882
 9192W        W26039   5.804  14.988   0.426  0.2701  0.4444 -0.3654
 9193W        W26040  12.679  14.383  12.052 -0.2310 -0.2161  0.1804
 9194W        W26041   9.450   8.561   4.948 -0.1225  0.1323 -0.0992
 9195W        W26042  14.044   7.009  11.573  0.0809 -0.2476  0.1348
 9196W        W26043  10.910   5.216  13.115 -0.0022 -0.1307 -0.0018
 9197W        W26044  15.013   4.277  15.029 -0.3011 -0.0065 -0.1600
 9198W        W26045  14.245  12.669   4.819  0.1326  0.2190 -0.2508
 9199W        W26046   0.431  13.527   1.358  0.2587  0.0859 -0.0594
 9200W        W26047   4.399   4.016   0.447 -0.0397  0.0229 -0.2590
 9201W        W26048   6.338   0.135  13.443  0.0313  0.3441  0.0557
 9202W        W26049   2.885  15.384  11.629  0.1801  0.1175  0.1223
 9203W        W26050   1.001   8.330  10.212 -0.0292  0.3328 -0.0634
 9204W        W26051  11.517  11.751  10.505  0.2102  0.0141  0.0935
 9205W        W26052  17.878  13.233   4.746 -0.2283 -0.2397  0.2162
 9206W        W26053  12.497   2.752  13.084 -0.0491 -0.0079  0.0321
 9207W        W26054   8.751   5.169   2.327  0.2139 -0.3033  0.4748
 9208W        W26055  16.593   6.961   4.543  0.0822 -0.2477 -0.1940
 9209W        W26056  14.346  14.977   3.684 -0.0259 -0.1256  0.4844
 9210W        W26057   1.150   5.630  11.732  0.0096 -0.2446 -0.1391
 9211W        W26058  12.672  13.480  14.154 -0.0839  0.2775  0.4036
 9212W        W26059  16.975  16.614  11.352 -0.2546 -0.1846  0.1469
 9213W        W26060   7.628  11.481   1.334  0.0720  0.2046  0.1145
 9214W        W26061  12.906  17.849   0.667  0.1334 -0.0074 -0.0475
 9215W        W26062   8.259   3.340  11.261 -0.1488 -0.3879 -0.2609
 9216W        W26063  11.170   9.831   1.507 -0.2020 -0.3028 -0.0434
 9217W        W26064   8.321   2.377   1.886 -0.4474  0.2558  0.0780
 9218W        W26065  11.419  18.049   3.732 -0.1779  0.1102  0.0803
 9219W        W26066   9.990  12.209   4.024  0.3415 -0.0042 -0.0864
 9220W        W26067   5.604  17.289  15.071  0.0181  0.2049  0.1396
 9221W        W26068  11.824   7.356   3.486  0.1906 -0.0255  0.1063
 9222W        W26069   7.935   6.675   0.877 -0.2191 -0.2600 -0.0575
 9223W        W26070  10.840  10.417   2.924 -0.0063 -0.0869  0.1183
 9224W        W26071  13.325   3.474   3.556  0.1766  0.3891 -0.1760
 9225W        W26072  15.444  15.339  12.917  0.0140 -0.1107  0.2285
 9226W        W26073  10.195   9.164  12.984 -0.3002 -0.2164  0.0259
 9227W        W26074  17.206   9.028   9.974 -0.0298 -0.2014  0.0331
 9228W        W26075  12.051  10.465   2.725 -0.2667 -0.0979 -0.0141
 9229W        W26076  15.095  13.518   2.524  0.2642  0.2621  0.2456
 9230W        W26077   2.522   5.347   4.648 -0.0057  0.0381 -0.1139
 9231W        W26078   9.926   1.582   3.895  0.0021 -0.0765 -0.2358
 9232W        W26079  12.088  15.667  13.900  0.0572  0.0954  0.0747
 9233W        W26080  15.283  10.309   0.807  0.3553 -0.1991 -0.2534
 9234W        W26081   2.582   1.004  12.880 -0.2896  0.1675  0.0822
 9235W        W26082  13.922   5.495  10.905 -0.2390  0.1960  0.3109
 9236W        W26083   6.591  17.195   4.473 -0.0718 -0.2073  0.1317
 9237W        W26084   2.369   3.503  14.466  0.2117  0.1501 -0.0391
 9238W        W26085  12.560   1.992  13.745 -0.1108  0.2499 -0.1554
 9239W        W26086  13.813   3.328   5.078  0.0293  0.2675  0.1484
 9240W        W26087   0.664  11.607  10.901 -0.2964 -0.0614 -0.2370
 9241W        W26088  10.159   9.692   3.226 -0.3838 -0.2265  0.0514
 9242W        W26089   2.647   8.578  14.413  0.0995  0.2663  0.0571
 9243W        W26090  15.617   0.798   0.713 -0.1285  0.0024  0.0174
 9244W        W26091  13.638  18.817   0.916  0.3000 -0.2339 -0.1107
 9245W        W26092  11.632   6.937   5.480 -0.1540 -0.1806  0.0737
 9246W        W26093  10.801   1.510   3.712 -0.1745 -0.1264  0.2937
 9247W        W26094   2.927  18.016  13.610  0.3882  0.0492 -0.1502
 9248W        W26095  16.791  13.498   5.423  0.0617  0.0153 -0.2785
 9249W        W26096   2.734  10.569   1.905  0.4735 -0.0540  0.1713
 9250W        W26097   4.145  11.770   4.959  0.1308 -0.0844  0.0450
 9251W        W26098  18.751   2.723   0.607  0.0611 -0.0306  0.1002
 9252W        W26099   9.827   7.355  11.460  0.0593  0.2661 -0.0423
 9253W        W26100   4.572   2.209   1.752 -0.1183  0.0220 -0.0672
 9254W        W26101  10.117   9.193   3.001 -0.0107  0.2040 -0.0312
 9255W        W26102   7.610  15.949   3.120 -0.1273 -0.1616 -0.2289
 9256W        W26103   0.091  13.110  14.221 -0.1001  0.3627  0.1398
 9257W        W26104  10.553   9.851  11.777 -0.2648  0.4097  0.1253
 9258W        W26105  11.334  14.965  14.743 -0.1919  0.1865 -0.0422
 9259W        W26106  14.694  16.420  12.368 -0.1325 -0.2144 -0.0094
 9260W        W26107   1.756   1.381  11.904 -0.0649  0.1920  0.0252
 9261W        W26108  17.084   9.077   4.149  0.1042 -0.1182  0.3854
 9262W        W26109   6.745   0.849   2.093 -0.0483  0.0340  0.0573
 9263W        W26110  15.607   1.369  12.212  0.6379 -0.0335  0.0031
 9264W        W26111   2.755   0.353   1.023 -0.2419 -0.0672 -0.1115
 9265W        W26112  13.114   6.691  13.124 -0.3005  0.2206 -0.0318
 9266W        W26113  10.939  14.493   2.184  0.0210  0.0094  0.0750
 9267W        W26114  15.847  10.794  12.956 -0.3587  0.0564  0.3650
 9268W        W26115  12.112  13.830  11.667  0.2437  0.1453  0.3098
 9269W        W26116  12.686   9.755   1.827 -0.2924 -0.0218 -0.1878
 9270W        W26117   4.987  14.071  11.479  0.0705 -0.1713 -0.0114
 9271W        W26118  17.218   3.322   3.660  0.1881  0.3975  0.0842
 9272W        W26119  10.978  14.600  14.949 -0.1533 -0.0617 -0.0940
 9273W        W26120   6.725  12.218   0.890  0.2405  0.0421  0.0126
 9274W        W26121   0.280   9.435  11.626 -0.1323  0.1401 -0.0870
 9275W        W26122   1.537  12.751   0.266 -0.0837 -0.0394  0.0314
 9276W        W26123   0.833  16.988  12.993 -0.0636  0.0681 -0.1042
 9277W        W26124   2.069  13.844  11.504 -0.0280 -0.0567  0.0215
 9278W        W26125  12.600   9.116   1.920 -0.1130  0.1270  0.0100
 9279W        W26126   9.274   0.017  10.735  0.1514  0.0051  0.0766
 9280W        W26127  14.082   6.571   1.929 -0.1616 -0.2225  0.2465
 9281W        W26128  14.070   9.265   2.273 -0.1568  0.1215 -0.3976
 9282W        W26129   9.762  10.161  12.101  0.1217 -0.1773  0.2105
 9283W        W26130  14.519   1.148  14.363 -0.0010 -0.2492  0.1017
 9284W        W26131  12.997   2.613   0.867 -0.0181 -0.0124  0.0989
 9285W        W26132   0.169   0.438  13.919  0.1277  0.0399 -0.3167
 9286W        W26133  17.079   7.216   3.460 -0.2877  0.2033  0.4149
 9287W        W26134   8.544  13.249   2.807 -0.1008 -0.1590  0.0094
 9288W        W26135  18.802  12.084  12.592 -0.1839  0.1559  0.0979
 9289W        W26136  14.679   8.164   4.375  0.1324  0.2908 -0.0259
 9290W        W26137   5.181   3.396  15.085 -0.0585  0.1105 -0.0094
 9291W        W26138   1.305   6.689   2.462 -0.1788 -0.0161 -0.1030
 9292W        W26139   9.183  17.788  11.973 -0.1828 -0.4004 -0.1854
 9293W        W26140   0.398   0.878  13.812  0.0387  0.0621  0.2331
 9294W        W26141   9.572   1.737  11.311 -0.1230  0.0295 -0.0350
 9295W        W26142   6.998  14.285  12.288 -0.0599  0.2642 -0.1365
 9296W        W26143  11.894   6.498   5.189 -0.1078 -0.0247 -0.1004
 9297W        W26144   9.176   4.976  14.047 -0.2645 -0.2877 -0.3151
 9298W        W26145  11.655   8.047  14.962 -0.1078  0.0232  0.3010
 9299W        W26146   4.542   0.718   1.940  0.2668 -0.1604 -0.0414
 9300W        W26147   6.276  11.994  12.803 -0.1649  0.0829 -0.1259
 9301W        W26148  12.229  10.851  13.950  0.1352 -0.0177 -0.2349
 9302W        W26149   1.547  12.136   1.569  0.1306  0.0747  0.1201
 9303W        W26150  17.048  10.438   3.070  0.0372 -0.1811 -0.1211
 9304W        W26151   7.472  12.188  14.554 -0.0377  0.0829  0.0546
 9305W        W26152   2.674  13.389   9.921 -0.0641 -0.0809  0.2023
 9306W        W26153   6.496  15.131   2.472  0.0386  0.1611  0.1968
 9307W        W26154   5.815  11.958  12.621  0.1369  0.0580 -0.2521
 9308W        W26155  13.377   8.899   4.966 -0.4585 -0.1674  0.2292
 9309W        W26156  18.412  13.829  14.569  0.0180 -0.1844  0.0548
 9310W        W26157  13.631  10.204   4.559 -0.1912 -0.0692  0.0117
 9311W        W26158  18.110  12.837   4.531  0.2855 -0.0362 -0.1262
 9312W        W26159   8.921  13.790   5.383 -0.0594  0.0008 -0.1869
 9313W        W26160   3.047  14.670   4.759  0.2223  0.0923 -0.1839
 9314W        W26161   5.544  13.232  11.589  0.0445 -0.0583 -0.0754
 9315W        W26162   7.589   4.482   1.868  0.0063  0.0656 -0.0883
 9316W        W26163   5.821   4.272   0.240  0.0681  0.1208  0.0847
 9317W        W26164   9.005  12.014   3.075 -0.1566  0.2020 -0.1882
 9318W        W26165  17.475  11.301   4.860  0.0592 -0.0130  0.3295
 9319W        W26166   2.295   1.378   4.671  0.3362  0.1892  0.1326
 9320W        W26167  11.258   2.627  11.998  0.0344  0.3354 -0.0971
 9321W        W26168   1.324   8.954  13.050 -0.3448 -0.1151 -0.0437
 9322W        W26169  17.061   4.441  12.465 -0.0940  0.1659  0.2508
 9323W        W26170  15.639  17.549   3.321 -0.0098 -0.1825 -0.0912
 9324W        W26171   3.268  15.880  13.005 -0.0291 -0.0480  0.0215
 9325W        W26172   2.948   1.843   5.887  0.3569 -0.1447 -0.2164
 9326W        W26173   9.411  14.222   4.014  0.0257  0.0610  0.0437
 9327W        W26174  14.797   6.792   3.226 -0.0007 -0.2132  0.1218
 9328W        W26175   8.426   2.852  11.403  0.2382 -0.4025  0.1092
 9329W        W26176  16.946   2.324   4.477  0.1209  0.2616 -0.1008
 9330W        W26177  16.657  11.379   0.955  0.1658  0.1618 -0.0594
 9331W        W26178  12.789  18.121  12.709  0.0841 -0.1488  0.2844
 9332W        W26179   0.460   3.590   1.019  0.5019 -0.0391 -0.1702
 9333W        W26180   8.467  13.478  13.819  0.0798 -0.4510  0.0536
 9334W        W26181   2.197   7.560   1.741  0.0059  0.0744 -0.0660
 9335W        W26182  10.116  13.152  10.991  0.0971  0.0777 -0.1444
 9336W        W26183  13.063   1.260   0.548  0.2090  0.0548  0.1889
 9337W        W26184   2.517   4.643   1.579 -0.0930 -0.1944  0.0267
 9338W        W26185  16.107  10.312   1.780 -0.1230  0.0903 -0.1106
 9339W        W26186  17.118   9.462  12.751 -0.1632  0.1586 -0.1505
 9340W        W26187   0.554  18.633  12.126 -0.0050 -0.1846 -0.1449
 9341W        W26188   5.596  16.350   0.554  0.1650  0.4948 -0.0124
 9342W        W26189  15.919   8.058   3.941  0.0952  0.0851 -0.3184
 9343W        W26190   9.402   2.489   4.631  0.1336  0.2989  0.1696
 9344W        W26191  16.403   8.206   3.801  0.0328  0.1394  0.1173
 9345W        W26192  16.478  16.015   9.392 -0.0908 -0.2525  0.2419
 9346W        W26193  11.883  15.774  13.343 -0.3118 -0.0837 -0.1180
 9347W        W26194  17.292   2.139  11.859  0.2728  0.0429 -0.0532
 9348W        W26195   7.709   0.794   4.824 -0.0642  0.3319  0.0813
 9349W        W26196  11.570   6.092   0.180 -0.2844 -0.2315 -0.0187
 9350W        W26197  18.502  13.115   1.393 -0.1343 -0.1383  0.2362
 9351W        W26198  15.860  18.792   0.350  0.3033 -0.0003  0.4507
 9352W        W26199  16.769  18.506   2.924  0.0089 -0.0326  0.2014
 9353W        W26200  16.177  10.972   2.182  0.0572  0.0264  0.0205
 9354W        W26201  16.679  18.198  12.461 -0.0590  0.1551  0.2942
 9355W        W26202   8.004  11.874  15.110 -0.1143  0.3321 -0.0525
 9356W        W26203  16.024   8.439   0.070  0.4053 -0.2169  0.1565
 9357W        W26204  16.425   9.177  14.624  0.3863 -0.0666 -0.0922
 9358W        W26205  15.053   8.776   1.821 -0.1676 -0.3996 -0.1898
 9359W        W26206   6.623   4.168  12.596 -0.2429 -0.2934 -0.1548
 9360W        W26207  11.121  17.149  15.544 -0.2687  0.0514  0.1258
 9361W        W26208   6.451  16.471   1.258  0.0670 -0.2977  0.1085
 9362W        W26209  16.275  11.188  14.196 -0.1678 -0.1562 -0.0908
 9363W        W26210   4.806  17.441  10.939 -0.1113  0.1912 -0.1135
 9364W        W26211  15.063   6.629  14.065 -0.0442  0.1551  0.1520
 9365W        W26212  11.809  14.431  12.803 -0.1243 -0.0324  0.1461
 9366W        W26213   7.690   6.259  12.870  0.0531  0.1001  0.1520
 9367W        W26214  10.119  11.508   3.419  0.1026  0.1764 -0.1707
 9368W        W26215   1.954  16.542  14.501 -0.1254 -0.1163 -0.3107
 9369W        W26216   9.660  11.804   2.589 -0.3012 -0.0070 -0.1163
 9370W        W26217   8.644   9.239   5.098 -0.2473 -0.2992 -0.1272
 9371W        W26218  11.740  17.025  12.455 -0.0443 -0.2347 -0.2117
 9372W        W26219   2.165   0.229  14.628  0.1250 -0.0690  0.2755
 9373W        W26220   1.734   7.117  11.497  0.1447 -0.0440 -0.1627
 9374W        W26221  13.171  17.567  15.247 -0.0940 -0.2399  0.2434
 9375W        W26222   9.345   9.331   0.760  0.0546 -0.0845 -0.0029
 9376W        W26223   2.401   9.595  12.466 -0.0533 -0.2942  0.1976
 9377W        W26224   4.921  15.079  12.199  0.2525  0.1845 -0.0028
 9378W        W26225   6.478   2.254  13.090  0.1469 -0.1787 -0.0157
 9379W        W26226   0.744   3.651   1.420  0.1864 -0.1090 -0.0383
 9380W        W26227   8.947   5.064   0.656 -0.2635 -0.2711  0.0945
 9381W        W26228   7.359   7.216  12.397 -0.0650 -0.1706 -0.1399
 9382W        W26229   8.299  13.533   4.078  0.2018  0.1422 -0.0118
 9383W        W26230   7.445   0.553  13.051  0.1849  0.0302  0.0954
 9384W        W26231   4.750   0.250  15.517  0.0207 -0.0145 -0.0811
 9385W        W26232   8.964  11.776   0.523  0.3362  0.0850 -0.2417
 9386W        W26233  10.120   3.136   5.019 -0.1688  0.0602 -0.0580
 9387W        W26234  10.208  18.426   4.453  0.0396 -0.2096  0.2437
 9388W        W26235  11.993   6.223   1.874 -0.0832 -0.2588 -0.1883
 9389W        W26236   5.663   5.839  12.498 -0.1386  0.2048 -0.0855
 9390W        W26237  18.409  13.324   3.728  0.4708 -0.0476  0.4884
 9391W        W26238   1.299  16.006  13.844 -0.1684 -0.0876 -0.3191
 9392W        W26239  14.964   7.374  14.902 -0.2335  0.1199  0.0016
 9393W        W26240  12.540   8.807   5.155  0.0937 -0.1032  0.0124
 9394W        W26241  15.471   7.191  15.400 -0.1980 -0.1092  0.4415
 9395W        W26242  14.880   2.951   0.319  0.2041  0.0895  0.2660
 9396W        W26243  10.198   6.683  15.407  0.1478  0.1175  0.3579
 9397W        W26244  16.114   3.861  14.399  0.1752  0.0450  0.3638
 9398W        W26245  11.325   6.443  13.955 -0.4166 -0.1171  0.1789
 9399W        W26246  11.421  17.735  11.797 -0.0660 -0.2703 -0.0530
 9400W        W26247  11.667   7.450  13.243  0.0101  0.0250 -0.2915
 9401W        W26248   4.850  17.697   0.198 -0.2094  0.3933  0.1885
 9402W        W26249  16.471   3.464   1.289  0.2606 -0.3037  0.2088
 9403W        W26250   5.633  17.265   0.601 -0.1403 -0.1057 -0.1397
 9404W        W26251  15.564   6.809   3.960 -0.3027  0.1365 -0.1530
 9405W        W26252   7.871   9.556   0.436 -0.0505  0.1888  0.0033
 9406W        W26253   6.732   3.256   3.564 -0.4030  0.2877  0.0529
 9407W        W26254   8.829  10.724   1.214 -0.0343  0.1400  0.0402
 9408W        W26255  14.068   3.103   3.410 -0.1597 -0.1845 -0.0045
 9409W        W26256  17.457   0.097  13.477 -0.2554 -0.5694 -0.0127
 9410W        W26257  13.312   7.089  10.396  0.2332 -0.3926  0.2629
 9411W        W26258   2.786  15.276   4.079 -0.0083  0.0850  0.3529
 9412W        W26259  13.469   1.743   1.089 -0.0018 -0.3153  0.3114
 9413W        W26260   0.106   0.445   5.649 -0.0282 -0.1184  0.0896
 9414W        W26261  12.885   4.118  11.726 -0.0980 -0.2235 -0.1311
 9415W        W26262   7.141  17.981  14.859 -0.1755 -0.0594 -0.0321
 9416W        W26263   5.834   7.311   3.199 -0.1392 -0.0963 -0.2988
 9417W        W26264   2.912   6.300  14.482  0.3882  0.2556 -0.0912
 9418W        W26265  13.656   3.665   5.757 -0.1456  0.0460 -0.0137
 9419W        W26266  14.419   1.078  15.209 -0.2722  0.0546  0.2374
 9420W        W26267  13.109   9.763   1.316 -0.0935  0.4823  0.2322
 9421W        W26268   7.326  11.490  11.585 -0.0058 -0.3024 -0.0397
 9422W        W26269  17.245  16.225  11.757  0.1808  0.2545  0.1252
 9423W        W26270   9.399  11.238  10.925 -0.2199  0.0509  0.0664
 9424W        W26271   3.650  14.257   1.341 -0.1796  0.1024 -0.2695
 9425W        W26272   8.546   1.296  13.561  0.1113 -0.0713  0.0524
 9426W        W26273   0.318   7.191  15.186  0.2495 -0.1228  0.2116
 9427W        W26274   9.713   5.647  10.658 -0.1872 -0.4540 -0.0004
 9428W        W26275  14.776   3.866   2.125  0.0924 -0.1527 -0.2557
 9429W        W26276  13.867   4.174   2.562 -0.1673  0.0780  0.0596
 9430W        W26277   1.708  10.054  15.026  0.0010 -0.1096 -0.2337
 9431W        W26278  13.995  17.136   5.101 -0.0765  0.1813 -0.2719
 9432W        W26279   4.936   8.707   3.083 -0.0627  0.1104  0.0223
 9433W        W26280  15.020  18.006  14.049 -0.1407  0.1783 -0.3937
 9434W        W26281  17.812   2.872   2.579 -0.1370 -0.2635  0.0515
 9435W        W26282   0.731   7.946   3.687  0.0932  0.0100  0.2958
 9436W        W26283  17.593  13.906   3.434  0.0908 -0.0597 -0.0760
 9437W        W26284   4.953  13.546  12.634 -0.1198  0.1149 -0.0815
 9438W        W26285   2.287   7.186   1.456 -0.2555 -0.1347 -0.2475
 9439W        W26286  14.642   8.772   3.366 -0.0873  0.0409 -0.2061
 9440W        W26287   9.977   0.708  15.333  0.0829  0.1654  0.0219
 9441W        W26288  17.587   0.857  15.280 -0.0477  0.0729  0.1140
 9442W        W26289   3.929   9.797  14.823 -0.0280 -0.1858 -0.2539
 9443W        W26290  12.811  14.340   2.318  0.0057 -0.2801 -0.0277
 9444W        W26291   2.759   5.373   4.204  0.0714 -0.1438 -0.0232
 9445W        W26292   7.442  12.758   4.167  0.2081 -0.0867 -0.0700
 9446W        W26293  16.877  11.054   0.328  0.1417  0.1808  0.0296
 9447W        W26294   4.701   9.782   1.817  0.0729 -0.0843  0.3395
 9448W        W26295   3.778  11.555   2.124 -0.1543 -0.0068  0.0923
 9449W        W26296  14.715  12.623   5.333 -0.1365 -0.1869  0.1637
 9450W        W26297  12.389  11.535   1.086  0.2099  0.5098 -0.1859
 9451W        W26298   7.782  13.918  14.138 -0.0502  0.1515 -0.0711
 9452W        W26299  15.502  11.002   0.346  0.0384 -0.1322 -0.0406
 9453W        W26300   6.663  10.356  12.666  0.1484 -0.1934  0.0225
 9454W        W26301   7.446   2.559   0.309 -0.0611 -0.1951  0.1255
 9455W        W26302   0.211   3.498   0.177  0.3194 -0.0392 -0.0518
 9456W        W26303  14.611  17.484  14.514 -0.2229  0.2450 -0.2188
 9457W        W26304  17.957  16.940  12.391 -0.0157  0.1192 -0.2666
 9458W        W26305   6.393  15.454   4.106 -0.1269  0.1722  0.2557
 9459W        W26306  14.869   3.770  13.431 -0.1391 -0.1374  0.1513
 9460W        W26307   5.738  18.137  12.469 -0.2256 -0.1820 -0.4108
 9461W        W26308  18.237  15.266  13.799 -0.0842  0.1130 -0.0932
 9462W        W26309   5.519  18.221   2.981 -0.2057 -0.1847 -0.2356
 9463W        W26310   4.000   0.479  14.585 -0.2655  0.0555 -0.0741
 9464W        W26311   7.132  17.298   2.555 -0.1467  0.3194  0.0922
 9465W        W26312  12.279   5.590   4.760 -0.0900 -0.4378 -0.0281
 9466W        W26313  15.620   7.019  12.810  0.2398 -0.1720 -0.0960
 9467W        W26314   2.083   8.856   0.474 -0.0340 -0.3312  0.2184
 9468W        W26315   4.008  10.877   5.780 -0.0940 -0.2488  0.1866
 9469W        W26316   4.842  15.879   4.910 -0.0006 -0.3775  0.1080
 9470W        W26317   5.485  14.722   3.058 -0.1468 -0.2769 -0.0010
 9471W        W26318   1.985   5.356  14.371 -0.0579 -0.0901 -0.0449
 9472W        W26319  12.568  16.150   3.116  0.2431  0.2502  0.0834
 9473W        W26320  14.277  17.394  13.530 -0.2673  0.1544  0.2978
 9474W        W26321  11.831   7.955   5.300 -0.0625 -0.1677  0.1997
 9475W        W26322   3.423  17.738  13.582  0.0697 -0.0673  0.0201
 9476W        W26323   9.387   5.646   0.726 -0.5368 -0.1420  0.0170
 9477W        W26324   2.812   5.329   2.847 -0.2470  0.1181 -0.1772
 9478W        W26325   3.038   9.312   1.110 -0.1385  0.0714 -0.2304
 9479W        W26326  17.672   5.682   2.653  0.0930 -0.1941  0.0218
 9480W        W26327  17.151  12.192   0.821 -0.3136 -0.2880 -0.3521
 9481W        W26328   3.505   2.018   4.005  0.0979 -0.4611 -0.1753
 9482W        W26329   1.198   1.692  13.718 -0.1479 -0.2123  0.1419
 9483W        W26330  11.357   8.620   3.702 -0.1609 -0.0852  0.0684
 9484W        W26331   4.986  17.324   1.299 -0.2873 -0.2978  0.1410
 9485W        W26332   9.979   2.362   1.522  0.0343  0.4036 -0.0339
 9486W        W26333  15.435  17.332   4.136  0.0507 -0.0210 -0.1248
 9487W        W26334  14.939  17.666  11.978 -0.0312  0.4237 -0.2695
 9488W        W26335   5.779  13.503  14.947 -0.0793  0.1769  0.0060
 9489W        W26336  16.912   2.738  12.023 -0.1099  0.0213 -0.1523
 9490W        W26337   8.464   9.595  12.830 -0.2088  0.0822  0.0988
 9491W        W26338   5.241   6.644  13.495 -0.0709 -0.1268  0.1952
 9492W        W26339  16.163  17.154   1.158  0.0426 -0.1445  0.0159
 9493W        W26340   0.617  16.933   2.316  0.1667 -0.0319 -0.3758
 9494W        W26341  15.753  11.237  11.900  0.1025  0.0696  0.2785
 9495W        W26342  12.440   0.217  11.453 -0.1169  0.1862 -0.3587
 9496W        W26343  17.136  16.368  15.528 -0.1556  0.3744 -0.3848
 9497W        W26344  10.976  16.293   3.759  0.2389 -0.2316 -0.0870
 9498W        W26345   1.709   4.782   3.861  0.3308 -0.2907  0.2591
 9499W        W26346   9.232   4.062  12.360 -0.4576  0.2100 -0.2533
 9500W        W26347   7.983  14.768  13.540  0.3367 -0.2489  0.2161
 9501W        W26348  17.914   6.070   3.803 -0.0432 -0.0822  0.1861
 9502W        W26349   5.780  16.432  14.881  0.2843  0.2145  0.0098
 9503W        W26350   5.445   6.785   1.065 -0.0257  0.3381  0.3339
 9504W        W26351  18.757  12.372  15.171 -0.0565  0.1294  0.2153
 9505W        W26352   7.026   6.508   2.526 -0.0471 -0.1178  0.1610
 9506W        W26353   5.592  10.008   1.692  0.0916  0.0595  0.5066
 9507W        W26354  15.074   5.677   5.054  0.1154  0.2909  0.0201
 9508W        W26355   1.477  18.545   2.497  0.0690 -0.1355  0.3129
 9509W        W26356  12.372   5.542  14.869 -0.0624 -0.2303 -0.0568
 9510W        W26357   9.542  12.824   1.258  0.0319 -0.0554 -0.1838
 9511W        W26358   4.405  18.256   3.905  0.1993  0.0609  0.1550
 9512W        W26359  13.525   1.486  14.186 -0.0859 -0.0652 -0.0127
 9513W        W26360   9.944  15.380   3.320  0.0814  0.1672 -0.0546
 9514W        W26361   3.740  16.011   5.667  0.2554  0.0032 -0.2424
 9515W        W26362  15.230   2.816   0.661  0.1060 -0.0097 -0.0126
 9516W        W26363   4.727  17.091   0.418 -0.0803 -0.3423  0.0696
 9517W        W26364  13.821   5.959  15.508  0.0351  0.3011 -0.1310
 9518W        W26365   1.133  14.921  13.525  0.1178 -0.0473  0.0413
 9519W        W26366  14.577   1.647   5.999  0.2289  0.2222 -0.1717
 9520W        W26367  10.169  18.681   4.924  0.0612  0.2712 -0.1064
 9521W        W26368  10.857  18.524   4.368  0.1927  0.1383 -0.1108
 9522W        W26369  16.538   4.203  13.734 -0.3343  0.1084  0.1971
 9523W        W26370  14.774  13.616   4.698  0.0982  0.0470  0.0986
 9524W        W26371   1.759  11.374  13.428  0.2470  0.4016 -0.1620
 9525W        W26372  18.374   9.621   4.299 -0.1510  0.2634  0.1678
 9526W        W26373   4.819  17.704   4.267 -0.0759 -0.0731  0.1776
 9527W        W26374   6.436  10.147  14.265  0.0514  0.0811 -0.1720
 9528W        W26375  14.730  17.396  11.538 -0.0392  0.0281 -0.3960
 9529W        W26376  18.156  11.275  11.638  0.3521 -0.0130 -0.2660
 9530W        W26377  18.701  14.500   2.669 -0.1169 -0.3000  0.2337
 9531W        W26378   9.991  14.366   0.377 -0.0571  0.1071  0.2317
 9532W        W26379  16.737   2.168   3.594 -0.1845 -0.0852  0.3246
 9533W        W26380   2.235  12.135  13.902  0.0687 -0.0421 -0.2795
 9534W        W26381   9.942   9.749   5.140 -0.0791  0.0293 -0.0215
 9535W        W26382  14.501   9.068   2.033  0.0528  0.2689 -0.1149
 9536W        W26383  14.670  15.548  14.490  0.3131 -0.2083 -0.0357
 9537W        W26384   5.038   8.211  12.637 -0.1202 -0.0915  0.1201
 9538W        W26385   3.419   4.299   2.019 -0.3775 -0.0726 -0.2056
 9539W        W26386   2.516   4.002  12.478  0.2293 -0.1075  0.0379
 9540W        W26387   6.101  12.135   1.417  0.0195 -0.0470  0.0047
 9541W        W26388   8.493   8.749   5.910 -0.0450 -0.0151  0.0211
 9542W        W26389   7.205  10.483  15.374  0.2723  0.0412  0.2333
 9543W        W26390  14.186  12.473   5.291  0.1186  0.0527 -0.3121
 9544W        W26391  11.965  11.230  13.471 -0.0921  0.1076 -0.0233
 9545W        W26392   6.648   9.128   4.499 -0.1517 -0.1260  0.1002
 9546W        W26393  14.779  10.645   1.824 -0.0861  0.1767 -0.0943
 9547W        W26394  11.555  13.519  14.088 -0.0481 -0.3519  0.3664
 9548W        W26395   3.788  15.434  14.537  0.0432  0.3114 -0.0920
 9549W        W26396   4.000   2.641  15.072 -0.2135  0.1990 -0.1874
 9550W        W26397  18.838   1.898   1.232  0.2175 -0.0384  0.0029
 9551W        W26398   1.320   4.003   0.656 -0.0628  0.0242 -0.0669
 9552W        W26399   3.200  11.421   1.386  0.1780  0.1302  0.0414
 9553W        W26400   3.252   9.238  15.327 -0.2382 -0.2104 -0.0325
 9554W        W26401   0.689   5.045  12.870 -0.0462  0.2062  0.2029
 9555W        W26402   9.021  13.812   2.363  0.0599 -0.0170  0.0406
 9556W        W26403   5.611  10.839  14.591 -0.0419  0.0879 -0.0970
 9557W        W26404  17.611   1.005   1.328 -0.0296  0.0005  0.1696
 9558W        W26405   0.681   8.565   2.642 -0.3844  0.2250 -0.1365
 9559W        W26406  13.765  17.308  12.367 -0.0161 -0.2331  0.0705
 9560W        W26407   9.051  14.994   3.452  0.0231  0.1759  0.3160
 9561W        W26408   1.776  17.423  14.908  0.1325 -0.1178 -0.0063
 9562W        W26409  18.747  11.031   3.012 -0.2052  0.4457 -0.1914
 9563W        W26410   1.642  13.458  15.081 -0.0037 -0.0543  0.2347
 9564W        W26411   6.206   9.125  13.324  0.1140  0.4914 -0.0733
 9565W        W26412  12.795   0.840   0.444  0.2926  0.0646  0.0609
 9566W        W26413   5.823  13.333   2.183 -0.0587 -0.0893 -0.0546
 9567W        W26414  18.191  13.592   4.482 -0.1051  0.2606  0.3570
 9568W        W26415   7.010  14.058  10.039  0.2891 -0.1604 -0.0582
 9569W        W26416  18.198   6.359  11.783 -0.2889  0.0561 -0.2697
 9570W        W26417   0.470   1.379  13.785 -0.2309  0.0821  0.1158
 9571W        W26418  12.828   0.747  13.652  0.3458 -0.0303  0.0533
 9572W        W26419  15.240   7.687  15.390 -0.2665 -0.1848 -0.3287
 9573W        W26420   1.796   0.820  11.648  0.4603  0.0811 -0.3702
 9574W        W26421   1.761  10.048   0.961 -0.1003  0.0380 -0.0489
 9575W        W26422  16.182  14.245  14.609 -0.1222  0.2938 -0.2654
 9576W        W26423  12.539   2.833  13.694 -0.0895  0.0289 -0.0314
 9577W        W26424  11.577   5.125   1.073 -0.1210 -0.1432 -0.0335
 9578W        W26425   4.445  13.636   5.452 -0.0777  0.1196  0.0839
 9579W        W26426   9.313   9.473   3.840 -0.2864  0.3942 -0.0403
 9580W        W26427  16.477   9.087  14.104  0.1757 -0.0358  0.1714
 9581W        W26428   1.636   0.365  14.906  0.0748 -0.2501  0.0808
 9582W        W26429  14.633  11.311  15.356 -0.4065 -0.1681  0.1624
 9583W        W26430   7.900  15.457   5.680  0.3856  0.2813 -0.0560
 9584W        W26431   0.467  13.842  14.855 -0.4336 -0.0081 -0.1456
 9585W        W26432   8.391   8.350  10.546  0.2052 -0.2070  0.1440
 9586W        W26433   9.966   2.654   3.786 -0.1763 -0.2509 -0.2913
 9587W        W26434  11.268   6.536  12.100  0.1672 -0.4095 -0.1682
 9588W        W26435   0.972  16.586   1.574 -0.1267  0.0227  0.0754
 9589W        W26436   5.193   1.063  14.524  0.3347  0.0697 -0.2885
 9590W        W26437   5.265   1.384   0.279  0.3339 -0.1504  0.2500
 9591W        W26438  18.443   9.427   3.654  0.1129 -0.0709  0.3633
 9592W        W26439  14.724   4.644   4.694  0.2837  0.2021  0.1133
 9593W        W26440   8.264  17.831   3.168  0.0196 -0.2072  0.1178
 9594W        W26441  11.719   1.541  14.612 -0.0573 -0.2622 -0.1635
 9595W        W26442   0.482   0.143  12.507  0.1895  0.0807 -0.0364
 9596W        W26443  11.869  17.432  14.411  0.0678 -0.1403  0.0385
 9597W        W26444  15.662   9.336   3.712 -0.0265 -0.2119 -0.1645
 9598W        W26445   2.242  10.780   3.674 -0.0980  0.2163 -0.1528
 9599W        W26446  16.912  12.015   0.238 -0.3282  0.3418 -0.1643
 9600W        W26447   4.241  13.882  14.578 -0.0994  0.0719  0.1320
 9601W        W26448  17.043   6.770  14.536 -0.0494  0.2271 -0.2634
 9602W        W26449   2.320  14.861   1.644  0.0504 -0.1329  0.0167
 9603W        W26450  17.562  12.224   4.965  0.0962  0.0028 -0.1960
 9604W        W26451  14.620  17.506   2.935 -0.3148  0.2351  0.1174
 9605W        W26452  16.398  10.238   2.371 -0.0119 -0.2276  0.1266
 9606W        W26453   2.281   7.753   0.150  0.1487 -0.1329 -0.2288
 9607W        W26454  13.398  14.075  13.353 -0.1788 -0.0234  0.1343
 9608W        W26455  17.664   2.193  12.290 -0.0351 -0.1986  0.0003
 9609W        W26456   9.811  13.385   3.210  0.1804 -0.0678 -0.2181
 9610W        W26457   1.849  12.931  11.636  0.0027 -0.0508 -0.0060
 9611W        W26458   4.757   0.504   4.663  0.0087 -0.0182  0.0346
 9612W        W26459   5.950  10.669  13.247 -0.0875 -0.3560 -0.3169
 9613W        W26460  10.018  18.812   3.307  0.0610 -0.2469  0.1243
 9614W        W26461   7.881  12.810  11.690  0.0839 -0.0566 -0.2322
 9615W        W26462  12.730   8.319   3.676  0.0951  0.1380 -0.2110
 9616W        W26463  13.799  13.144   5.736 -0.1195 -0.4764  0.0356
 9617W        W26464   2.863  13.883   0.997  0.2137  0.0959 -0.1014
 9618W        W26465  10.190  13.557  12.096 -0.1082  0.3528  0.0778
 9619W        W26466  13.510  15.213   3.178 -0.2738 -0.0384 -0.0448
 9620W        W26467  10.544  18.197   1.370 -0.0887 -0.2346  0.0454
 9621W        W26468   4.902   8.336   0.026 -0.0911 -0.3084  0.0156
 9622W        W26469  10.216  14.093  14.336 -0.2964 -0.4399 -0.3041
 9623W        W26470   3.139   7.311  13.732  0.2948 -0.2180 -0.1353
 9624W        W26471   9.655   1.958  14.209  0.2894  0.1238 -0.0265
 9625W        W26472  15.709  12.672  15.302  0.0833  0.2756  0.0255
 9626W        W26473   4.882   3.386  12.132  0.0412  0.3261 -0.0087
 9627W        W26474   9.114  18.536   1.294 -0.0889  0.0584 -0.2228
 9628W        W26475   2.267   1.831   3.891 -0.0843 -0.2240  0.0704
 9629W        W26476   2.242   9.391   3.381 -0.0016 -0.1454 -0.0099
 9630W        W26477  12.732   5.179   3.286  0.0254  0.4394 -0.2118
 9631W        W26478  14.942   3.562  10.591 -0.2946  0.0007  0.0448
 9632W        W26479   1.403   1.334  10.438 -0.3420  0.0068 -0.2378
 9633W        W26480   8.921   9.111   3.622  0.1507 -0.3591 -0.2416
 9634W        W26481  13.072  12.350  14.771 -0.2481 -0.1937 -0.0921
 9635W        W26482   1.202  18.759   4.690 -0.2195 -0.1140  0.0575
 9636W        W26483   4.593   0.923  11.131  0.0532 -0.3019 -0.1084
 9637W        W26484   9.336   3.347  12.915 -0.0152 -0.1329  0.2546
 9638W        W26485   9.459  12.898  13.652  0.1476 -0.0847  0.2638
 9639W        W26486  15.083  12.913  15.508  0.0427 -0.0812 -0.0241
 9640W        W26487   2.147   5.641  12.077  0.1477  0.1205  0.2920
 9641W        W26488   6.988   0.618  12.819 -0.3264 -0.0427 -0.0057
 9642W        W26489  16.000   8.527   0.612  0.0630  0.0444 -0.1383
 9643W        W26490   7.271   0.519  11.728  0.4007  0.2091  0.1109
 9644W        W26491   0.291  11.233   2.161  0.1091  0.3289 -0.1626
 9645W        W26492   1.006   5.346   4.408  0.1173 -0.0600  0.1303
 9646W        W26493  12.386  11.414  13.921 -0.0824 -0.0406 -0.1285
 9647W        W26494   1.251  12.363  12.189  0.0991 -0.1381 -0.0051
 9648W        W26495  17.066  18.303   2.536 -0.0046  0.0751  0.0348
 9649W        W26496   8.780  16.882  13.499 -0.3600  0.3066  0.2288
 9650W        W26497  16.219  15.336   0.642  0.3082 -0.2361  0.2287
 9651W        W26498  14.396  15.168   0.302 -0.0280  0.3502  0.0354
 9652W        W26499  15.565  18.753  10.823 -0.0323  0.0479 -0.2106
 9653W        W26500   3.578   0.470  10.549 -0.0347 -0.2939  0.1392
 9654W        W26501   3.146   7.127  12.309 -0.1497  0.0506  0.0092
 9655W        W26502   5.944  11.100  11.252 -0.0808 -0.0559 -0.1568
 9656W        W26503   4.508   0.112   2.809  0.0416 -0.0383  0.2823
 9657W        W26504   6.137  11.153  11.740  0.0446  0.3717 -0.0716
 9658W        W26505   7.645   1.526  13.337 -0.1266  0.0289  0.1155
 9659W        W26506  15.012  16.201  11.266  0.1600 -0.0009  0.3085
 9660W        W26507   3.985   4.296  13.932  0.1919  0.0578  0.2236
 9661W        W26508  12.331  13.047   1.149 -0.2405  0.1660 -0.2447
 9662W        W26509  14.707  10.715   2.362 -0.1528  0.2574 -0.2554
 9663W        W26510  15.770  10.896  13.506 -0.1488  0.0827 -0.3074
 9664W        W26511   8.657   1.713   3.044  0.0059  0.0155  0.0261
 9665W        W26512   3.766   2.303   1.406 -0.1977 -0.0205  0.2236
 9666W        W26513  10.765   2.488  12.002 -0.3389  0.1628 -0.0313
 9667W        W26514   3.413   0.397   4.989 -0.2238 -0.2462 -0.3315
 9668W        W26515   8.518   4.402  11.349 -0.1022 -0.0123  0.0114
 9669W        W26516  14.705  14.307   5.693  0.1064  0.1111  0.1067
 9670W        W26517   0.751  14.773   1.330 -0.0678  0.0288 -0.0325
 9671W        W26518  18.145   8.010  12.369  0.1016 -0.1656  0.0134
 9672W        W26519   6.175  16.263  10.803 -0.1199 -0.0190  0.3730
 9673W        W26520   0.885   9.530   4.089 -0.1661  0.2049 -0.0678
 9674W        W26521  15.984  16.199   4.900  0.1521 -0.0721 -0.4648
 9675W        W26522   5.863  11.185   1.044  0.0598 -0.1140 -0.0432
 9676W        W26523  12.067   2.045   0.762  0.1674  0.1654 -0.5320
 9677W        W26524  16.077   3.958  13.473  0.1539 -0.2271 -0.0962
 9678W        W26525   4.670  18.238  13.267 -0.0049  0.1805 -0.2154
 9679W        W26526   8.926   4.737   4.532 -0.1298  0.0824  0.0602
 9680W        W26527   5.332   8.820   2.244 -0.0076 -0.1755  0.2621
 9681W        W26528   6.389   5.214   3.978  0.1119  0.1637  0.3361
 9682W        W26529   2.094  12.489   4.402  0.0465  0.0333 -0.1327
 9683W        W26530   4.882   8.657   3.790  0.0676  0.2110  0.2958
 9684W        W26531   4.630   4.099   2.427  0.2673 -0.1992 -0.2743
 9685W        W26532   3.448  14.721   1.306  0.3532 -0.0562 -0.3744
 9686W        W26533   6.284  11.053   2.869  0.0881 -0.2050  0.3652
 9687W        W26534   9.816  13.843   9.961  0.2045  0.0967 -0.3895
 9688W        W26535   7.324  16.602  13.085  0.0438 -0.1310 -0.0573
 9689W        W26536  18.209  12.110   1.417  0.1058 -0.2358 -0.2024
 9690W        W26537   8.132  16.980  10.930 -0.0781 -0.1896  0.0826
 9691W        W26538  16.334  15.221  10.738 -0.1625  0.0929 -0.0397
 9692W        W26539  10.598   9.459   1.144  0.1134  0.2491  0.1706
 9693W        W26540   0.999   9.301  15.020  0.0556 -0.2627  0.1265
 9694W        W26541   0.209  13.189   1.042  0.0962 -0.0825  0.0542
 9695W        W26542  17.126  17.405   5.664 -0.2375  0.2600  0.2442
 9696W        W26543  12.749   7.256  14.811 -0.0988 -0.1343 -0.3056
 9697W        W26544  17.544   0.569   2.449 -0.2526  0.1383 -0.1321
 9698W        W26545   5.676  12.623   4.193  0.0204  0.1255  0.0933
 9699W        W26546  13.245   7.179  14.639 -0.0284  0.2310 -0.1500
 9700W        W26547   4.642   5.681  15.056  0.0572 -0.0970 -0.1879
 9701W        W26548   5.997   6.802   3.011 -0.0547  0.0490 -0.0686
 9702W        W26549  13.286  16.557   4.959  0.1119 -0.0835 -0.2641
 9703W        W26550   8.008  14.333   4.092 -0.0500  0.0667  0.2271
 9704W        W26551   2.781   6.568   0.089 -0.0239 -0.0590  0.1231
 9705W        W26552  10.584  11.330   4.919  0.0490 -0.0407  0.1440
 9706W        W26553  11.446   9.917  14.492 -0.1173 -0.0127 -0.0852
 9707W        W26554  16.018  13.364  14.675 -0.1859 -0.1754 -0.0386
 9708W        W26555  18.488  12.317  14.214 -0.1379 -0.0734  0.2623
 9709W        W26556   7.927  10.870   0.273  0.0004  0.1050 -0.1255
 9710W        W26557  10.192   3.380   3.342  0.1581  0.1626 -0.2145
 9711W        W26558   8.346   7.341   3.957  0.0331  0.0569 -0.1326
 9712W        W26559   2.472  18.376  15.045  0.0910 -0.0279  0.0903
 9713W        W26560   2.440  16.598  14.727  0.1098 -0.1396 -0.0947
 9714W        W26561  16.006   1.910   0.598  0.1292  0.1455 -0.2270
 9715W        W26562  18.716  15.424  12.052  0.0394  0.2223  0.1357
 9716W        W26563  13.717  14.476   0.942 -0.0092  0.0280  0.0783
 9717W        W26564  11.993  13.561  13.862  0.1811 -0.2527 -0.2231
 9718W        W26565  12.441  16.165  14.014 -0.0005 -0.0844 -0.0433
 9719W        W26566  15.236   9.286   1.614 -0.5229 -0.2294  0.0985
 9720W        W26567   3.997   6.403   4.730 -0.1043 -0.0320  0.0496
 9721W        W26568   0.085  11.755  14.054  0.1538  0.3316  0.2063
 9722W        W26569   0.937   6.650  14.076 -0.1228  0.1112  0.1000
 9723W        W26570   1.090   0.993   4.611 -0.1311  0.1731 -0.2530
 9724W        W26571  12.538   6.945  14.422  0.2589  0.0001 -0.1801
 9725W        W26572   5.661  15.761  11.302 -0.0886 -0.0480  0.2652
 9726W        W26573   1.134   1.730  12.728 -0.2060 -0.2170 -0.0283
 9727W        W26574   5.336   7.234   0.147 -0.1269  0.3213 -0.1962
 9728W        W26575  18.519   2.228   3.012  0.1537  0.1870 -0.2164
 9729W        W26576   4.087   8.394   0.163  0.1338 -0.0459 -0.2542
 9730W        W26577  18.350  11.855   3.875 -0.0439 -0.0321 -0.0469
 9731W        W26578  10.775  12.260  11.892 -0.1103  0.1611 -0.1809
 9732W        W26579   2.070   1.023   2.544 -0.1497 -0.0991  0.0070
 9733W        W26580  10.081  17.957  11.232 -0.2757 -0.3765 -0.2137
 9734W        W26581  15.517  10.306   2.491  0.0015  0.2062 -0.0034
 9735W        W26582   0.035   4.848   0.498  0.2148  0.2804 -0.0050
 9736W        W26583  16.282   0.019   0.751  0.0346  0.0073 -0.0988
 9737W        W26584   1.584   6.402  14.682  0.1370 -0.0995 -0.2041
 9738W        W26585  10.239  12.474  14.496  0.1549 -0.0569  0.0193
 9739W        W26586   3.939  12.384  11.150 -0.2184 -0.2071 -0.2761
 9740W        W26587  17.785   2.927  13.680 -0.1305  0.0525  0.2634
 9741W        W26588  17.882   8.080  14.792  0.0885 -0.0007  0.0690
 9742W        W26589   4.617   6.244  11.621 -0.2166  0.1385 -0.0930
 9743W        W26590   4.541   1.044   0.743  0.1931  0.2889  0.1830
 9744W        W26591   7.262   0.944  13.364 -0.0540  0.2496 -0.0144
 9745W        W26592  14.941  15.185  12.785  0.2247 -0.0223 -0.1999
 9746W        W26593   2.139   3.555  13.563 -0.2162  0.1706 -0.3232
 9747W        W26594   6.381  11.999  11.018  0.2533  0.3063 -0.0502
 9748W        W26595   2.971   4.972  13.496 -0.0651  0.2132  0.0735
 9749W        W26596  13.815   1.400  11.877 -0.2329 -0.0115  0.2071
 9750W        W26597   7.797  16.141  12.202 -0.1184 -0.2160 -0.3968
 9751W        W26598  14.559  16.475   4.212 -0.1261  0.3860  0.2288
 9752W        W26599  12.126  14.226   5.057 -0.3933 -0.0869 -0.0072
 9753W        W26600   9.455  16.382  14.009 -0.0493  0.1406  0.2268
 9754W        W26601   8.858  14.666  15.485  0.3916 -0.2270  0.1939
 9755W        W26602   6.486  13.217   2.292 -0.2355  0.1967  0.1018
 9756W        W26603  10.999   5.389  11.072  0.0856  0.2056  0.1108
 9757W        W26604  11.401  17.527   3.794  0.0943  0.0973 -0.0677
 9758W        W26605   2.177  12.645   3.382  0.2621 -0.0179 -0.1869
 9759W        W26606   8.886   0.451   0.703  0.0098  0.1701  0.2332
 9760W        W26607   9.000   6.790  15.045  0.1807  0.1292  0.0881
 9761W        W26608  17.827   3.199  15.140 -0.0256  0.1560  0.0715
 9762W        W26609   3.316  18.790   2.702 -0.0614  0.3172 -0.1521
 9763W        W26610  14.137   5.726   2.259 -0.2858  0.0593 -0.2713
 9764W        W26611   0.448  10.955   3.115  0.2775 -0.0146  0.1193
 9765W        W26612   3.579  15.241   4.396  0.0418 -0.1430  0.1358
 9766W        W26613   5.626  17.599  14.657 -0.2898 -0.0399 -0.2399
 9767W        W26614   6.221  16.878   0.697  0.1473 -0.1881  0.0329
 9768W        W26615   0.707   1.748  10.902  0.1946  0.0582 -0.0798
 9769W        W26616  18.401  16.342   4.087 -0.0956 -0.0251  0.3290
 9770W        W26617  10.439   6.791   3.290  0.2607 -0.0610  0.1544
 9771W        W26618  14.319  14.598  14.849  0.0791  0.0348 -0.0672
 9772W        W26619  10.335   8.415   5.072  0.0781 -0.0152  0.2402
 9773W        W26620   1.131   8.684   3.130  0.1394 -0.1246 -0.2797
 9774W        W26621  10.348   7.360   0.703  0.0030 -0.0437  0.4320
 9775W        W26622   5.427   2.096   1.997 -0.1847 -0.0276  0.2470
 9776W        W26623   9.002   1.298   2.980  0.2824  0.2380  0.1166
 9777W        W26624   2.219   6.269  11.242  0.0497 -0.0920 -0.0121
 9778W        W26625  10.186   6.363   0.875 -0.4922 -0.1132 -0.0885
 9779W        W26626   4.694  13.823  14.350 -0.1066  0.0754 -0.0232
 9780W        W26627   0.184   4.148  11.440 -0.2618 -0.1333  0.1901
 9781W        W26628   5.502   6.899  13.838 -0.1511  0.1857  0.0850
 9782W        W26629  16.123   2.032   1.264  0.0545 -0.0050 -0.2019
 9783W        W26630  11.775  16.644  14.467 -0.0388  0.2542  0.0035
 9784W        W26631  17.998   7.179   3.796 -0.1865 -0.2661  0.0451
 9785W        W26632   3.433  16.508   3.856  0.0468 -0.1178 -0.1868
 9786W        W26633  16.001  17.885  15.122 -0.1933  0.1694  0.1335
 9787W        W26634  15.296   8.835   0.556  0.0565  0.0603  0.1257
 9788W        W26635  17.807  17.029  11.360  0.0028 -0.1810  0.1039
 9789W        W26636  15.632   5.443   0.174 -0.2123 -0.0737 -0.0302
 9790W        W26637  12.717   3.982  13.486  0.1299  0.2006 -0.2450
 9791W        W26638   0.122   6.571   9.962  0.0692  0.1722 -0.1655
 9792W        W26639   5.653   0.161  11.204 -0.3380  0.1978  0.1715
 9793W        W26640  17.165  11.663  14.467 -0.2250  0.0282  0.1787
 9794W        W26641  10.961  16.489   2.322 -0.0338  0.0325  0.0091
 9795W        W26642  12.992   7.192  12.229  0.1236 -0.1977 -0.1981
 9796W        W26643   2.205  18.824   0.063  0.0966  0.0222  0.0990
 9797W        W26644  17.128   6.764   3.294  0.2041 -0.4426 -0.1481
 9798W        W26645   2.805  12.911  13.886  0.2559 -0.1004  0.2539
 9799W        W26646  16.121  13.233   9.992  0.0451  0.0170  0.1584
 9800W        W26647   0.512   6.172   2.606 -0.0126  0.0873 -0.0123
 9801W        W26648   8.022   4.935   3.208  0.1190 -0.3032 -0.2027
 9802W        W26649   8.653  17.782   0.279 -0.2142 -0.1295  0.1280
 9803W        W26650  17.967   5.554   3.533  0.0246  0.4993  0.2792
 9804W        W26651  16.162  14.161  13.575  0.1129  0.0475  0.1658
 9805W        W26652   0.197   0.509   1.954  0.0460  0.2046  0.0768
 9806W        W26653  18.605  15.476   3.820  0.1443 -0.2336 -0.0947
 9807W        W26654   7.896   2.250   3.685  0.1080  0.0918 -0.1144
 9808W        W26655  16.046   7.437   3.261 -0.0120  0.3029  0.1289
 9809W        W26656  16.692  14.962  13.479 -0.2241 -0.3303  0.2583
 9810W        W26657   6.620   4.977  12.406  0.0823 -0.2383 -0.0149
 9811W        W26658  12.593  13.664   4.497 -0.0817 -0.0056  0.0693
 9812W        W26659  16.978  12.633   0.966  0.3690 -0.3920  0.1152
 9813W        W26660   5.883   1.939  13.346  0.1176  0.1722  0.0243
 9814W        W26661  13.725   3.725  12.485  0.1163 -0.1566 -0.2286
 9815W        W26662   1.047   3.713  14.884  0.1544 -0.1884 -0.1599
 9816W        W26663  16.337   9.319   0.053  0.2529  0.0605  0.2287
 9817W        W26664  18.145   2.599  13.756  0.3793 -0.0286 -0.3396
 9818W        W26665  12.853  12.339  13.826 -0.0125  0.4176 -0.1745
 9819W        W26666  17.484  10.552  11.304 -0.1572 -0.2494 -0.0984
 9820W        W26667   6.756  17.291  10.959 -0.2796 -0.0117  0.0807
 9821W        W26668   0.426   9.436   2.207 -0.1514 -0.1762  0.2492
 9822W        W26669  17.599   3.732  10.459 -0.1039  0.1382 -0.4868
 9823W        W26670   3.540  14.737  12.026 -0.0347 -0.1584 -0.0958
 9824W        W26671  14.019  17.320   2.263  0.2503 -0.2101  0.0688
 9825W        W26672  18.312  18.530  14.099  0.2356 -0.2686  0.1731
 9826W        W26673  14.962   7.137  13.421 -0.3427  0.0953 -0.1929
 9827W        W26674   3.386  14.567  11.295 -0.2211  0.1747  0.0627
 9828W        W26675   5.909  17.004  14.729  0.1014 -0.0347 -0.4659
 9829W        W26676   3.014  18.589   0.460 -0.3809 -0.2010  0.2162
 9830W        W26677   6.259   5.941   2.606  0.0792 -0.1039 -0.0022
 9831W        W26678   8.338   8.670   4.471  0.0060 -0.2306 -0.1110
 9832W        W26679  10.508   2.947  12.113  0.2375  0.1467 -0.3165
 9833W        W26680  13.089   7.148   0.138 -0.0645 -0.3624 -0.3369
 9834W        W26681   5.652   3.486   4.072 -0.1342 -0.0573  0.2950
 9835W        W26682   0.395   2.799   2.705 -0.4347 -0.0508 -0.0172
 9836W        W26683  14.893   6.076   0.566 -0.1031 -0.1339  0.0555
 9837W        W26684   5.820   8.767   4.076  0.0155  0.1231 -0.2302
 9838W        W26685   3.049   3.373   0.652 -0.0855 -0.2673 -0.0982
 9839W        W26686  10.433  10.720   0.198 -0.2692 -0.2484 -0.0651
 9840W        W26687   5.667   3.454  15.160  0.2156  0.1098  0.1967
 9841W        W26688   5.803   9.525   1.924  0.0305 -0.1410 -0.1209
 9842W        W26689   4.627  17.841   2.040 -0.1579  0.1778  0.1951
 9843W        W26690   8.259  12.240  11.190  0.0743 -0.3403 -0.1640
 9844W        W26691  12.446   2.866   0.032 -0.5685  0.1020 -0.0969
 9845W        W26692  10.459   7.008  12.596 -0.4055 -0.0832 -0.1522
 9846W        W26693  18.033  10.358  14.559  0.3168  0.1838 -0.1210
 9847W        W26694   1.854  12.307   3.483  0.0419 -0.0095  0.1605
 9848W        W26695  17.764   1.163  14.963  0.0812  0.2069 -0.1541
 9849W        W26696   8.222  15.275  11.904  0.3772  0.1129  0.1475
 9850W        W26697   5.573   3.927   4.829  0.2811  0.1801  0.0176
 9851W        W26698   3.851   4.145  11.069  0.0656 -0.2796 -0.0543
 9852W        W26699   4.733  17.280   5.510 -0.0916  0.2044  0.1374
 9853W        W26700  11.646  13.413   2.975 -0.2155 -0.1709  0.2279
 9854W        W26701  17.002  15.415   2.342 -0.0947 -0.0519  0.4246
 9855W        W26702  16.054  10.511  11.241  0.2918  0.0658  0.1894
 9856W        W26703  12.390   5.903   1.930 -0.0887 -0.0135  0.0463
 9857W        W26704   1.723   5.849   3.225 -0.2085  0.3242  0.1295
 9858W        W26705  18.151   3.042  10.218  0.0395  0.0280  0.1527
 9859W        W26706   6.639  13.415   4.692  0.1434 -0.1016  0.0656
 9860W        W26707  12.985   2.995  14.027  0.1676  0.0573 -0.2207
 9861W        W26708   2.132   1.324   2.017 -0.2686 -0.2165  0.3003
 9862W        W26709  12.881  11.180  14.845 -0.0627  0.1198  0.1256
 9863W        W26710   1.456   7.646   0.580  0.1507  0.3037  0.1160
 9864W        W26711  11.991   5.004  14.817  0.1563 -0.1517 -0.2295
 9865W        W26712   5.206  10.835  12.018 -0.2674  0.0520 -0.0235
 9866W        W26713  12.036  14.278   2.496  0.0010 -0.0801 -0.0862
 9867W        W26714  12.807   0.970   2.528  0.5143  0.3039 -0.1637
 9868W        W26715   7.440   3.690  14.142 -0.4000  0.1166 -0.2536
 9869W        W26716   6.458  16.812  10.627  0.1254  0.0665 -1.0012
 9870W        W26717  13.565  13.974  14.861 -0.0113  0.1275  0.0007
 9871W        W26718   1.266  15.887   4.819  0.0576  0.1163 -0.0437
 9872W        W26719  14.875   0.095   3.171 -0.0159 -0.0279 -0.2130
 9873W        W26720   4.346  18.494   1.258 -0.0905 -0.1586 -0.3292
 9874W        W26721   2.986  14.925   1.129  0.0295  0.1442 -0.0424
 9875W        W26722   6.852   4.649   2.350  0.0345  0.0228  0.0437
 9876W        W26723   0.755   8.338  10.614  0.0254  0.1173 -0.0834
 9877W        W26724  15.259   2.714   3.844  0.2695  0.1691  0.0757
 9878W        W26725  18.725  12.236   2.282  0.0578  0.0873  0.0273
 9879W        W26726   1.444  13.303  13.017  0.1626 -0.2472 -0.1855
 9880W        W26727  11.523  10.412  13.459  0.0774 -0.0442  0.0475
 9881W        W26728   8.861   2.009   6.204 -0.1633 -0.0131  0.0304
 9882W        W26729  17.660  13.085  13.917 -0.3505 -0.0147  0.2048
 9883W        W26730   7.599  10.746  14.482  0.2240  0.2990  0.2176
 9884W        W26731  12.372   8.125   1.386 -0.1100 -0.0708 -0.1988
 9885W        W26732   3.065  13.988   2.286  0.0853  0.0614  0.0916
 9886W        W26733  13.973   1.520   3.222  0.0320  0.0244  0.1623
 9887W        W26734  18.059   0.827   2.686  0.2229 -0.0388  0.2067
 9888W        W26735  15.498   8.394  13.850 -0.2096 -0.1644 -0.2465
 9889W        W26736   3.354  14.715   4.372  0.2843 -0.2351  0.1289
 9890W        W26737  14.745  12.759  13.843 -0.0601 -0.0699  0.0631
 9891W        W26738  17.249  13.407  11.282  0.2688 -0.1581  0.0644
 9892W        W26739   8.976   1.376  11.639  0.2795 -0.1277 -0.0277
 9893W        W26740   0.909  11.112  15.447 -0.1164  0.0422 -0.0528
 9894W        W26741   0.799   3.805   1.925 -0.1198  0.1163  0.0164
 9895W        W26742   5.337   5.575   0.680 -0.0499 -0.1635  0.0464
 9896W        W26743  15.660   4.462  13.905  0.0491  0.1488 -0.2456
 9897W        W26744   2.707   6.571   3.629 -0.1647  0.0461  0.3881
 9898W        W26745  13.882   5.814   3.475  0.1443 -0.0273  0.3079
 9899W        W26746  13.461  13.207  12.231 -0.0141 -0.0604  0.0047
 9900W        W26747  17.354  13.654  12.940  0.1936 -0.2954 -0.0305
 9901W        W26748   8.563  16.608  10.902 -0.0807 -0.0089 -0.3748
 9902W        W26749  11.934   8.867   5.882 -0.0873 -0.0470  0.2475
 9903W        W26750   2.773  12.078   4.819  0.0562  0.1102  0.0273
 9904W        W26751  17.445   9.835  14.166  0.2889  0.1857  0.2643
 9905W        W26752   8.937   6.079   4.009 -0.1938 -0.2748  0.2242
 9906W        W26753  10.289  11.684  10.707  0.1081  0.1638  0.2158
 9907W        W26754  18.062  13.788  12.300  0.0610 -0.0920 -0.0150
 9908W        W26755   1.974  11.690   4.052 -0.1979 -0.4811  0.0853
 9909W        W26756   5.224  14.999   4.166  0.2877 -0.2682  0.0134
 9910W        W26757  14.394   6.077   3.278 -0.0104 -0.0826  0.1414
 9911W        W26758  10.857   7.840  12.558  0.0490  0.0111  0.1548
 9912W        W26759  10.081  17.361  10.858  0.0332 -0.4534 -0.1020
 9913W        W26760   0.958  12.144   2.799  0.1431  0.1596  0.1531
 9914W        W26761   8.713   5.674   3.223 -0.1213  0.3378 -0.0171
 9915W        W26762   7.116   6.562   3.405 -0.1035  0.2735 -0.0443
 9916W        W26763  10.568  12.681   4.041  0.3610  0.0019 -0.4821
 9917W        W26764   0.269   8.674  11.977 -0.0299  0.0075  0.2695
 9918W        W26765   7.142  18.606   1.596 -0.0575  0.3774  0.0735
 9919W        W26766  18.457  11.459   4.827 -0.0689  0.3011  0.0768
 9920W        W26767   4.781  11.457  13.487 -0.0981 -0.0431 -0.1978
 9921W        W26768   8.853  12.136  13.684  0.0597  0.3592 -0.0740
 9922W        W26769   8.583   2.970   1.013 -0.2058 -0.1180 -0.1138
 9923W        W26770   2.312  10.535  11.657  0.1530  0.0071  0.1293
 9924W        W26771  16.002   3.852   3.186 -0.0005  0.1460  0.0318
 9925W        W26772   0.902  18.305  15.285 -0.1961 -0.1421 -0.1521
 9926W        W26773  11.784   3.476  14.637 -0.1750 -0.1307 -0.1278
 9927W        W26774   0.625  10.543   0.986 -0.3115  0.4087  0.1317
 9928W        W26775  18.655  18.160   0.837  0.1738  0.0332  0.2099
 9929W        W26776   7.539  13.666   3.527 -0.0942 -0.1578 -0.3506
 9930W        W26777  18.201   6.700   0.397 -0.2859 -0.2375  0.1070
 9931W        W26778   6.189  16.611   2.129 -0.2949  0.3516 -0.0347
 9932W        W26779  17.310  18.084  13.040  0.1771 -0.0071 -0.2245
 9933W        W26780   1.853   1.750  14.865  0.0134  0.2888  0.0294
 9934W        W26781  17.744  11.275  15.363 -0.0366 -0.1379 -0.2245
 9935W        W26782   9.991  14.529  12.166 -0.0571  0.0238 -0.2023
 9936W        W26783  13.209   2.235   2.120 -0.2243  0.2080 -0.3303
 9937W        W26784   9.121  15.290   3.843  0.1217  0.1865  0.1040
 9938W        W26785   4.195   3.529  12.581  0.1257  0.1986  0.2701
 9939W        W26786  10.962   1.126   1.881 -0.4325  0.0746  0.0215
 9940W        W26787   1.520  15.311   1.382  0.2039 -0.0905  0.0979
 9941W        W26788  18.766   3.793  14.958 -0.0310  0.1792  0.0327
 9942W        W26789   8.321  10.958  13.179  0.0052 -0.0441 -0.2688
 9943W        W26790   5.343  17.430   1.610 -0.1202  0.4265  0.1662
 9944W        W26791   2.349   2.248  11.109  0.1473  0.0571 -0.0002
 9945W        W26792   6.518   9.449   3.980  0.1526  0.2182 -0.2148
 9946W        W26793   5.284  15.117  15.103  0.0251 -0.0002  0.2791
 9947W        W26794   5.021   8.089   5.959  0.0726  0.2454 -0.0131
 9948W        W26795  18.707  18.537  13.110  0.0852 -0.1899 -0.1722
 9949W        W26796  16.394  18.629  12.047 -0.1466 -0.1018  0.2725
 9950W        W26797  13.350   8.828  13.808 -0.3098 -0.1214  0.0302
 9951W        W26798  15.293  16.299  15.418 -0.0493  0.0912 -0.0536
 9952W        W26799  10.591   3.023   2.392 -0.2592 -0.1970  0.0850
 9953W        W26800  17.338  14.251  10.771  0.1634 -0.0472  0.0005
 9954W        W26801   8.781   0.848   5.432  0.1253 -0.1908  0.0708
 9955W        W26802   4.071  12.706  13.358  0.0489  0.0559  0.0397
 9956W        W26803  12.287   7.753   1.699  0.0675 -0.1405 -0.1310
 9957W        W26804   3.716   9.753   4.864 -0.1955  0.2644 -0.0722
 9958W        W26805  16.886   2.540   0.405  0.2300  0.4195  0.2183
 9959W        W26806   2.339   5.602   5.240 -0.0419 -0.1330 -0.2563
 9960W        W26807   9.400  11.602   2.176  0.0648  0.1685  0.3720
 9961W        W26808   3.661   9.013   5.167  0.1966  0.2437  0.3254
 9962W        W26809  10.663  13.902  14.117 -0.3610  0.0478 -0.1611
 9963W        W26810   9.613  11.207   0.674  0.0886 -0.0101 -0.3534
 9964W        W26811   0.275   2.978  10.765  0.2833  0.0481 -0.1192
 9965W        W26812   2.988  15.303  14.513 -0.0594 -0.1645 -0.0117
 9966W        W26813   0.826   7.078  14.333 -0.2367  0.2988  0.0971
 9967W        W26814   6.944   3.519  11.055 -0.0059 -0.4217 -0.1284
 9968W        W26815   1.081  15.466   2.466  0.0088  0.1223 -0.1175
 9969W        W26816  16.221   6.469   5.233 -0.0051  0.0798 -0.1529
 9970W        W26817   2.411  11.547   4.355 -0.1181  0.0981  0.0334
 9971W        W26818   6.491   8.214  13.707  0.1238 -0.0368  0.0633
 9972W        W26819  17.690  14.469  12.004  0.0928 -0.1230  0.0212
 9973W        W26820   3.663   0.176  15.428  0.2236  0.0068 -0.2708
 9974W        W26821   1.741   2.644  11.693 -0.0336 -0.0363 -0.1883
 9975W        W26822   4.694  13.068  12.799  0.3573  0.1283 -0.0267
 9976W        W26823  11.765   8.419   2.748 -0.0783  0.2385 -0.0925
 9977W        W26824   0.239  15.853  11.277  0.2348 -0.0027  0.3010
 9978W        W26825   6.331  13.188   0.160 -0.1047  0.0608  0.4413
 9979W        W26826  14.872  15.006   2.380 -0.2967  0.0156 -0.0153
 9980W        W26827  11.998   9.324  12.923 -0.2143 -0.3294 -0.1622
 9981W        W26828  14.105   8.328   4.764  0.1132  0.0727  0.0603
 9982W        W26829   3.817   3.521   4.466  0.2628  0.0379 -0.1327
 9983W        W26830   7.207  12.613   3.746  0.0535  0.0233 -0.1891
 9984W        W26831   2.024  10.769   2.501 -0.0195 -0.1444 -0.0835
 9985W        W26832   8.355   7.775   1.526  0.0622 -0.1820  0.1108
 9986W        W26833  10.518   8.652   5.446 -0.1775  0.1294  0.0406
 9987W        W26834   7.000   6.750  15.030  0.2590 -0.0707  0.1343
 9988W        W26835  17.463   0.677  12.098 -0.0634  0.3352  0.1262
 9989W        W26836  18.558   1.459   5.505  0.0186  0.1573 -0.0267
 9990W        W26837   6.620   2.678  13.646 -0.1441 -0.1334  0.3293
 9991W        W26838  13.604  16.468  13.366  0.1689  0.3121  0.1065
 9992W        W26839  17.549  11.054   3.632 -0.1613 -0.1143  0.1612
 9993W        W26840   2.338  12.613   3.932  0.2664 -0.1771  0.1594
 9994W        W26841  16.687  12.267   1.123  0.3324 -0.0183  0.0555
 9995W        W26842   2.119  15.148   4.933  0.0108  0.0341 -0.0035
 9996W        W26843   6.100  10.738   1.877 -0.1327  0.4779 -0.0445
 9997W        W26844  18.649  18.416  11.416 -0.0602 -0.0924  0.0096
 9998W        W26845   4.999   5.006  13.601  0.1317 -0.0907  0.1086
 9999W        W26846   5.123   8.157  15.133 -0.5114  0.0713 -0.0358
10000W        W26847  13.590   1.617  12.253  0.0949  0.1986  0.1478
10001W        W26848  12.248  14.381  13.143  0.0582 -0.0305 -0.0237
10002W        W26849   8.692   7.538   5.991 -0.0395 -0.0864 -0.2880
10003W        W26850  14.091   9.910   3.940 -0.2970 -0.2516  0.1022
10004W        W26851   6.197   6.437  13.398  0.1799  0.2062 -0.0897
10005W        W26852  15.376  13.987   2.503  0.0143 -0.3719 -0.1339
10006W        W26853   1.877   9.362   0.432 -0.1867  0.1960 -0.0173
10007W        W26854  17.841   3.965   2.081  0.0326 -0.2274 -0.1648
10008W        W26855  10.379   7.760  15.287 -0.0010 -0.0463  0.2479
10009W        W26856   2.637   8.025  14.699  0.1139  0.1054  0.2538
10010W        W26857   4.814   0.611   5.321  0.2480  0.1335 -0.0328
10011W        W26858  11.357   5.984  14.108  0.2419  0.0094  0.2087
10012W        W26859   5.693   9.659   4.332  0.2912 -0.0649  0.3649
10013W        W26860  16.843  13.562   2.023 -0.0668  0.0859 -0.1913
10014W        W26861   7.405  18.798   0.288  0.0088  0.1720  0.0223
10015W        W26862  10.079   1.041   1.381 -0.3265 -0.0452 -0.3816
10016W        W26863  17.687  18.614  14.648  0.0311 -0.1931 -0.1054
10017W        W26864  12.198   6.007   5.129 -0.0510  0.0961  0.0959
10018W        W26865   9.851   2.188   4.660  0.2922 -0.0470 -0.0920
10019W        W26866  10.626   0.051   4.063 -0.2294  0.0069 -0.0026
10020W        W26867  10.009   8.767  13.798 -0.0451 -0.2095 -0.2077
10021W        W26868   2.907  16.128   3.608  0.0265 -0.1649 -0.1039
10022W        W26869   6.877  16.064   2.607  0.0587  0.0785  0.2086
10023W        W26870  10.960  16.246   5.175 -0.0196  0.1630  0.0358
10024W        W26871  17.840   5.067  12.954 -0.1429 -0.3588 -0.1333
10025W        W26872  17.652   5.789  13.539 -0.5380 -0.2183 -0.0418
10026W        W26873  10.080  10.928   4.143 -0.2990 -0.1301 -0.0659
10027W        W26874  18.669   5.557   4.367  0.0689 -0.0573 -0.0359
10028W        W26875  15.155  10.125   0.331 -0.1240 -0.0089 -0.0560
10029W        W26876  11.889   8.384  13.363  0.1477 -0.4197 -0.1176
10030W        W26877  12.708   8.123  13.718  0.0658  0.2436 -0.2642
10031W        W26878   3.748  11.537  12.307  0.0961 -0.1042 -0.1669
10032W        W26879  14.430  18.124  10.981 -0.2638 -0.1134  0.0758
10033W        W26880   7.521  12.093   0.819 -0.0153 -0.0207  0.0752
10034W        W26881  18.242  18.445   1.063 -0.0275 -0.2125  0.0061
10035W        W26882   4.802   2.747  12.991 -0.3532  0.0291 -0.3982
10036W        W26883  16.859   6.494   4.122  0.3166 -0.1318  0.2930
10037W        W26884   5.949   4.563  12.270 -0.1167 -0.0488 -0.2767
10038W        W26885  13.477  16.397   4.272  0.3126 -0.2030 -0.0435
10039W        W26886   1.862   1.064  13.580  0.0853 -0.0380 -0.1692
10040W        W26887   3.309   5.038  13.905 -0.3474  0.1912  0.0845
10041W        W26888  13.942   7.649   1.496 -0.1768  0.2342 -0.1513
10042W        W26889  12.451   4.692  12.144 -0.1866 -0.2626 -0.1815
10043W        W26890  14.514   9.414   1.165 -0.0800 -0.2015 -0.0910
10044W        W26891  18.315   4.428   3.168  0.2310  0.2202 -0.0691
10045W        W26892   3.334  15.608  14.361  0.2952 -0.2045  0.1176
10046W        W26893   5.826   2.378  12.408 -0.2205 -0.1022 -0.3112
10047W        W26894   7.531  16.930   0.294  0.0300 -0.2854 -0.2155
10048W        W26895  11.642  18.228  13.993 -0.1884 -0.1546  0.2915
10049W        W26896  15.274   3.838   4.571 -0.2943  0.3531 -0.1031
10050W        W26897   3.614  14.063  14.909  0.0736 -0.0848  0.0006
10051W        W26898  10.925  11.345   9.908 -0.0228  0.1321  0.2402
10052W        W26899   8.346  16.817   3.979  0.1555  0.2389 -0.0593
10053W        W26900  14.527   8.614  13.171  0.0985 -0.0676 -0.2524
10054W        W26901  16.898  17.756  12.665  0.1674 -0.0072 -0.1588
10055W        W26902  18.333   2.975   2.591  0.1403  0.1180  0.0534
10056W        W26903  18.702  15.678  15.485  0.0991 -0.0888  0.1237
10057W        W26904  16.906   5.116  13.518  0.3511 -0.0566 -0.1513
10058W        W26905  15.787   3.775   2.098  0.2036  0.1774 -0.0042
10059W        W26906  16.933  16.644  11.876 -0.0073  0.1261 -0.0429
10060W        W26907  14.222  12.819   4.324  0.1634 -0.0157 -0.1407
10061W        W26908   0.528   5.775  12.261  0.2926  0.1558  0.4700
10062W        W26909  13.311  18.661   0.499 -0.0468 -0.0681 -0.2028
10063W        W26910   7.908  16.491   2.052 -0.2136  0.0277 -0.3005
10064W        W26911   5.289   8.379  13.306  0.1700  0.1532  0.0636
10065W        W26912   6.872   9.032  14.231  0.0883  0.0915 -0.2448
10066W        W26913   9.498   4.343   2.280  0.1393 -0.0860  0.1405
10067W        W26914  16.359  10.293  11.703 -0.3325 -0.1168 -0.0196
10068W        W26915   4.940  17.832  11.322 -0.2754 -0.1466  0.0652
10069W        W26916   0.457   0.230  12.982  0.0747  0.2262 -0.2872
10070W        W26917   1.877  18.662   0.871 -0.0177 -0.0693 -0.2159
10071W        W26918  11.050  18.749   2.599 -0.2239 -0.1785  0.2733
10072W        W26919   1.797  18.047  14.133  0.2101  0.3123  0.3234
10073W        W26920   3.646  11.608   5.060 -0.2758  0.0007 -0.0926
10074W        W26921  12.371   3.349  15.514 -0.3759 -0.0222 -0.1858
10075W        W26922  15.809  13.751  13.726 -0.2267 -0.1493  0.1049
10076W        W26923  10.957   4.514   2.557  0.4780 -0.2411 -0.1580
10077W        W26924   1.538  14.006   2.184  0.1275 -0.1556 -0.1775
10078W        W26925  10.236  18.365   3.072 -0.0156  0.0932 -0.0363
10079W        W26926   3.901  13.564  13.893 -0.1258  0.0889 -0.0316
10080W        W26927   8.160   8.463   1.810  0.0346 -0.0491 -0.1568
10081W        W26928   2.721   7.444   0.855  0.1085  0.1232 -0.3923
10082W        W26929   8.022   7.557   4.919 -0.0191 -0.1835 -0.1050
10083W        W26930  13.211  18.010   4.091 -0.1222 -0.1031  0.1054
10084W        W26931  14.355   9.484  10.519  0.1546  0.0458  0.2326
10085W        W26932   5.338  15.202   3.254  0.5752  0.2474 -0.1604
10086W        W26933  18.448  13.188   5.560  0.1386 -0.2037 -0.1368
10087W        W26934   8.304   8.551  15.557  0.0174 -0.1984 -0.0216
10088W        W26935  17.256   0.969   0.134 -0.1878 -0.0350 -0.0360
10089W        W26936  16.591  14.697   4.251  0.1671  0.0762  0.1055
10090W        W26937  13.822  16.053   4.152 -0.0301  0.1068 -0.0136
10091W        W26938  18.137  11.826  11.091  0.2271 -0.0520  0.0595
10092W        W26939  11.873  14.246  14.450  0.1354 -0.0023 -0.0475
10093W        W26940   9.945   2.036  13.375  0.0195 -0.0815  0.1260
10094W        W26941  10.848  10.426   4.903 -0.0279 -0.1763 -0.0155
10095W        W26942   7.484   5.184  11.148  0.3652 -0.0415  0.2003
10096W        W26943   5.392  10.616  11.539 -0.2331 -0.4095  0.0665
10097W        W26944   0.685   4.955  15.542 -0.0017 -0.1663  0.0268
10098W        W26945   4.542   3.622   2.686  0.0589 -0.1341 -0.1553
10099W        W26946  11.907   2.491  11.253  0.4386  0.0540 -0.0516
10100W        W26947  14.935  11.771   3.395 -0.1499  0.3376  0.2622
10101W        W26948   6.437  11.145   4.030  0.0586 -0.3284 -0.0787
10102W        W26949   1.574  14.226  12.602 -0.1098  0.1207 -0.0488
10103W        W26950  11.135   5.279   1.072  0.0344  0.3354  0.0187
10104W        W26951  10.169   6.387   3.498 -0.0838 -0.3221 -0.2780
10105W        W26952   4.291   6.673  13.848  0.1840 -0.1243 -0.3341
10106W        W26953  11.741  13.270   0.495 -0.1296 -0.3326 -0.2319
10107W        W26954  13.626   5.667   2.187  0.0683  0.2633 -0.1950
10108W        W26955  17.854   2.641  10.999  0.3611 -0.1889 -0.1145
10109W        W26956   3.191   8.558  13.019 -0.1466 -0.0441 -0.5581
10110W        W26957   2.850   6.283  15.132 -0.0670 -0.0652  0.3024
10111W        W26958  15.081  18.326  14.882 -0.1163 -0.0166  0.1873
10112W        W26959   2.092   7.272   0.060 -0.0313  0.3161 -0.2740
10113W        W26960  16.941  18.131  13.934 -0.3864 -0.3101 -0.0626
10114W        W26961  18.474   1.304  12.657  0.2351 -0.1135 -0.2370
10115W        W26962   6.657   9.918  11.025  0.4314 -0.0711  0.0801
10116W        W26963   1.797  12.072   1.149 -0.2808  0.2339 -0.0695
10117W        W26964   4.802  12.405  11.097  0.0880  0.1923 -0.1019
10118W        W26965   4.451  11.558  14.745 -0.3980  0.5901 -0.0012
10119W        W26966  10.040  10.706   4.586  0.0283  0.0733  0.4483
10120W        W26967  11.871   0.578   4.076 -0.2166 -0.2283  0.2206
10121W        W26968  10.369  18.832  12.548  0.1556 -0.1825 -0.1935
10122W        W26969  14.482  17.717   0.827  0.2262  0.1506  0.1004
10123W        W26970   8.458   5.098  12.678  0.0488 -0.0310  0.1183
10124W        W26971  15.538   9.849  11.680  0.3114  0.1745  0.0331
10125W        W26972  18.179   0.647  13.239  0.0524  0.3014 -0.2489
10126W        W26973  16.364  12.004  11.581 -0.3331 -0.1105  0.0343
10127W        W26974   3.238   6.509   2.386  0.1087 -0.0001 -0.1197
10128W        W26975  13.504   5.255  12.780 -0.0878  0.2350  0.1319
10129W        W26976   8.482  10.715   0.162  0.0364 -0.2236 -0.1079
10130W        W26977   7.685   6.661   4.121 -0.1237  0.2179 -0.2411
10131W        W26978   1.562  15.841  14.276 -0.1396 -0.0766 -0.1086
10132W        W26979   8.848   8.706   0.011 -0.0343 -0.2451  0.1474
10133W        W26980  10.519  10.887  12.792  0.5340 -0.0425  0.1755
10134W        W26981   7.345   9.594   0.239 -0.1630 -0.1766  0.0475
10135W        W26982   6.996   1.449  12.287 -0.0226 -0.0982 -0.1122
10136W        W26983   9.018  10.326  12.835  0.0131 -0.1943  0.0543
10137W        W26984  10.871   8.156   0.553 -0.0774  0.0717  0.0262
10138W        W26985  18.013   2.596  12.298  0.0112 -0.1241  0.0159
10139W        W26986  13.323   5.430  13.191 -0.2089  0.3341  0.0929
10140W        W26987   4.353  11.254   2.042 -0.2808  0.0565  0.0082
10141W        W26988  17.134  12.993   3.187 -0.1118 -0.0023  0.2443
10142W        W26989   8.557   6.341   4.920 -0.0516 -0.0713 -0.2139
10143W        W26990   0.084   6.545  11.035  0.1928  0.2942  0.0175
10144W        W26991   4.457   7.135  15.319 -0.1319 -0.2376  0.2612
10145W        W26992  14.476   9.602   4.182 -0.2961 -0.0695  0.2539
10146W        W26993   7.755  15.640   0.126 -0.1738 -0.0437  0.1986
10147W        W26994   2.649   8.916   2.766  0.1129  0.1112  0.2062
10148W        W26995   4.175  11.610   0.109 -0.2863  0.1042 -0.3137
10149W        W26996  15.564  12.956   4.893 -0.0834  0.0785 -0.0483
10150W        W26997  10.145   7.829   2.872  0.0559  0.1302 -0.1456
10151W        W26998   0.765   2.752   0.990 -0.0689 -0.1571 -0.1060
10152W        W26999   8.684  13.255   0.003 -0.1352 -0.0658 -0.1028
10153W        W27000   0.745   2.263   0.790 -0.0013  0.3498  0.1530
10154W        W27001  12.230   3.740  10.016 -0.0725 -0.0506 -0.1245
10155W        W27002   3.830  16.243   4.809 -0.0736  0.1069 -0.2965
10156W        W27003  11.270  13.059  14.211  0.3681  0.0244  0.1616
10157W        W27004   3.607  13.287   0.341  0.1729 -0.3757 -0.1186
10158W        W27005   0.981   1.439  11.170 -0.0190 -0.2888  0.3228
10159W        W27006  17.786   5.994   0.235  0.1648  0.1262 -0.1092
10160W        W27007  14.412  11.367  13.886 -0.3951  0.0724  0.1411
10161W        W27008  11.115  14.442   3.863  0.1168  0.2677  0.0496
10162W        W27009  12.823   5.214  13.313  0.0830 -0.0376  0.2517
10163W        W27010   2.723   3.040  12.195  0.2503 -0.4720  0.0851
10164W        W27011   0.873   0.806  10.512 -0.0369 -0.2261  0.1086
10165W        W27012   2.207  15.605   3.207  0.4033 -0.0301  0.2057
10166W        W27013   0.518  18.635   2.594 -0.0089  0.0891 -0.1659
10167W        W27014  14.764   2.476   3.048  0.4748  0.2989  0.1240
10168W        W27015   4.122   8.545  12.537 -0.2762  0.0580  0.1053
10169W        W27016  14.931  13.096  11.775 -0.2991  0.0787 -0.0156
10170W        W27017   0.521  15.382  15.233  0.0031 -0.3157 -0.2277
10171W        W27018   2.664  14.148  13.374  0.2670 -0.1166 -0.2384
10172W        W27019   1.134   9.372  15.467 -0.0120 -0.0972 -0.0956
10173W        W27020   3.536   5.427   0.381 -0.0383 -0.0839 -0.2132
10174W        W27021  16.141  14.916   3.088  0.5277  0.2898 -0.0139
10175W        W27022   9.039   0.869  10.757  0.2957  0.1328  0.1571
10176W        W27023   6.975   7.662   4.616  0.0040 -0.0079 -0.0256
10177W        W27024  17.064  14.027   0.818  0.0950  0.1377  0.0405
10178W        W27025   8.263  10.684   1.707 -0.0008 -0.4129 -0.2782
10179W        W27026  11.514   5.448  14.562 -0.3062  0.1688  0.1870
10180W        W27027  13.534  11.379   3.872 -0.0091 -0.0273  0.0878
10181W        W27028  15.887   6.118   6.087  0.1048  0.2334  0.0603
10182W        W27029  16.537  17.938   0.897  0.0854  0.1482  0.1549
10183W        W27030   2.019  13.552  10.975  0.2452  0.0473 -0.2795
10184W        W27031  17.670  14.338  14.434 -0.2456  0.0369  0.1054
10185W        W27032   1.307  13.651   1.946  0.0599 -0.0226 -0.0939
10186W        W27033   2.852   8.174   1.329  0.1994 -0.1856  0.4720
10187W        W27034  17.089   2.029   9.382 -0.2634 -0.3359  0.1128
10188W        W27035  10.256  11.691   1.694 -0.0990  0.2890  0.0658
10189W        W27036  17.682  14.025   2.393 -0.0290 -0.2312  0.1238
10190W        W27037   3.417   0.606  15.363  0.1465  0.1076 -0.0262
10191W        W27038   8.445   3.102   3.968  0.3119 -0.0862  0.1282
10192W        W27039   3.389  14.337  13.930  0.2925  0.2427  0.1781
10193W        W27040  13.588  10.761  12.533 -0.2977 -0.1593  0.2257
10194W        W27041   7.870   2.771  11.813  0.1606 -0.0185  0.3160
10195W        W27042   2.370   8.301   3.148  0.0097 -0.0054  0.3830
10196W        W27043  17.216   1.517  13.916 -0.3602  0.0211 -0.0305
10197W        W27044  17.011   1.018  13.644  0.1491 -0.1874  0.3084
10198W        W27045  10.619  15.628   0.026  0.2785  0.1309  0.0318
10199W        W27046   4.994  10.044  13.229 -0.0057  0.1743  0.2169
10200W        W27047  12.986   6.554  11.491 -0.1159  0.0215 -0.1312
10201W        W27048  10.305  13.648   0.105  0.2259  0.0636  0.1138
10202W        W27049  18.601  13.598   4.722 -0.2151 -0.0297 -0.0251
10203W        W27050   2.421   4.376   3.784 -0.1004  0.0448  0.3146
10204W        W27051   8.088  15.750  11.687  0.0543 -0.0312  0.0450
10205W        W27052   3.480  12.152   2.723 -0.1422 -0.0967 -0.2407
10206W        W27053  10.616   6.896   0.658 -0.0816  0.0881  0.1368
10207W        W27054  15.924  11.237  12.697 -0.1394  0.0342 -0.2135
10208W        W27055   8.137  16.784   4.482 -0.4060  0.2797  0.4657
10209W        W27056   2.851  11.383  11.023  0.0235 -0.0283  0.0749
10210W        W27057   2.429  12.021   4.378 -0.2552  0.2174 -0.0616
10211W        W27058   3.404   8.591   5.235  0.1005 -0.0794 -0.1055
10212W        W27059  11.353   8.995  12.075  0.1084 -0.3088 -0.2061
10213W        W27060  14.893   7.988  13.308  0.2589  0.2053  0.1397
10214W        W27061   8.493  10.100   5.048  0.3373  0.0592 -0.1516
10215W        W27062   8.501  11.898   3.397  0.0299  0.1337  0.0395
10216W        W27063   7.481   5.326   2.161  0.4599  0.0233  0.0078
10217W        W27064  18.260  12.631  11.665 -0.1079  0.3020 -0.0062
10218W        W27065   0.157   3.826  13.297  0.1619 -0.1428 -0.2088
10219W        W27066  13.213   0.911   2.234 -0.0208  0.1571  0.1024
10220W        W27067  14.332   4.693  12.221  0.1740  0.0084  0.4564
10221W        W27068  12.121  13.574   0.766 -0.2772 -0.0299  0.1456
10222W        W27069  16.927   4.701  13.819  0.2798 -0.0161 -0.0351
10223W        W27070  16.755  16.179  11.572 -0.1800  0.0934 -0.0808
10224W        W27071   2.370  17.440  13.291  0.0248 -0.0272  0.0873
10225W        W27072   3.551   2.056   2.392 -0.2072 -0.0950 -0.1823
10226W        W27073  16.944   0.563  12.788  0.0260  0.1058 -0.2567
10227W        W27074   2.907  10.533   2.426 -0.0259  0.1085  0.1148
10228W        W27075  12.815   7.419   3.301 -0.2622  0.0885  0.2645
10229W        W27076  13.795   5.860  13.956  0.0050  0.4050 -0.0689
10230W        W27077   1.132  11.240   3.818  0.0477 -0.0556 -0.1006
10231W        W27078  16.724   9.279  11.502  0.2036  0.0180  0.0078
10232W        W27079  18.308  16.683  12.575  0.5857  0.0789  0.0018
10233W        W27080   9.253  16.736  13.282 -0.3572  0.0350 -0.0188
10234W        W27081   4.334   1.754  14.565  0.0474 -0.1653  0.3379
10235W        W27082  16.737  13.778  11.891 -0.2015  0.2604  0.0223
10236W        W27083  16.995  18.727   4.893 -0.2647 -0.1608  0.6240
10237W        W27084  16.250  14.447   1.086 -0.2885 -0.0052 -0.0862
10238W        W27085  17.984   9.515   0.576 -0.1751 -0.2734 -0.2051
10239W        W27086   1.767  15.665  15.514  0.1137  0.1231  0.2162
10240W        W27087   0.172   7.755   1.373  0.3499  0.1135  0.0822
10241W        W27088   2.252   8.501   1.931  0.1465 -0.0323  0.1304
10242W        W27089  18.523  10.277   4.225 -0.0641 -0.1563 -0.1128
10243W        W27090   6.140  17.094  15.226 -0.1403 -0.1111 -0.0543
10244W        W27091   3.792   3.944  12.920 -0.2162  0.0170 -0.3777
10245W        W27092   6.003  13.004   0.950 -0.1066 -0.0217  0.1573
10246W        W27093  16.415  12.252  15.540  0.0891  0.1726  0.0261
10247W        W27094   9.189  10.391   4.166 -0.1869  0.3201 -0.1270
10248W        W27095  13.496   4.312   0.799 -0.1222  0.0566  0.1017
10249W        W27096  11.838  11.906  14.562  0.0772 -0.0348  0.0228
10250W        W27097  16.092  18.514  15.166  0.1539 -0.0548 -0.0225
10251W        W27098   2.381  15.657   2.344  0.3947  0.0806 -0.0378
10252W        W27099   7.646  17.767   1.382  0.1353  0.0354 -0.1714
10253W        W27100   6.262   0.666   3.360  0.3716 -0.0906  0.0276
10254W        W27101  11.025  13.664  14.453  0.1931  0.0304  0.3104
10255W        W27102   8.638  10.002  10.535  0.2237  0.0052  0.1312
10256W        W27103  11.376  10.288   2.086 -0.0310  0.2675  0.1474
10257W        W27104   5.790   2.644  14.878  0.0690 -0.1237  0.1032
10258W        W27105  10.082  12.014  14.855  0.0323  0.0606  0.1160
10259W        W27106   3.432  18.211  13.459  0.2778  0.0504 -0.0197
10260W        W27107  10.627   6.049  14.769  0.0589 -0.1397  0.2619
10261W        W27108  14.971   1.024   0.720  0.1488  0.1098  0.0652
10262W        W27109   1.605  18.700   2.964  0.0317  0.0745 -0.1471
10263W        W27110   8.974  11.684  13.836 -0.1081  0.2984  0.1007
10264W        W27111   0.774  18.623   4.003  0.0085  0.1458 -0.1609
10265W        W27112   1.864   1.567  14.343 -0.1788  0.2244 -0.1308
10266W        W27113  12.458   0.623   2.249 -0.0448  0.1052  0.0599
10267W        W27114  16.219   3.884   0.466  0.0491 -0.1819 -0.0068
10268W        W27115  16.372   3.088   2.865  0.1793 -0.0226  0.1836
10269W        W27116  14.297  12.958  14.780  0.2584 -0.0393  0.0858
10270W        W27117  11.975   0.191   3.776 -0.0213 -0.1065 -0.1684
10271W        W27118   3.417  13.398  12.459 -0.0744  0.1043  0.3345
10272W        W27119  10.477  16.590   1.114  0.1384  0.0280  0.0246
10273W        W27120  18.675  17.508  11.717  0.0420 -0.1954  0.1751
10274W        W27121  18.708   3.114   0.204 -0.1986  0.0268  0.1018
10275W        W27122  16.125  16.834   2.749 -0.0935  0.4576  0.0861
10276W        W27123   9.901  14.183  12.636 -0.0739  0.1085 -0.3979
10277W        W27124   4.884   2.727  14.967 -0.1355  0.0456  0.1253
10278W        W27125   6.947   4.267   1.332  0.0903 -0.1274 -0.0215
10279W        W27126  10.197  15.635   1.917  0.1882 -0.3231 -0.0765
10280W        W27127   7.742  15.049   4.544 -0.0706  0.0195  0.1564
10281W        W27128  17.357   1.169  10.502 -0.3641  0.4943 -0.3929
10282W        W27129   0.917   3.774   3.219  0.0598  0.2309  0.1036
10283W        W27130  15.015   8.216  12.035  0.1299 -0.2006 -0.0714
10284W        W27131   0.293   6.696  11.908  0.2669 -0.2142  0.0933
10285W        W27132   8.755   4.548   0.895  0.2041 -0.0899  0.2495
10286W        W27133  12.525   0.184  11.976  0.3301  0.0870 -0.0958
10287W        W27134  16.462   5.219   1.139  0.1065 -0.2433  0.0729
10288W        W27135   7.526   2.247   5.842  0.3180 -0.1209  0.0710
10289W        W27136  13.112   8.211  12.592  0.5157 -0.1391 -0.0116
10290W        W27137  18.297  12.289   0.474 -0.0264  0.2527  0.1481
10291W        W27138   6.944  13.997   2.206 -0.0282 -0.1561 -0.1504
10292W        W27139   2.305   5.000  13.984 -0.1947 -0.2432 -0.0874
10293W        W27140  15.783   7.353  14.113  0.0081  0.1002 -0.0413
10294W        W27141   8.173   6.849   5.265 -0.0449 -0.0614 -0.2058
10295W        W27142   4.071   5.443  14.466  0.0066 -0.2223 -0.3127
10296W        W27143  13.273   0.035  11.220 -0.0257 -0.0469  0.2268
10297W        W27144   4.370   7.430   4.244  0.2014  0.0044 -0.0519
10298W        W27145   1.513  16.826   3.574 -0.0675 -0.0513  0.0557
10299W        W27146  13.180  10.422   1.942  0.5235 -0.3623  0.2793
10300W        W27147  14.815   7.824   1.953 -0.0979 -0.1593  0.0370
10301W        W27148  11.068  16.800  15.062 -0.2716  0.0635  0.2378
10302W        W27149  15.383   0.199   5.211 -0.1001 -0.2840  0.0890
10303W        W27150  11.033   8.228   0.067  0.2470 -0.0195 -0.0596
10304W        W27151   8.990   5.616   2.318 -0.1626  0.0410 -0.0503
10305W        W27152   9.872  16.953  10.660 -0.3212  0.0179 -0.2000
10306W        W27153   7.039  13.241  12.513 -0.2868  0.0007 -0.1644
10307W        W27154  16.854   7.920   3.417 -0.0708 -0.2003  0.2429
10308W        W27155   0.240  11.416   4.249  0.0016  0.0053  0.0914
10309W        W27156  16.138  17.320  12.285 -0.0473  0.3473  0.4207
10310W        W27157  11.730  14.526  14.051 -0.0559 -0.1130  0.0044
10311W        W27158  14.058   9.519   4.784 -0.0428 -0.0243  0.1232
10312W        W27159   3.424  10.938  13.160 -0.4181  0.0512  0.1427
10313W        W27160   4.185  11.153   3.919  0.0621 -0.2467  0.0072
10314W        W27161  17.417  14.990  11.901 -0.1540  0.0197 -0.1353
10315W        W27162   0.653   3.421  11.445  0.4358  0.0472 -0.1169
10316W        W27163  18.082   0.053  10.589  0.0374 -0.0979 -0.3831
10317W        W27164  12.260  15.653   0.850 -0.1493 -0.0531  0.0203
10318W        W27165  16.226   8.597  12.579  0.2768  0.1760  0.1150
10319W        W27166  18.610  17.266   3.558  0.0760 -0.2759  0.2225
10320W        W27167  15.397   1.204   4.316 -0.0214  0.2510  0.0069
10321W        W27168   1.439   0.045   0.767 -0.1463 -0.0654 -0.3227
10322W        W27169  13.523   4.836  11.967  0.1435  0.0103 -0.0640
10323W        W27170   5.485   8.662  11.373  0.1148 -0.2691  0.3339
10324W        W27171  14.906   2.577  11.091  0.1085  0.1518 -0.1711
10325W        W27172  16.790  15.735  14.480 -0.2249 -0.1358  0.1584
10326W        W27173   8.110   7.765  12.651 -0.1461 -0.2453  0.1903
10327W        W27174  11.440  18.095   2.832  0.3609 -0.0798 -0.1677
10328W        W27175  13.618  13.135   3.581 -0.1600  0.1257 -0.1524
10329W        W27176   4.349  17.218  11.305 -0.2264 -0.1093 -0.1655
10330W        W27177  18.795  12.564   4.147 -0.1419 -0.0956  0.2534
10331W        W27178   8.295   3.505  12.077  0.1135 -0.1634  0.2776
10332W        W27179  14.052  13.707  11.806 -0.0935  0.1315 -0.1779
10333W        W27180   6.578   2.835   2.140  0.0364 -0.0493  0.1037
10334W        W27181   6.657   6.175   1.807  0.0751 -0.3353  0.2258
10335W        W27182  14.913   6.494  13.373  0.0611 -0.0212 -0.1592
10336W        W27183   4.557   6.218   2.018  0.3104 -0.3309  0.0486
10337W        W27184   7.857   2.857   0.528 -0.1162 -0.1985 -0.0822
10338W        W27185   6.821  12.292   0.005  0.2654 -0.2304  0.0711
10339W        W27186   9.913   9.853  14.290 -0.0700 -0.3410  0.0216
10340W        W27187   0.766  12.814  15.460 -0.1257 -0.0795  0.2104
10341W        W27188   4.651  15.544  13.049 -0.0301 -0.3753  0.3284
10342W        W27189  10.542  18.661   2.729  0.0700 -0.0221 -0.1373
10343W        W27190   5.814  11.484   0.018  0.0751 -0.1481 -0.0605
10344W        W27191  13.342   6.184  11.738 -0.1979  0.0496  0.2655
10345W        W27192  14.437   0.845  12.090  0.0828 -0.3482 -0.0951
10346W        W27193   0.725  14.661  12.406  0.3895 -0.1098 -0.1239
10347W        W27194   2.572   1.522  13.010 -0.0186  0.0051 -0.3181
10348W        W27195   0.542  11.625   2.075  0.1209 -0.1177 -0.2661
10349W        W27196   9.088  12.044  11.291 -0.0750 -0.2752  0.3571
10350W        W27197  10.288   9.807   4.782 -0.1784 -0.1315 -0.0193
10351W        W27198   2.062   5.454  12.560 -0.0994 -0.3842  0.0907
10352W        W27199   2.464  17.325   0.904 -0.3167 -0.2119  0.0376
10353W        W27200  12.083  13.883   2.110  0.1322 -0.2252 -0.1125
10354W        W27201   1.768  16.660   4.652  0.0227 -0.1437  0.2787
10355W        W27202   3.657  16.594  14.252 -0.0407  0.4082  0.1121
10356W        W27203  12.215   7.315   2.014 -0.0081 -0.3903  0.2412
10357W        W27204   7.267   3.181   1.503  0.0592 -0.2420  0.2976
10358W        W27205  14.475   6.938   5.134  0.2865  0.1349  0.1598
10359W        W27206   5.903   6.998  14.061 -0.1897 -0.0207  0.1671
10360W        W27207   9.666   3.981  13.556  0.2639 -0.2388  0.0646
10361W        W27208   1.105   9.041   2.284 -0.3341 -0.0390 -0.1266
10362W        W27209  10.106  17.114  11.592  0.1660  0.0826 -0.2684
10363W        W27210   9.990  18.020   0.374  0.0330 -0.2117 -0.0743
10364W        W27211   1.876   8.565  13.230  0.2749 -0.1906  0.2252
10365W        W27212  17.700   0.991  12.397 -0.0548  0.1131  0.0799
10366W        W27213  16.880   6.348   0.004 -0.1591 -0.4366 -0.1722
10367W        W27214   7.390  10.199   1.754 -0.0566 -0.1138  0.0070
10368W        W27215  17.993   6.764  11.471 -0.3256 -0.1011  0.1447
10369W        W27216  10.177  14.368   1.172  0.3327  0.0121 -0.2387
10370W        W27217  12.775   9.396  11.814  0.3012  0.0068 -0.1480
10371W        W27218   9.264  15.603   2.306  0.0151 -0.1323  0.0500
10372W        W27219  10.213  11.739   1.207 -0.1904 -0.0053 -0.2158
10373W        W27220  18.800   6.659  15.165  0.0228 -0.0324 -0.0180
10374W        W27221   8.596   3.950  12.890  0.0198  0.0294  0.0238
10375W        W27222  11.114  13.831   2.207 -0.3521 -0.0905  0.1189
10376W        W27223   1.908   8.713   0.004  0.1948  0.0786  0.0910
10377W        W27224   4.585  13.279   0.399  0.0656 -0.1223  0.0903
10378W        W27225   4.504   0.069  15.001 -0.1848 -0.2299  0.0269
10379W        W27226   9.190  17.787  10.997 -0.0717  0.0284  0.0570
10380W        W27227  16.521  14.670   2.451  0.2666  0.1647  0.1349
10381W        W27228   8.609  10.255  11.466 -0.0440 -0.0892  0.0392
10382W        W27229   9.702   9.346   2.101  0.0426 -0.2639  0.0727
10383W        W27230   0.885  11.755  11.482 -0.1245 -0.1188 -0.0504
10384W        W27231   2.972  10.728   1.448 -0.1812 -0.0017  0.3697
10385W        W27232  18.693   7.947   3.527 -0.1570  0.0473  0.1880
10386W        W27233  14.785  10.872   1.319  0.1895 -0.0860  0.0304
10387W        W27234   1.226   1.657  10.740 -0.1003 -0.1637 -0.0397
10388W        W27235   1.739  14.799  11.617 -0.0033 -0.2088  0.0176
10389W        W27236   5.621  11.623   3.258 -0.1675 -0.0992  0.0892
10390W        W27237   0.488  11.196   0.160 -0.1447 -0.0220  0.2592
10391W        W27238  14.925   8.095  13.853 -0.0682  0.0402 -0.0570
10392W        W27239  14.990   8.620  11.310 -0.0507  0.1602 -0.2787
10393W        W27240   0.931  17.378  12.533  0.2258 -0.1094 -0.0447
10394W        W27241  13.953  17.659  12.709 -0.2554 -0.2823 -0.1649
10395W        W27242  10.298  10.150  12.064  0.0910  0.1269  0.0841
10396W        W27243   5.734   1.372   3.153  0.2285  0.0339  0.0512
10397W        W27244   4.031  12.489  12.280 -0.1172 -0.0496 -0.0238
10398W        W27245  12.148  14.892  11.578  0.1708  0.0152 -0.0926
10399W        W27246   1.106  16.285  13.436 -0.0167  0.1071  0.0295
10400W        W27247   2.541   2.215  12.500 -0.0596 -0.1472 -0.1150
10401W        W27248   0.788  10.449   3.543  0.2719  0.0105  0.0845
10402W        W27249  17.456   7.314   5.054 -0.0456 -0.0990 -0.1724
10403W        W27250   4.499   8.923   9.831 -0.0843 -0.1657  0.1870
10404W        W27251   1.529  13.070   4.868 -0.3429 -0.1838  0.0684
10405W        W27252   3.835   0.642   1.205 -0.1298  0.1371 -0.1186
10406W        W27253   5.284  14.156   3.655  0.0044 -0.1888 -0.3255
10407W        W27254   3.180   5.818  11.062  0.1123 -0.0877  0.0077
10408W        W27255   6.393  16.760   4.093  0.2659 -0.1511  0.3710
10409W        W27256   8.702   2.106  11.169  0.1389  0.2103 -0.1196
10410W        W27257   3.195   4.695   1.582 -0.2254 -0.1112  0.2552
10411W        W27258  13.163  13.819  14.660  0.2609 -0.1088 -0.0838
10412W        W27259   0.349   0.900  11.798  0.2722  0.3484  0.1575
10413W        W27260   3.588  15.216  13.535  0.2901  0.0776 -0.0422
10414W        W27261  16.884  10.421  13.474  0.0682 -0.0364  0.1538
10415W        W27262   0.101  16.762  14.662  0.1162  0.1232  0.1899
10416W        W27263  10.901  11.078   4.536 -0.0165  0.1287 -0.2046
10417W        W27264  16.069  17.843  14.647  0.2888  0.0798  0.1233
10418W        W27265  18.170  12.799   0.535  0.2451  0.1316  0.3302
10419W        W27266  14.466  15.126   2.686  0.1486  0.1824 -0.0706
10420W        W27267   8.546   3.538   1.509 -0.0278  0.1305  0.1977
10421W        W27268   5.651   2.635   3.706 -0.2772 -0.0327  0.0831
10422W        W27269  18.686  18.709   0.782  0.0425  0.3040  0.1540
10423W        W27270   9.079  16.703  10.943 -0.2607 -0.0556 -0.0532
10424W        W27271  17.367   4.346   5.646  0.0235  0.0358  0.0779
10425W        W27272  15.841  10.546  15.206 -0.1569  0.2414  0.2373
10426W        W27273   8.248  10.357  10.564 -0.0154  0.2868 -0.0066
10427W        W27274   8.219   9.412   1.675 -0.4469 -0.1318 -0.0613
10428W        W27275   5.150   8.285  10.010 -0.0622  0.1125 -0.2267
10429W        W27276  16.570  16.302  14.572  0.0533  0.2171 -0.0814
10430W        W27277   7.551   5.783   1.868 -0.2652  0.0172 -0.0844
10431W        W27278  17.060   2.843  14.447 -0.0335 -0.1029  0.0047
10432W        W27279  10.590  15.939   2.891 -0.1816  0.0117 -0.2596
10433W        W27280  17.243  18.814   4.468 -0.0690  0.0016 -0.1161
10434W        W27281   5.359  18.600  11.121  0.0747  0.0049  0.2323
10435W        W27282  13.651  13.547   2.797 -0.0728 -0.0161  0.2781
10436W        W27283  16.943   1.300  14.317  0.1040  0.1034  0.0500
10437W        W27284   0.126  15.915   4.462 -0.1549 -0.2030  0.2150
10438W        W27285   5.297  10.622   5.411 -0.0334 -0.0831  0.2682
10439W        W27286  17.319   9.662  12.226  0.0489  0.0805 -0.1622
10440W        W27287  15.204  14.033  14.445 -0.2704 -0.2293 -0.0558
10441W        W27288   1.847  17.819   9.666 -0.3410 -0.2110  0.0960
10442W        W27289  13.584   6.564  13.260 -0.2457  0.0803 -0.2831
10443W        W27290   0.571   7.053   1.448  0.2196 -0.0917  0.1344
10444W        W27291  14.258   4.465  14.607  0.0455 -0.2922  0.0181
10445W        W27292   7.020  18.817   3.135  0.0092  0.0204  0.0518
10446W        W27293   4.012   6.416  15.167 -0.0399 -0.0185  0.0262
10447W        W27294   4.384   1.436  15.503 -0.2528 -0.0857 -0.3390
10448W        W27295  13.239  17.594  14.769  0.0903  0.0191 -0.1509
10449W        W27296   8.676   4.685  11.831 -0.1271  0.0022  0.0725
10450W        W27297   2.644  16.148  14.411 -0.0171 -0.0909 -0.1529
10451W        W27298   5.388  10.419  10.907  0.1789  0.3385 -0.0904
10452W        W27299   4.536   8.781   1.769  0.0258 -0.0264  0.1908
10453W        W27300   1.369   9.402   5.351  0.0044 -0.1920  0.1698
10454W        W27301  17.458  14.174  15.519  0.1182  0.0751 -0.1630
10455W        W27302   8.002   7.403   1.271  0.0094  0.4015 -0.1541
10456W        W27303  13.395   8.757   3.785 -0.2704  0.1035  0.2565
10457W        W27304   3.545   8.401   4.774  0.0013  0.0518 -0.0314
10458W        W27305   4.159   1.164   3.686 -0.0819  0.0641  0.0387
10459W        W27306  17.706   6.385  14.350 -0.0291  0.1421 -0.0842
10460W        W27307   6.872   7.013   1.589 -0.1611  0.0366 -0.0019
10461W        W27308   6.880   5.030  12.866  0.0357 -0.1574  0.3091
10462W        W27309   0.990   0.382  12.738 -0.2046  0.2748  0.1172
10463W        W27310   9.399   8.973   3.682  0.0079  0.0733  0.0096
10464W        W27311   5.889   7.758  14.709 -0.0905  0.1979 -0.1752
10465W        W27312   6.044  17.140   4.294  0.0453  0.2349 -0.1961
10466W        W27313   6.799  15.736   0.503 -0.0692 -0.0833  0.0456
10467W        W27314   6.669   8.876   4.074  0.0078 -0.0623  0.2198
10468W        W27315  18.140  15.427   4.287  0.3417 -0.0244  0.0446
10469W        W27316  16.270   8.505   1.052  0.1481 -0.1753  0.1202
10470W        W27317  15.798  18.796  13.805  0.0179  0.0503 -0.0764
10471W        W27318   2.045   6.467  12.573 -0.2815  0.0078  0.2765
10472W        W27319   8.710   6.467   2.267 -0.0403  0.0434  0.1432
10473W        W27320   1.211  15.777  14.632  0.0514 -0.0258 -0.1328
10474W        W27321  15.761   8.517   3.352 -0.0754  0.1417  0.1056
10475W        W27322   1.437  17.724  13.985  0.1212  0.0090  0.1577
10476W        W27323  12.692   5.788   5.043 -0.0633 -0.1229  0.0832
10477W        W27324   3.548   3.225  13.985  0.0573  0.2452  0.0359
10478W        W27325   3.115   6.709   5.316  0.1975 -0.2416 -0.1126
10479W        W27326   1.964  12.394   1.530 -0.1738 -0.0971  0.3093
10480W        W27327  10.588  12.036  14.922  0.1311 -0.0644  0.1967
10481W        W27328  10.902   5.615  13.680 -0.0821 -0.2623  0.0991
10482W        W27329   9.974   5.044   3.168 -0.0193  0.0855  0.0421
10483W        W27330  10.491  15.044   1.098 -0.1513 -0.0521 -0.0254
10484W        W27331  18.816   2.429  14.280 -0.3168 -0.2105  0.2454
10485W        W27332  11.472  17.617   2.743  0.2513 -0.0053 -0.0899
10486W        W27333  11.525  17.298   3.362 -0.2438 -0.1806 -0.2813
10487W        W27334   5.916   4.279  15.267  0.1614  0.0066  0.1291
10488W        W27335   2.449   6.158   0.130 -0.2439  0.1257 -0.0828
10489W        W27336  10.356  13.295   0.671 -0.1282  0.0478  0.3211
10490W        W27337  14.640   1.312  13.882 -0.0847  0.1700 -0.0403
10491W        W27338   9.667  16.047  12.576  0.0303  0.0474  0.1915
10492W        W27339  18.618  16.825  13.614 -0.1231 -0.4380 -0.1079
10493W        W27340  18.833  11.448  13.256 -0.1978 -0.1621  0.4421
10494W        W27341  11.412  12.218  12.615 -0.0328  0.0857  0.2350
10495W        W27342  12.739   0.415  14.481  0.0238  0.0616 -0.0212
10496W        W27343   5.351   0.803  14.088 -0.0403  0.1355 -0.0440
10497W        W27344   0.568  16.406   2.594  0.0408  0.3321  0.0267
10498W        W27345  13.039  13.698   3.546 -0.2384 -0.0346  0.2364
10499W        W27346   7.462   0.147   2.327  0.0502  0.0798 -0.0916
10500W        W27347   1.076   7.650   5.390  0.2482 -0.2972  0.2206
10501W        W27348  12.599  16.549   4.075 -0.0363 -0.0620 -0.1111
10502W        W27349  13.920  11.796   3.871 -0.1121  0.1205 -0.1984
10503W        W27350   5.294  17.093  14.153  0.3990 -0.0362 -0.2402
10504W        W27351   9.646  18.575   1.501  0.1363 -0.1855 -0.2058
10505W        W27352   7.861   9.113  14.374 -0.0969 -0.1776 -0.1923
10506W        W27353   4.107   2.675   0.744  0.0046 -0.1699 -0.1256
10507W        W27354   1.567  14.405  10.972  0.0400  0.0358 -0.1923
10508W        W27355  17.149   3.748   1.697 -0.1617  0.0057  0.2532
10509W        W27356  16.679  15.772  13.870  0.1376  0.3688 -0.0233
10510W        W27357   2.672   6.686  14.234 -0.2048 -0.3792  0.1718
10511W        W27358  12.189   6.774   2.533  0.0349 -0.0272  0.2011
10512W        W27359  11.978   2.542   3.782  0.1366  0.0975 -0.0345
10513W        W27360  15.869  15.714  14.550  0.1192  0.1257  0.0584
10514W        W27361   9.401  17.019   1.515  0.1444  0.3078  0.0332
10515W        W27362  13.346  17.791   1.729 -0.3449 -0.1061 -0.1980
10516W        W27363  17.506   4.124   3.667 -0.3991  0.2028 -0.1639
10517W        W27364  14.793   1.834   3.326 -0.0641 -0.3084  0.4193
10518W        W27365  13.332  17.174  11.828 -0.1212 -0.2274  0.2467
10519W        W27366  16.353   2.234  10.374  0.0197  0.0511  0.0615
10520W        W27367   1.410  14.970  11.922  0.1430  0.0695  0.3921
10521W        W27368  14.402  18.423   1.634  0.4663 -0.0543 -0.1650
10522W        W27369  12.250  16.463  14.362  0.0381  0.0678  0.1163
10523W        W27370   7.929  17.123   4.055 -0.1228  0.1914 -0.1578
10524W        W27371  16.694   0.143   0.408  0.3398  0.0490 -0.2151
10525W        W27372  18.426   3.802   3.825  0.1661  0.1379 -0.0100
10526W        W27373  16.133   8.689   3.083  0.0961  0.0992 -0.0021
10527W        W27374   9.916  17.306  12.878  0.0106  0.2132  0.1282
10528W        W27375   3.895   5.844  15.271  0.0997 -0.0508 -0.0947
10529W        W27376   9.933   1.544  13.684  0.2970  0.0056  0.0439
10530W        W27377   1.826  11.643  10.975  0.1271 -0.1175 -0.0778
10531W        W27378  15.411  14.275   2.053  0.0087 -0.0327  0.1240
10532W        W27379  16.967   3.827  13.866  0.1521  0.1212  0.0479
10533W        W27380  10.027   9.168  11.214 -0.0321 -0.4311 -0.0771
10534W        W27381  14.679   3.919   1.636  0.1052  0.5368 -0.0070
10535W        W27382   7.728  16.283  14.679  0.0809 -0.2240  0.1008
10536W        W27383  12.630   1.501   1.840  0.0805 -0.1200  0.0982
10537W        W27384   3.707   1.168   3.861 -0.0279 -0.1817  0.3502
10538W        W27385  17.866   3.399   4.225  0.1182  0.1195  0.1159
10539W        W27386  12.965   4.935   5.260  0.1721 -0.1043  0.0616
10540W        W27387  17.895   6.028  13.194 -0.2909 -0.0775 -0.1902
10541W        W27388   4.697  11.264   4.004 -0.0483  0.1628 -0.0876
10542W        W27389  16.214  14.855  12.297 -0.0796  0.0943  0.2429
10543W        W27390   4.619   7.831   3.500  0.3713 -0.0096  0.0609
10544W        W27391  14.378   2.793   2.356 -0.1040  0.1853 -0.3613
10545W        W27392  16.558  12.606   1.935  0.4641 -0.1540  0.0426
10546W        W27393   8.313  16.901  12.976 -0.2800 -0.3071 -0.3357
10547W        W27394  12.256  10.305   0.259 -0.1773 -0.2350  0.1950
10548W        W27395  14.735   2.477  12.047 -0.1457 -0.1219 -0.0778
10549W        W27396   8.790   4.388   2.764 -0.1618  0.2578  0.2387
10550W        W27397  14.063   3.669   2.634  0.1061  0.0558  0.1794
10551W        W27398   9.844   9.112  12.148  0.0519 -0.1644 -0.2697
10552W        W27399  17.749   5.454   0.810 -0.1491  0.0805  0.3707
10553W        W27400   5.467   2.408   2.381  0.0392 -0.1165 -0.0565
10554W        W27401   3.605   6.047   2.349  0.2853  0.1309 -0.1115
10555W        W27402   4.570   3.162   5.861  0.1048  0.0313 -0.0559
10556W        W27403  10.876   0.211   3.606  0.2421  0.1460 -0.0357
10557W        W27404  12.876   2.062  14.228  0.0279  0.3382 -0.0296
10558W        W27405   2.721   5.151  14.979 -0.3100 -0.2085  0.0627
10559W        W27406   2.747   5.576   2.359  0.0071  0.0494 -0.2971
10560W        W27407   0.425  18.553   4.888  0.0670 -0.0460 -0.0594
10561W        W27408  13.817  13.485   0.709 -0.0668  0.0879  0.1311
10562W        W27409  15.972  17.517  11.091  0.0258 -0.1320 -0.0160
10563W        W27410  17.780  16.556   0.706 -0.3541 -0.0765 -0.0797
10564W        W27411  14.684   1.852   5.432 -0.0095  0.0513  0.2289
10565W        W27412  16.382  14.220   4.696 -0.2162 -0.1037 -0.1245
10566W        W27413  14.755  18.100   0.734  0.0179  0.3751  0.1542
10567W        W27414   0.973  10.906  14.050  0.0721  0.5574  0.2253
10568W        W27415  13.587  18.331  14.246 -0.1932 -0.0151 -0.1413
10569W        W27416   0.961   8.047   5.120 -0.0593  0.1066 -0.0055
10570W        W27417  15.484  18.621   4.357  0.0887  0.1812 -0.3040
10571W        W27418   5.857  15.618   2.870 -0.1448 -0.0058  0.2492
10572W        W27419   7.903   8.842  13.848  0.1453  0.1914  0.3226
10573W        W27420   4.535   2.141  12.419 -0.0053  0.0720 -0.1947
10574W        W27421  16.542   7.870   4.270  0.0963  0.0841 -0.2042
10575W        W27422   6.202   1.639  13.698  0.3246 -0.4365 -0.0107
10576W        W27423  14.832  10.063   1.121 -0.1984  0.1251  0.0704
10577W        W27424  13.171   0.542  15.013  0.2348  0.0060  0.0904
10578W        W27425   7.013  11.286   2.119 -0.1733  0.2714 -0.0183
10579W        W27426   3.191  18.702  12.507 -0.1597 -0.1059  0.0513
10580W        W27427  14.810  13.870   5.446 -0.0619 -0.1234  0.0746
10581W        W27428  12.844   8.349   3.193 -0.0600  0.1043 -0.2164
10582W        W27429   6.563  10.717   2.298  0.1743 -0.0103 -0.0561
10583W        W27430   3.316   7.976  12.103  0.0310  0.0218 -0.0873
10584W        W27431  13.033   7.640  14.665  0.1607 -0.1431 -0.1063
10585W        W27432  11.381  16.895   3.128  0.0645 -0.0343  0.1851
10586W        W27433   5.725   6.873  12.223  0.1406  0.1452 -0.0853
10587W        W27434   0.590  11.410   3.905 -0.2819 -0.1435 -0.0950
10588W        W27435   4.165   5.271   1.897 -0.3676  0.0123  0.2515
10589W        W27436  15.766  16.070  13.651 -0.0396  0.1148  0.1986
10590W        W27437  16.475  13.479  13.733 -0.0511 -0.0365  0.3335
10591W        W27438   0.087  14.215  13.439 -0.1163  0.3561  0.1018
10592W        W27439  12.045  18.613   3.562 -0.1852  0.0582 -0.3338
10593W        W27440   5.779  14.505  10.669  0.1769 -0.0931 -0.0218
10594W        W27441  14.601  17.301  12.001  0.2116  0.1823  0.1005
10595W        W27442   3.263  10.535  15.132 -0.2116  0.2718  0.0553
10596W        W27443   3.082   5.982  14.122 -0.1541  0.2640 -0.4709
10597W        W27444  15.274  13.914   3.027 -0.0194 -0.2137  0.5580
10598W        W27445  10.858   6.544   5.708  0.1428 -0.1468  0.1625
10599W        W27446   4.840   3.528   5.552  0.3675 -0.2502  0.2122
10600W        W27447  11.121   7.687  13.442  0.0459  0.2143  0.1529
10601W        W27448  16.621   7.759   3.826  0.1693 -0.1648  0.3047
10602W        W27449  15.491  12.651  14.327 -0.0853  0.2459  0.0665
10603W        W27450  10.645  17.360   2.780 -0.4585 -0.1660  0.0109
10604W        W27451   3.191   0.874   0.212 -0.0523 -0.0885  0.0447
10605W        W27452  13.132  15.976  10.553  0.0592  0.3258  0.1023
10606W        W27453   4.834  15.933   9.598  0.2768  0.0237 -0.2897
10607W        W27454   8.660  18.485   2.358 -0.3512  0.2450 -0.0753
10608W        W27455   9.413   4.704  13.563 -0.1230  0.0414 -0.1581
10609W        W27456   7.320   7.754  13.308 -0.2035  0.2051 -0.4273
10610W        W27457  13.571  18.525  10.346 -0.1142  0.0361  0.0822
10611W        W27458  13.095  11.868  13.705 -0.1536 -0.1597  0.1795
10612W        W27459  18.209  13.559   1.227  0.1544 -0.2108 -0.0842
10613W        W27460  14.169   0.989  13.007 -0.0018 -0.0265  0.0368
10614W        W27461   1.939  15.494  11.160 -0.1476  0.0877 -0.0891
10615W        W27462  10.634  11.054  11.354  0.0634 -0.3580 -0.0226
10616W        W27463   0.821  15.643  11.874 -0.1396  0.2866  0.1483
10617W        W27464  12.014   1.467  12.043 -0.1868  0.0125  0.0540
10618W        W27465   6.694   8.148   3.052  0.3032 -0.0570  0.0298
10619W        W27466  17.311  18.518   0.864  0.1116 -0.0495  0.0133
10620W        W27467   5.174  16.361   0.201 -0.2669  0.1225  0.0248
10621W        W27468   3.802   0.636   2.277  0.0974  0.0117  0.0067
10622W        W27469   6.579   2.451  11.709  0.2857  0.2015 -0.2940
10623W        W27470  16.255  10.988  13.718  0.0833  0.2658  0.2553
10624W        W27471   3.184  12.451   5.449 -0.0456  0.0155  0.0304
10625W        W27472   8.417   3.701  13.461 -0.0556  0.0297  0.0319
10626W        W27473  13.140   2.738  11.624  0.3090 -0.0462  0.1814
10627W        W27474   8.096  13.304  14.664 -0.0693 -0.1693 -0.0805
10628W        W27475   9.862   6.779   3.290 -0.2009 -0.1415 -0.2253
10629W        W27476   3.510  12.168  14.442 -0.0574 -0.0924 -0.2326
10630W        W27477  11.071   2.065   3.511  0.3016  0.0426  0.2168
10631W        W27478   2.080  12.237   0.139 -0.0306 -0.1336  0.0672
10632W        W27479   4.156   8.507   2.621  0.2239 -0.3815  0.0720
10633W        W27480   5.932  14.126   0.176 -0.0562  0.0818 -0.0179
10634W        W27481   8.669   0.427   0.224 -0.2595 -0.0652  0.0803
10635W        W27482  10.935   6.874  12.218  0.1822 -0.0771 -0.4040
10636W        W27483   4.792  10.005  14.701  0.0864 -0.2994  0.0586
10637W        W27484   9.033   5.018  11.952 -0.1180 -0.0443  0.0326
10638W        W27485   8.874   7.276  11.210  0.1178 -0.0269  0.4248
10639W        W27486   2.512  14.127   2.273  0.2259 -0.2019  0.4635
10640W        W27487   1.956   9.079   3.698 -0.0593  0.3934 -0.0252
10641W        W27488  17.184  17.690  10.768  0.0745  0.1167 -0.0208
10642W        W27489  10.254  15.695   5.260 -0.3547  0.2612 -0.0344
10643W        W27490   8.982   9.547  11.669 -0.2649 -0.3509 -0.0518
10644W        W27491   5.858   3.724   0.506  0.0416 -0.3271  0.3210
10645W        W27492   2.153   5.309   0.241 -0.1629 -0.2388 -0.1221
10646W        W27493   7.717   9.341   0.002  0.0702  0.0429 -0.1795
10647W        W27494  13.591  15.795  14.547 -0.1928 -0.1444  0.0504
10648W        W27495   8.350  11.914  14.619 -0.0932 -0.0660 -0.1310
10649W        W27496   6.398  15.981   1.139 -0.1841 -0.1323  0.3611
10650W        W27497   8.535   8.206   3.582 -0.0703 -0.2126 -0.1684
10651W        W27498  15.168   8.297   2.635 -0.0966  0.1200  0.0212
10652W        W27499  14.427   0.240   0.736 -0.1823  0.2700  0.0268
10653W        W27500   1.011   3.676  14.325 -0.1866 -0.4272  0.1042
10654W        W27501   6.010  14.205   3.761  0.1091  0.2241 -0.0756
10655W        W27502  15.709  12.919   2.159 -0.3494  0.1846  0.2929
10656W        W27503   7.633   6.559  11.860 -0.1762  0.1549 -0.0982
10657W        W27504   6.481  10.472   1.163 -0.1323 -0.1144 -0.2396
10658W        W27505   6.611   0.049  10.299  0.2289 -0.1408 -0.1136
10659W        W27506   0.616  13.294  11.018 -0.0180  0.3899 -0.0527
10660W        W27507  15.648  17.239  12.572  0.0599 -0.0876  0.1688
10661W        W27508  15.380   1.449   5.468  0.0111  0.4184 -0.0899
10662W        W27509   8.290  16.511   5.579 -0.0910  0.0349  0.1283
10663W        W27510  15.821   9.697  11.329  0.2183  0.1838  0.1192
10664W        W27511   4.779  17.683  14.215  0.0453 -0.1112 -0.2083
10665W        W27512   4.828   7.303   0.098  0.2485 -0.1400  0.2900
10666W        W27513   0.842  14.173  14.041  0.0133  0.0457  0.4890
10667W        W27514  10.509  14.973   9.735 -0.0189  0.0326  0.0021
10668W        W27515   0.206   3.604  11.659  0.0065  0.2550 -0.1207
10669W        W27516   4.190   8.272  11.661 -0.0425 -0.2792  0.2849
10670W        W27517  15.511  17.784   0.855 -0.1067 -0.1042 -0.3514
10671W        W27518  14.572   3.600  11.328 -0.3825 -0.1240 -0.0269
10672W        W27519  17.529   9.326   0.486 -0.0962  0.0843  0.4605
10673W        W27520   5.166  13.613   3.407  0.1353 -0.0254 -0.0682
10674W        W27521  17.477   1.531   1.536  0.0425 -0.1831 -0.2089
10675W        W27522  18.288   4.226   1.350 -0.0024 -0.1960 -0.3237
10676W        W27523  15.216   4.055  14.260 -0.1261  0.0802 -0.2553
10677W        W27524   2.413  12.827  10.787 -0.0046  0.1641  0.3650
10678W        W27525  13.566   6.889  11.399  0.0036 -0.0469  0.3649
10679W        W27526  14.296   8.155  14.039  0.2678  0.2073 -0.2070
10680W        W27527   3.437   9.140   5.589 -0.0939 -0.2295  0.2028
10681W        W27528  17.034   6.306   3.063 -0.0211 -0.1289  0.1790
10682W        W27529  12.694  13.144   2.195  0.1459  0.1198 -0.1540
10683W        W27530   6.860   2.252   3.762  0.1633 -0.2019  0.2326
10684W        W27531  17.011   5.994   2.407  0.0585 -0.2512 -0.0888
10685W        W27532   2.807   7.780   2.528  0.3020  0.3450  0.1458
10686W        W27533   8.335   1.464   0.437 -0.0478 -0.0228 -0.0186
10687W        W27534  12.915  14.921   3.255  0.1049  0.1315 -0.1721
10688W        W27535  14.673  13.803  15.260  0.2132 -0.1496 -0.1580
10689W        W27536  10.373   9.533  10.344  0.1186  0.2686  0.2503
10690W        W27537  16.325   0.558  10.818 -0.0364 -0.0119  0.1769
10691W        W27538   9.257   5.905   1.282 -0.0135  0.0960 -0.3665
10692W        W27539  17.385  16.490   1.016  0.0222  0.1039 -0.0621
10693W        W27540  18.343  15.401  15.121  0.2102  0.2689 -0.0660
10694W        W27541   6.172  15.086  13.778  0.0588 -0.1539  0.0180
10695W        W27542   9.244  10.602  15.251  0.0358  0.1127 -0.2386
10696W        W27543  13.017   7.916   3.429 -0.3069  0.0671 -0.0666
10697W        W27544   7.697   5.559   3.414 -0.1732 -0.1597 -0.0905
10698W        W27545  11.460   8.901  12.991 -0.0580  0.0671 -0.0607
10699W        W27546   3.586  17.092   3.292 -0.2240 -0.0583 -0.1909
10700W        W27547   3.135   2.471   2.855 -0.0815 -0.2397  0.1392
10701W        W27548   4.640   2.976   2.174  0.0677  0.0167  0.1749
10702W        W27549   6.488   1.855  12.786  0.0955  0.1120  0.2491
10703W        W27550   7.006   5.023   1.654 -0.2358 -0.1726 -0.0204
10704W        W27551   0.700  15.911   0.782 -0.1548  0.0282 -0.2870
10705W        W27552   4.209   8.833  15.140  0.1595 -0.2306  0.1956
10706W        W27553  13.757  12.859  10.985  0.1842  0.2251 -0.2211
10707W        W27554  13.956   4.719   0.260 -0.2722  0.2080 -0.0290
10708W        W27555  12.685   3.534   2.310  0.0697 -0.0395 -0.1841
10709W        W27556   0.987  12.213   5.086  0.1760  0.0728  0.1119
10710W        W27557  17.600   1.134   1.895 -0.0179  0.1454 -0.3073
10711W        W27558   6.967  11.603   3.284 -0.0182  0.0785  0.1156
10712W        W27559  10.649   6.085  13.533  0.0948  0.3453 -0.0854
10713W        W27560  16.609   0.360  15.545  0.1608  0.0813 -0.3126
10714W        W27561   7.956  18.585  10.092  0.1590  0.1355 -0.1772
10715W        W27562   6.278   6.943  10.663  0.0233  0.1245 -0.2912
10716W        W27563   4.909  16.420  11.187  0.2294  0.1302 -0.2377
10717W        W27564  13.394   5.125   5.218 -0.0646 -0.0382 -0.0950
10718W        W27565   0.068   7.889  10.905 -0.0875 -0.1881  0.2328
10719W        W27566  13.204   0.078   1.762 -0.1811 -0.1197 -0.2466
10720W        W27567   9.020   3.743  12.643  0.2042 -0.2031  0.0124
10721W        W27568   3.216   6.847  12.752  0.0300 -0.1397 -0.0246
10722W        W27569   1.649  16.678   0.215  0.1684  0.4694  0.0093
10723W        W27570  13.780  14.094  13.692 -0.2867  0.3440  0.1120
10724W        W27571   9.992  15.404   4.355 -0.1024 -0.0152 -0.2169
10725W        W27572  13.871  12.342  13.672 -0.0268 -0.1192  0.1360
10726W        W27573  17.733   3.277   4.988 -0.2153 -0.0680  0.1206
10727W        W27574  14.448  14.070   2.329  0.3313  0.1785 -0.0874
10728W        W27575   5.136  16.150  13.193 -0.3177  0.0622 -0.0635
10729W        W27576   7.452   6.107   2.706 -0.1248 -0.1619  0.1251
10730W        W27577  12.594   8.806   3.049  0.1557  0.1144  0.0995
10731W        W27578   4.761  13.117  12.272  0.3524 -0.0981 -0.2329
10732W        W27579   9.788   9.036  14.138  0.2307 -0.0312 -0.3084
10733W        W27580   1.116  15.480   1.661 -0.0457  0.3617  0.1504
10734W        W27581   8.822  15.642  11.165  0.2576 -0.1601 -0.0176
10735W        W27582  10.895   1.811  12.030  0.3824  0.0098  0.3854
10736W        W27583   1.415   3.229   0.009 -0.0545 -0.1220  0.0384
10737W        W27584   8.597   4.244   0.060 -0.2420  0.2187 -0.1956
10738W        W27585   0.985   0.816   0.013 -0.2494  0.0335  0.1128
10739W        W27586  12.675  18.529   4.803  0.1875 -0.0388 -0.5033
10740W        W27587  14.417   2.148  15.359  0.0412 -0.0253  0.2510
10741W        W27588  16.080  15.448   2.337 -0.2380  0.0778  0.0473
10742W        W27589   8.446  16.483  13.230  0.0445  0.2996  0.1962
10743W        W27590   2.001   8.872  12.796 -0.1780  0.0453 -0.0481
10744W        W27591   6.345   4.231  10.947 -0.3364 -0.0958 -0.0501
10745W        W27592   4.616  14.793  11.197  0.1162  0.2923  0.2802
10746W        W27593   0.794  13.711   1.838 -0.0323 -0.2634 -0.1639
10747W        W27594   1.157  17.701  14.400 -0.3094  0.1558 -0.1669
10748W        W27595   0.909   4.190  14.286 -0.1472 -0.0555 -0.1431
10749W        W27596  10.549   8.667  13.817  0.1754  0.1888  0.0078
10750W        W27597   1.926  13.970  12.839  0.2374  0.0154 -0.0464
10751W        W27598  13.788   5.654   2.686  0.1935  0.1230 -0.3870
10752W        W27599   8.197  13.984   2.484  0.0521 -0.1699  0.1087
10753W        W27600  11.451   4.227   1.077  0.1055 -0.1092 -0.0660
10754W        W27601   4.858  18.830  12.436 -0.0667  0.1262 -0.3690
10755W        W27602   3.001  13.946   2.796  0.2704 -0.0298  0.4572
10756W        W27603  18.187  16.333   2.020 -0.0458 -0.3038 -0.1809
10757W        W27604   8.557   8.672   9.790 -0.0829  0.1078 -0.2055
10758W        W27605  11.932   3.187  11.936 -0.1789  0.1798 -0.0408
10759W        W27606   3.067  11.892   2.077  0.0184  0.4048 -0.0235
10760W        W27607  10.852   5.301  11.751 -0.0856  0.2444  0.3604
10761W        W27608   1.479   5.532  11.363  0.0755  0.1588 -0.0271
10762W        W27609   7.184   1.429  13.176  0.2711  0.0928 -0.1673
10763W        W27610   0.638   7.873   4.671 -0.0216 -0.2265  0.0565
10764W        W27611   3.265   3.569  10.922  0.2831 -0.0235  0.1873
10765W        W27612   2.529   2.931   0.091  0.0962 -0.4099  0.5310
10766W        W27613  15.265  14.562   0.288  0.0269 -0.0152  0.1964
10767W        W27614   6.388   8.005  11.422  0.0399 -0.2108 -0.0027
10768W        W27615  14.145  14.118   1.428 -0.0277 -0.3384  0.0297
10769W        W27616  14.455   6.839  10.767 -0.0681  0.0151  0.0783
10770W        W27617  10.518  11.341  12.693  0.0666 -0.1583  0.0222
10771W        W27618   2.381  18.802   1.920  0.2284  0.1790 -0.0310
10772W        W27619   6.134  17.032  11.466 -0.1917 -0.0228 -0.0956
10773W        W27620   4.261   0.936  14.583 -0.1619  0.1957  0.1620
10774W        W27621   4.325   3.334   2.318 -0.0769  0.0714 -0.0508
10775W        W27622   3.259   4.098  14.611 -0.1380  0.2818  0.0990
10776W        W27623   4.542  10.434  14.059 -0.3648 -0.0526  0.1857
10777W        W27624  12.981  13.380  12.044  0.2334 -0.2500 -0.0191
10778W        W27625   9.018   1.351  12.645 -0.0512 -0.0324  0.0930
10779W        W27626  12.994   0.921   3.308 -0.1506 -0.2383  0.2591
10780W        W27627  16.913  15.331  12.638 -0.2705 -0.0743 -0.2302
10781W        W27628   1.309   5.789  13.636  0.2002  0.0934  0.5182
10782W        W27629  14.490   2.061  14.412  0.0214  0.1536 -0.2647
10783W        W27630   1.389  17.170   0.178  0.1103  0.1134  0.1627
10784W        W27631  13.991  16.825  11.986 -0.0315  0.1707 -0.2484
10785W        W27632  18.086   8.426   1.404 -0.0129 -0.0102 -0.3399
10786W        W27633   4.424   7.692  14.534 -0.2429 -0.0338  0.0348
10787W        W27634  14.075  18.230  12.124 -0.1432 -0.2272  0.3310
10788W        W27635   2.389   1.451   2.416 -0.1866  0.1796  0.2949
10789W        W27636   5.538  15.939   3.783  0.1400 -0.0815 -0.4408
10790W        W27637   7.087  14.605  11.874  0.2468 -0.2048  0.5074
10791W        W27638  13.463  16.146   0.761 -0.0401  0.0362  0.1187
10792W        W27639  17.583   0.848   2.936  0.1544 -0.0976  0.3587
10793W        W27640  15.083  12.284   0.365  0.0372 -0.3758 -0.4012
10794W        W27641   8.423  12.639  10.929 -0.2851 -0.3447 -0.0002
10795W        W27642  16.913   2.823   4.416 -0.0563 -0.1422  0.0375
10796W        W27643   4.565   5.004   2.721  0.0454 -0.1546  0.0818
10797W        W27644  15.865   5.361  12.447 -0.1567  0.0057 -0.3584
10798W        W27645  11.497   3.218  13.920  0.2357  0.4338  0.0461
10799W        W27646  17.776   6.814   5.645  0.0382  0.0181 -0.3867
10800W        W27647   4.515   4.346   3.160 -0.0491  0.2318  0.1735
10801W        W27648   2.544  14.237  12.430 -0.2388 -0.1749  0.2498
10802W        W27649   9.693   8.925   4.071  0.2238  0.0928  0.0112
10803W        W27650   3.228  11.649  12.665  0.2964 -0.0706  0.0659
10804W        W27651  15.030   7.088  13.959  0.0346 -0.0385  0.4078
10805W        W27652   1.693   6.457  11.338 -0.1743 -0.3615 -0.3098
10806W        W27653   1.313   2.854  12.959  0.0047 -0.1203 -0.1975
10807W        W27654  13.649  17.495  11.566  0.0948 -0.0789 -0.0353
10808W        W27655   6.028  16.271  15.342 -0.0006 -0.1732  0.0677
10809W        W27656   5.885  18.018   2.622 -0.3795  0.1933  0.4684
10810W        W27657   9.684   1.662   1.977 -0.4480  0.0674  0.1582
10811W        W27658  16.079   8.457  15.103 -0.0273  0.0434  0.1970
10812W        W27659  18.426   4.213  13.225  0.1914  0.0985  0.0082
10813W        W27660   0.872   6.043  10.896 -0.0657 -0.1435 -0.2640
10814W        W27661   0.692   1.670   3.932  0.0656 -0.3777  0.1289
10815W        W27662   5.340   5.468  11.969  0.0140 -0.2501 -0.1211
10816W        W27663  11.775   5.524   1.270 -0.1966  0.0961 -0.3552
10817W        W27664   6.235   2.806   2.904 -0.0936 -0.0742  0.1819
10818W        W27665   4.611  10.641  10.510 -0.2304 -0.2202  0.1653
10819W        W27666   8.141  13.098   4.893  0.0505  0.0049 -0.0443
10820W        W27667  10.972   0.736   3.106  0.0185  0.0940 -0.0773
10821W        W27668  15.311  10.755  13.670 -0.0302 -0.0225  0.2248
10822W        W27669  10.629  17.094   3.219 -0.3537 -0.0531  0.0762
10823W        W27670   9.124  14.708  12.108 -0.2051 -0.2363  0.1753
10824W        W27671   3.701   2.723   1.035 -0.1568 -0.1392 -0.1463
10825W        W27672   0.813  13.064  13.236 -0.0802 -0.2623 -0.0791
10826W        W27673  12.032  11.072   0.651  0.1349 -0.0866  0.1141
10827W        W27674   9.017   6.363   2.648 -0.2445  0.2707  0.2190
10828W        W27675  15.475   4.810  12.998 -0.2613  0.0632  0.0057
10829W        W27676   1.794  11.783  13.116 -0.0396 -0.0074  0.0118
10830W        W27677   9.558  16.577  12.450  0.0142 -0.0390 -0.2194
10831W        W27678   0.558   9.571  12.285 -0.1923  0.0016 -0.1381
10832W        W27679   9.201   3.058  11.283  0.3011  0.1920 -0.1120
10833W        W27680   2.431   8.109   1.086  0.0853 -0.1862 -0.0476
10834W        W27681  17.984  12.175   0.094 -0.3539 -0.3510  0.1753
10835W        W27682  15.062  12.223  14.553  0.0364 -0.0188 -0.1505
10836W        W27683  10.954  13.752  11.046 -0.1726  0.6114  0.1726
10837W        W27684  16.324   1.505  11.493 -0.0357  0.4717  0.0772
10838W        W27685   1.136  11.797   3.996  0.0063 -0.0506 -0.0697
10839W        W27686   0.081  10.492   0.918 -0.3304  0.0002 -0.1355
10840W        W27687  16.706   6.259  14.776 -0.0367  0.3177 -0.4185
10841W        W27688   1.220  16.272   3.923  0.0297 -0.2539 -0.1908
10842W        W27689  15.340  11.617   2.563 -0.1267  0.0915  0.0456
10843W        W27690   4.309  10.498   4.542 -0.0844 -0.2960 -0.1637
10844W        W27691   4.310  15.300   1.535  0.0994 -0.0799 -0.0227
10845W        W27692  17.939  17.560  12.971  0.1412  0.0744  0.3599
10846W        W27693   9.179   3.252   4.900  0.0425 -0.1323 -0.1142
10847W        W27694  15.438   1.247  14.165 -0.2931 -0.0437  0.3339
10848W        W27695  11.860   0.017   4.677 -0.0911  0.1786 -0.1384
10849W        W27696  10.303   3.656   0.339 -0.0708  0.0864  0.1478
10850W        W27697   5.171   1.715  13.763 -0.1904 -0.0169 -0.0602
10851W        W27698  10.177   2.564  12.031  0.0198  0.2122  0.0081
10852W        W27699  14.251  11.049  12.624  0.0129 -0.4589  0.0390
10853W        W27700   4.729   9.596  13.105  0.0611  0.0256 -0.2080
10854W        W27701  14.150   7.537  13.085 -0.0604 -0.2203 -0.1118
10855W        W27702   7.430  14.215  12.011 -0.3473  0.3431 -0.2990
10856W        W27703   6.140  12.708  15.153  0.1751  0.0114  0.0229
10857W        W27704  18.678   9.716   1.659  0.1569  0.2853 -0.3405
10858W        W27705  15.389   8.902   1.049  0.4504 -0.1718  0.1031
10859W        W27706   4.059  12.115  15.071 -0.0699  0.0268 -0.4998
10860W        W27707   4.053   8.510   1.672 -0.3031  0.2340 -0.1866
10861W        W27708   6.269   5.060   1.609  0.1916 -0.1971 -0.0882
10862W        W27709   9.935  13.729   4.541 -0.2125  0.1092 -0.2510
10863W        W27710   4.567  14.065   4.280 -0.1348 -0.1132 -0.0400
10864W        W27711  13.704  15.987  11.345  0.2963 -0.2831  0.0978
10865W        W27712  16.283   0.284   1.141 -0.0831 -0.1679  0.1768
10866W        W27713   5.263   9.946  10.925  0.1369 -0.1582 -0.0889
10867W        W27714  13.339   7.600   4.618 -0.0976 -0.0021  0.0380
10868W        W27715  14.036   6.864  12.032  0.1486  0.1092  0.0772
10869W        W27716   9.684  14.283   3.612  0.2490 -0.0796  0.1886
10870W        W27717  10.336   3.502  12.341 -0.1169 -0.2897 -0.0405
10871W        W27718   0.870   0.001  11.215 -0.0488  0.0137 -0.2319
10872W        W27719  12.849   5.165   0.887 -0.0264  0.1955  0.0482
10873W        W27720  18.765  15.351   5.285 -0.1470 -0.0365 -0.2478
10874W        W27721  18.044  11.068   3.620 -0.0947 -0.0688 -0.0935
10875W        W27722  12.543   8.270  11.056  0.1616 -0.1825 -0.3163
10876W        W27723   0.676   2.922   5.465 -0.1307 -0.0154  0.2927
10877W        W27724   9.244   1.945  13.289 -0.0261 -0.0384  0.0746
10878W        W27725   2.360  13.974  11.880 -0.1226  0.2951 -0.2456
10879W        W27726   4.050  17.664   0.889 -0.1441 -0.1736  0.2083
10880W        W27727   6.020   1.651  11.463 -0.0140  0.0274 -0.0007
10881W        W27728  10.388  10.588   2.746 -0.1465 -0.0745  0.1555
10882W        W27729   1.242   1.120  15.209  0.0511  0.3082  0.0384
10883W        W27730   9.796  17.940   0.807  0.2109 -0.0866 -0.2579
10884W        W27731   7.115  14.983  12.779  0.1449 -0.2325 -0.1597
10885W        W27732   5.700   7.651  15.525 -0.0010  0.1790  0.0642
10886W        W27733  14.944  13.745  14.008 -0.1245  0.3625 -0.1343
10887W        W27734   0.257  17.533  13.951  0.0287  0.3189  0.1219
10888W        W27735   2.638   8.394   2.692 -0.0540  0.1299 -0.1925
10889W        W27736  16.958  16.641   0.831 -0.2410 -0.0949 -0.0777
10890W        W27737   2.244   0.004  12.877 -0.0489  0.0888  0.0556
10891W        W27738   1.318  18.544  14.573  0.0511 -0.1997  0.2342
10892W        W27739   7.308   6.988   2.494 -0.1860  0.0515  0.0394
10893W        W27740   0.452  13.924  14.321  0.0742  0.2023 -0.1211
10894W        W27741   3.908  17.833  13.443 -0.0832 -0.0459  0.0259
10895W        W27742   9.363   9.780   1.938  0.0281  0.0427 -0.0823
10896W        W27743   0.857  16.594   1.079 -0.0816 -0.1034  0.1304
10897W        W27744  10.939  18.535   5.291  0.0950  0.0163  0.0778
10898W        W27745   1.339  18.356   4.375 -0.0746  0.0981 -0.1723
10899W        W27746  18.289  10.818   0.707  0.1587  0.1952  0.0067
10900W        W27747  12.039  17.961  14.613  0.1387  0.0567 -0.0559
10901W        W27748   8.569   7.744   0.504 -0.2606 -0.0342  0.1674
10902W        W27749  10.831   8.776  11.222  0.2010  0.3064  0.3619
10903W        W27750  14.594  13.262   1.558 -0.1483 -0.1716 -0.0653
10904W        W27751  10.978   9.932   9.802  0.4043  0.2028 -0.1966
10905W        W27752  12.081   6.958   1.746 -0.1176  0.2435  0.1644
10906W        W27753   0.716   6.915  15.458  0.2448 -0.0535  0.0922
10907W        W27754   4.915   1.306  11.177 -0.3706 -0.1878 -0.1933
10908W        W27755  10.938  16.504  14.668 -0.0363 -0.2053 -0.0083
10909W        W27756  13.498  15.761   2.950  0.0523  0.1697 -0.3266
10910W        W27757   3.344  17.440   1.339  0.1709  0.4953 -0.2440
10911W        W27758   8.011  13.564   3.110  0.0697  0.0711  0.2582
10912W        W27759  11.321   7.049  12.486  0.3064 -0.2406  0.1361
10913W        W27760  14.903   3.820  11.703  0.1212 -0.0909  0.0451
10914W        W27761   7.558   7.995  12.936 -0.3281  0.0898  0.2443
10915W        W27762  13.057  11.245   3.942  0.3131  0.0520  0.0839
10916W        W27763  14.894   4.796   3.612  0.1113  0.0191 -0.1846
10917W        W27764   6.757   8.650  10.552  0.1548 -0.2282 -0.4049
10918W        W27765  15.811   4.326   2.842 -0.1038 -0.2779 -0.0393
10919W        W27766  17.992  12.329   0.988  0.1542  0.0150 -0.0648
10920W        W27767   6.490   4.740  14.152 -0.2082 -0.0982  0.0008
10921W        W27768  11.898  16.382   0.683  0.0111  0.0399 -0.3170
10922W        W27769  18.336   8.039  12.918  0.1544 -0.0742  0.2186
10923W        W27770  15.318  17.636   1.270 -0.0362 -0.4773 -0.1587
10924W        W27771  18.265   6.798  13.121 -0.0921  0.3332  0.0170
10925W        W27772  16.118   6.481   3.201  0.0495  0.1426 -0.2671
10926W        W27773   9.628   9.748  10.617  0.1655  0.1172  0.0625
10927W        W27774  15.222  18.487  12.785  0.2085 -0.5153 -0.0703
10928W        W27775  17.129   8.586  13.594  0.3595 -0.3695 -0.2608
10929W        W27776  17.887   8.198   5.436  0.0821  0.0715 -0.0849
10930W        W27777   1.233  14.583  10.464 -0.1507 -0.2583  0.2074
10931W        W27778  16.479  11.159  14.656 -0.2090 -0.0835 -0.2024
10932W        W27779  14.435  13.450   3.674  0.0406 -0.1131 -0.3719
10933W        W27780   1.345  10.521   4.581  0.0366  0.0114  0.0103
10934W        W27781  15.152   3.283  13.256 -0.1996 -0.1755 -0.0155
10935W        W27782   4.321   6.706  11.338  0.2008 -0.0739  0.0635
10936W        W27783   8.803   1.250   4.269  0.2312 -0.1319  0.0602
10937W        W27784   9.981  10.912  14.530  0.0028 -0.0559  0.0381
10938W        W27785   9.512  15.629   0.739  0.0316  0.0426  0.0407
10939W        W27786  10.288  15.424  10.605 -0.1771  0.0139  0.1441
10940W        W27787   8.716   2.355  14.429  0.3377  0.0216  0.2245
10941W        W27788  13.924  15.131  13.022  0.1179 -0.2739 -0.1315
10942W        W27789  11.433  16.983  14.127  0.0574 -0.2672  0.0889
10943W        W27790  17.841  14.956  15.034 -0.7432  0.2793  0.1649
10944W        W27791  12.736  12.024   1.757  0.0311 -0.2808  0.1257
10945W        W27792  13.136   9.248   4.613  0.2607 -0.2077 -0.0231
10946W        W27793  17.014   8.209   5.059 -0.0077 -0.1137  0.0568
10947W        W27794  14.013  15.667  14.266  0.2929 -0.0091  0.2109
10948W        W27795   4.242  12.222  12.820  0.0876  0.0732 -0.2452
10949W        W27796   5.175   5.700   1.153 -0.2037  0.2996 -0.1171
10950W        W27797   9.959   7.847  15.009 -0.4550  0.2248  0.0920
10951W        W27798  15.403   3.962  11.654 -0.1590 -0.1396 -0.0098
10952W        W27799  13.479  18.608   5.180 -0.2533 -0.1426  0.1295
10953W        W27800   0.049  17.758   3.612  0.0116  0.0038 -0.2841
10954W        W27801  16.580   9.778   4.244  0.0779 -0.0480 -0.3193
10955W        W27802   6.755   3.142   0.382  0.1371 -0.0340 -0.0841
10956W        W27803   2.461  13.650  14.671  0.0783 -0.0972  0.0547
10957W        W27804  15.876  11.894  11.453 -0.1175  0.1285  0.0403
10958W        W27805   0.307  15.108  13.682 -0.1329 -0.0575 -0.4759
10959W        W27806   6.591   1.564   1.563  0.2859  0.0859  0.1293
10960W        W27807  11.469  13.236   3.388 -0.0022  0.0545  0.1367
10961W        W27808   1.222  10.280   3.364 -0.1642  0.1372 -0.6290
10962W        W27809   1.605   8.718   4.558 -0.2401  0.0547 -0.3673
10963W        W27810  18.403   4.694   2.178 -0.0082  0.2445 -0.0845
10964W        W27811   3.606  16.923  13.410  0.2341  0.0107  0.2123
10965W        W27812   6.421  16.962   1.113 -0.2261 -0.0444  0.0233
10966W        W27813   6.423   1.860  13.333 -0.0480 -0.1696  0.3159
10967W        W27814  16.665  13.308   4.599 -0.1676  0.0577  0.2577
10968W        W27815   3.013   3.611  15.198  0.4815  0.0904 -0.1568
10969W        W27816  17.372   6.751  13.475  0.1284 -0.0452  0.3261
10970W        W27817   0.138  14.670  13.816 -0.2029  0.1603  0.1638
10971W        W27818   7.211  17.227   5.110  0.0042 -0.0605  0.3193
10972W        W27819  11.806   8.797   3.547  0.1456 -0.2208  0.0712
10973W        W27820  10.729  12.479  14.635 -0.0232  0.2215 -0.1277
10974W        W27821  16.913   1.105  12.780  0.0843  0.0191 -0.0605
10975W        W27822   5.801  11.804   4.281 -0.0329  0.4726 -0.0037
10976W        W27823   1.823  12.270  10.471  0.0355 -0.0295 -0.0199
10977W        W27824   2.441  14.823  11.757 -0.3189 -0.1497 -0.3635
10978W        W27825   6.358   9.851  13.797 -0.1047  0.0736  0.0045
10979W        W27826   5.875   2.823   0.716 -0.1215 -0.2352 -0.1541
10980W        W27827   9.734  16.198  11.545  0.0207  0.1398 -0.1590
10981W        W27828  18.059  16.477   4.463 -0.3239  0.1596  0.0115
10982W        W27829   1.342  13.628   4.790  0.0078 -0.1401 -0.0350
10983W        W27830   0.390   8.253  11.060  0.1586 -0.1643  0.0784
10984W        W27831   2.649   9.416   2.556  0.1577 -0.0514  0.1512
10985W        W27832  17.040  14.512   3.955  0.3205 -0.0676  0.0777
10986W        W27833   9.733   8.866   1.998  0.0003 -0.0658  0.3852
10987W        W27834   5.111   3.741   1.869 -0.1002 -0.1218  0.0362
10988W        W27835   7.527  10.006  11.390  0.0784 -0.0608 -0.0291
10989W        W27836  13.461  13.645   5.839  0.0785 -0.2406 -0.1326
10990W        W27837  15.568  14.525  13.995  0.1431  0.1987  0.1979
10991W        W27838  11.821  12.561  12.523  0.0787  0.1261 -0.0276
10992W        W27839  12.089   7.222  14.578 -0.1534  0.1682  0.0361
10993W        W27840   8.578  11.215   2.968  0.1278 -0.0559 -0.1884
10994W        W27841   9.829   3.823   1.354  0.2476 -0.0041 -0.2730
10995W        W27842   6.360   9.648   3.533  0.1433 -0.0064 -0.4189
10996W        W27843   3.347   0.649  13.719  0.0122  0.0180  0.0044
10997W        W27844  11.643  11.481   1.426 -0.0847  0.0964  0.1527
10998W        W27845  11.710  12.147  14.945  0.1277  0.0396  0.2507
10999W        W27846   3.461  12.059   3.353  0.1842 -0.4131 -0.2511
11000W        W27847  10.392   8.457   3.683  0.1258  0.0887 -0.3092
11001W        W27848  13.364   6.114  13.232 -0.0921  0.2628 -0.1336
11002W        W27849  17.715   8.593   0.668  0.1340  0.1455 -0.0835
11003W        W27850  15.132  15.851   4.437  0.1396 -0.2563 -0.1502
11004W        W27851   9.224  11.286  12.540 -0.1634 -0.0469  0.0824
11005W        W27852   5.503   9.966   3.410  0.2625 -0.0114 -0.1257
11006W        W27853   7.009   6.776  14.005  0.1550  0.1358 -0.1626
11007W        W27854   7.362  10.290   0.837  0.0952 -0.1251  0.2277
11008W        W27855   9.073  17.223   3.361 -0.2428  0.1796 -0.1475
11009W        W27856  16.700  13.039  13.577 -0.3505  0.0374 -0.1917
11010W        W27857   9.741   2.319  11.970  0.1621  0.2020  0.0952
11011W        W27858  16.429   2.248  11.398 -0.1205  0.0307  0.1071
11012W        W27859   5.639   8.901   5.110  0.1678  0.3437 -0.1772
11013W        W27860  10.360  10.383   1.452 -0.1170 -0.2112  0.2068
11014W        W27861  13.028  10.684   2.322  0.2996  0.0227 -0.0859
11015W        W27862   1.241   7.881  11.415 -0.0633  0.2089  0.3932
11016W        W27863  18.274   1.631  13.947 -0.0716 -0.1152 -0.4711
11017W        W27864   4.563  10.388  15.361  0.1307  0.0806  0.0552
11018W        W27865  14.395   9.216  13.623  0.2105 -0.1188  0.2392
11019W        W27866   6.417   8.685   0.183  0.3688  0.1870  0.0504
11020W        W27867   8.353   7.022  13.924 -0.1481  0.1514  0.0250
11021W        W27868   2.196   5.055  12.810  0.0281 -0.1859 -0.1738
11022W        W27869  16.711   1.817  11.341  0.1847  0.0269  0.0877
11023W        W27870  11.295   8.543   4.746 -0.1773  0.1967  0.0380
11024W        W27871   7.033   5.635  14.229 -0.2024 -0.0505 -0.0787
11025W        W27872   1.656  13.885  11.107  0.0091  0.1369  0.1526
11026W        W27873  12.902   4.508  13.434  0.0371 -0.2641  0.2456
11027W        W27874  12.915  14.134  12.485 -0.0760  0.2366 -0.2127
11028W        W27875   1.671   1.103   0.118 -0.3356 -0.1729 -0.0159
11029W        W27876   9.602   7.641  13.069 -0.1761  0.1173 -0.1505
11030W        W27877   5.471   5.393   5.649 -0.0192 -0.0119  0.6687
11031W        W27878  16.519  14.037   1.022  0.0179 -0.0315 -0.3225
11032W        W27879  10.599   3.945  12.092 -0.1212  0.3889 -0.1649
11033W        W27880  13.078   8.902   2.932 -0.0912 -0.0783  0.1760
11034W        W27881   6.715  18.662   4.979 -0.1623 -0.0253 -0.0172
11035W        W27882  15.656   2.789  11.531 -0.0949 -0.3378 -0.0027
11036W        W27883   0.587   5.420  14.589  0.0366  0.2863 -0.3946
11037W        W27884  15.125   0.119  10.776  0.0909  0.0947  0.1277
11038W        W27885   3.516  18.559   0.128 -0.0129  0.1320  0.0762
11039W        W27886  11.804   8.329   1.909 -0.0052  0.1936  0.2039
11040W        W27887   7.174   7.297   0.644  0.2785 -0.2183 -0.0703
11041W        W27888  18.015  13.048   1.432 -0.2215 -0.1090  0.0329
11042W        W27889   3.807   7.847  11.630  0.1537 -0.2809 -0.2372
11043W        W27890   1.794   1.885   0.648  0.2017 -0.1426 -0.2316
11044W        W27891  10.739  12.811   3.091  0.1633 -0.1139 -0.1566
11045W        W27892  15.701  10.368  13.280 -0.1820 -0.1530  0.0210
11046W        W27893   8.967   5.325   5.637  0.0435 -0.0708 -0.2323
11047W        W27894   4.064   7.089  13.857  0.0359 -0.1582  0.0122
11048W        W27895   4.626   9.067   0.838 -0.0232 -0.2969  0.2984
11049W        W27896   2.103  15.627  10.557 -0.2049 -0.0318  0.1433
11050W        W27897   0.494  11.048  10.965 -0.0901 -0.1594  0.0144
11051W        W27898   9.995  10.999  15.038  0.0184 -0.1605  0.0779
11052W        W27899  11.580  15.809  14.859 -0.1046 -0.1380 -0.1545
11053W        W27900  11.110   8.485  12.947 -0.3055 -0.0467  0.1243
11054W        W27901   1.519  11.989  11.457  0.0285  0.1705 -0.3004
11055W        W27902   1.391   0.158  14.010  0.0293 -0.1295  0.0497
11056W        W27903   8.995  15.635  13.530  0.1550  0.0221  0.1965
11057W        W27904  10.668   9.513   3.128  0.4254 -0.0902  0.2028
11058W        W27905  18.288   0.443   3.033  0.4944  0.1913  0.2702
11059W        W27906  18.174  13.710   5.015 -0.1370 -0.2864 -0.0977
11060W        W27907  13.254   3.565  12.576 -0.0751  0.2637 -0.1942
11061W        W27908  15.761   6.169  11.153 -0.1309  0.0385 -0.1805
11062W        W27909   0.340   3.207   4.070  0.1463  0.0249  0.1132
11063W        W27910   8.285   0.288   1.372  0.0087  0.1319 -0.1346
11064W        W27911  16.050   0.129  14.312 -0.3061 -0.3913 -0.3201
11065W        W27912  15.634  10.158   4.206  0.0618 -0.0369  0.1457
11066W        W27913  15.761   5.823  12.289  0.1445  0.3011 -0.1351
11067W        W27914   6.009  18.422   1.819  0.1642 -0.0171 -0.1159
11068W        W27915  17.074   4.516   2.024  0.0796  0.0780  0.1675
11069W        W27916   0.450  14.901  15.154  0.1351  0.1089  0.0851
11070W        W27917  14.870  14.192   1.800 -0.2349  0.2810  0.1767
11071W        W27918   1.795  15.267   0.693 -0.1531 -0.0825 -0.0457
11072W        W27919   6.711  10.373   3.298 -0.0678 -0.0259 -0.1359
11073W        W27920  11.491   2.391  13.224 -0.0700 -0.1750  0.0791
11074W        W27921  10.342  14.396   4.260 -0.1765  0.3347 -0.0183
11075W        W27922  10.629  17.576  14.847 -0.3334  0.2032  0.1005
11076W        W27923  13.255  13.162   2.015  0.0122  0.1721 -0.0005
11077W        W27924   4.792   3.397   4.181 -0.0764  0.0081  0.0015
11078W        W27925   4.368  11.824  13.142 -0.4044  0.0458 -0.1045
11079W        W27926   8.831   8.174  10.860  0.0705 -0.1758  0.0029
11080W        W27927   5.758  17.230  14.315 -0.2150 -0.0305 -0.0898
11081W        W27928   5.345  16.746   4.060  0.2071 -0.1371  0.0371
11082W        W27929   6.045  12.881  11.219 -0.0188  0.2508 -0.1191
11083W        W27930  13.189  14.382   3.909  0.1770 -0.3790  0.1768
11084W        W27931  10.471   5.839  14.348 -0.2794 -0.0513  0.0752
11085W        W27932   5.795  18.521  10.512  0.0273 -0.0346  0.1766
11086W        W27933   3.351  17.899   4.830  0.0593  0.2609 -0.2259
11087W        W27934   7.874   1.872   2.536 -0.0917 -0.0125  0.3759
11088W        W27935   5.454  16.250  12.819  0.1172 -0.0313 -0.2220
11089W        W27936  10.969  15.065  11.773  0.0439 -0.1682 -0.0830
11090W        W27937   9.655   6.572  14.332  0.0442 -0.1108 -0.1632
11091W        W27938  12.566   4.154   1.062 -0.0815 -0.1997  0.3462
11092W        W27939   5.944   5.859  12.022  0.0925  0.0968 -0.1393
11093W        W27940   2.342   6.468  15.221  0.0869 -0.0439  0.0203
11094W        W27941  16.206   7.539  12.216  0.4041  0.0996  0.2614
11095W        W27942   0.570   0.400   3.396  0.1255 -0.0369  0.1859
11096W        W27943   0.033   5.401   2.381  0.1168 -0.0793 -0.1858
11097W        W27944   1.840  12.634   4.891 -0.0856 -0.4141 -0.0213
11098W        W27945  10.385   2.581   1.639 -0.0440 -0.0463  0.1217
11099W        W27946   8.272  14.321  11.700 -0.0252 -0.2184  0.0463
11100W        W27947  10.188  12.712   2.525  0.0912 -0.1893 -0.3321
11101W        W27948   9.328  12.959  10.937  0.1688 -0.0815  0.0743
11102W        W27949   7.704  17.828   0.301 -0.1647 -0.2185  0.1724
11103W        W27950   9.860  16.952  15.527 -0.1228  0.1142 -0.4236
11104W        W27951  18.660   5.247  15.360  0.1140 -0.1301  0.0126
11105W        W27952  15.815  12.932  14.716 -0.2118  0.2821  0.1975
11106W        W27953   8.291   0.998   1.118 -0.1594  0.0722 -0.0456
11107W        W27954   6.525  12.518  14.482  0.0590  0.0070  0.6210
11108W        W27955  10.470  13.040   1.299 -0.0855  0.2638 -0.0775
11109W        W27956   8.249  14.711   4.445  0.0986  0.1501  0.1306
11110W        W27957  13.166  10.306  14.539 -0.1541 -0.2649  0.2069
11111W        W27958  18.354   3.843  11.629 -0.1391 -0.2877  0.0265
11112W        W27959   4.756  10.408   2.324 -0.1807 -0.0847  0.0111
11113W        W27960  10.347  10.268   5.021 -0.0988 -0.1738 -0.1365
11114W        W27961   4.212   1.980  11.090 -0.3532 -0.3090 -0.1587
11115W        W27962  15.017   3.152   3.828 -0.1314  0.0667 -0.0247
11116W        W27963   8.758   6.413  13.762 -0.0202  0.1030  0.1258
11117W        W27964  14.955   8.176   1.226 -0.1396 -0.0349 -0.3165
11118W        W27965  14.983   4.982   0.167  0.0154  0.0402  0.0736
11119W        W27966  10.462  14.643  14.363  0.0717 -0.2534  0.0628
11120W        W27967   2.068  16.119   0.172 -0.0569  0.0927 -0.0121
11121W        W27968   1.580   8.833   2.914 -0.3656  0.0630  0.0880
11122W        W27969  13.356  12.431  15.237  0.3634 -0.2607 -0.0960
11123W        W27970   1.541   8.866   3.408 -0.0244 -0.2971  0.0805
11124W        W27971  13.424   4.760  11.474 -0.0807  0.0407 -0.2148
11125W        W27972   0.556   1.317   3.639 -0.0900  0.2643 -0.1555
11126W        W27973  12.627  11.514   4.494  0.1717 -0.1804 -0.1889
11127W        W27974  15.664   1.901  11.395  0.0333  0.0668 -0.0149
11128W        W27975  11.030  10.357  13.033  0.3171  0.2054 -0.0157
11129W        W27976  11.099   4.309   5.604  0.1146 -0.0925 -0.0602
11130W        W27977  13.609   5.047   1.972 -0.1074 -0.2757  0.0179
11131W        W27978   9.563   4.633   0.929 -0.0883  0.2408 -0.2285
11132W        W27979   4.658   2.394  13.383  0.1437  0.1110  0.0288
11133W        W27980   6.817  14.159  15.528  0.2111 -0.0089 -0.0803
11134W        W27981  16.797   5.376  12.619  0.2217  0.1187 -0.1237
11135W        W27982  16.322  16.941  12.867  0.0860 -0.1869  0.0361
11136W        W27983   5.535  13.342   2.612 -0.0186 -0.0707 -0.2672
11137W        W27984   4.915  16.779   0.001 -0.3184 -0.2940  0.1239
11138W        W27985   1.151  12.792  11.509  0.2997 -0.1158 -0.0033
11139W        W27986   9.475   4.516  15.229 -0.0258  0.0937 -0.0801
11140W        W27987   5.313  12.041   1.045 -0.1988  0.1717  0.2828
11141W        W27988  14.440   7.675   0.193  0.1378  0.0256  0.0802
11142W        W27989  10.258  16.433   0.686 -0.2028 -0.2769  0.0641
11143W        W27990  13.117  15.020  12.228 -0.1299 -0.0255  0.0734
11144W        W27991   6.264   1.158  13.449  0.1837  0.0644 -0.0614
11145W        W27992   4.475   1.654   3.262  0.0316  0.1262  0.0706
11146W        W27993  12.598   0.795  10.523  0.0802  0.1268  0.4462
11147W        W27994   4.656  15.935   1.036  0.0167 -0.0331 -0.1240
11148W        W27995   0.450  12.333   0.489  0.2712  0.3394  0.0390
11149W        W27996   9.968   4.272  12.741 -0.0174  0.1188  0.3796
11150W        W27997  17.983   6.549   3.671  0.2205 -0.0179  0.1357
11151W        W27998   2.223  17.538  14.574  0.1531 -0.1599 -0.3109
11152W        W27999  13.016   9.045  12.005 -0.2492  0.1596  0.2015
11153W        W28000  14.481  13.335  10.517 -0.0778  0.4015 -0.0384
11154W        W28001   7.145  12.420   0.984 -0.3573 -0.1104 -0.2468
11155W        W28002   1.671   9.682   1.369 -0.1183  0.0637  0.0802
11156W        W28003  15.133  12.273  13.016  0.1783  0.0586  0.2431
11157W        W28004   0.259   5.145   1.490 -0.2134 -0.0118 -0.0587
11158W        W28005   2.984   4.560  15.306 -0.2143  0.0996  0.1778
11159W        W28006  10.813   0.493  13.505  0.1525  0.1187 -0.0742
11160W        W28007  11.085  10.533  10.696 -0.1039 -0.0563  0.0823
11161W        W28008   7.771   1.042   1.108  0.0020 -0.2847 -0.1889
11162W        W28009   7.482   6.380   1.709 -0.1668 -0.2824  0.3640
11163W        W28010   1.018   9.975   2.525  0.3748 -0.0260 -0.0802
11164W        W28011   4.015  10.000   3.143 -0.1226 -0.0988  0.2038
11165W        W28012  18.375   7.834   1.504  0.0024  0.3674  0.1280
11166W        W28013   0.834  10.374  12.938 -0.1566 -0.1180  0.2286
11167W        W28014   1.605   3.381  13.477  0.6161 -0.4346 -0.0299
11168W        W28015   6.676  11.015  11.717 -0.1309  0.1965  0.0099
11169W        W28016   9.267   9.335   1.254  0.1746  0.0224 -0.1630
11170W        W28017  13.314  12.111  12.472  0.1489  0.2598 -0.1096
11171W        W28018   9.837  17.176   2.206  0.2783  0.1273 -0.1630
11172W        W28019  16.654  14.456  12.071  0.0021 -0.0077  0.1200
11173W        W28020  14.023  14.853   0.028  0.1815 -0.0981  0.0397
11174W        W28021  14.772   5.603  13.677 -0.1013  0.1040  0.4872
11175W        W28022  13.246   9.926   3.233  0.1407  0.0453  0.2054
11176W        W28023  15.972   5.820  10.908 -0.0370  0.0073 -0.2557
11177W        W28024   9.119  12.334   1.843 -0.0095  0.0917  0.0531
11178W        W28025   0.367  13.340   0.583  0.2334  0.2255  0.0653
11179W        W28026  16.739  15.092   1.192 -0.2031  0.2123  0.1398
11180W        W28027   5.285  11.257   1.173 -0.1660  0.1855 -0.0340
11181W        W28028  13.656   2.161   0.324 -0.0822 -0.0596 -0.1839
11182W        W28029   4.766   8.061  13.076 -0.0584  0.0447  0.2235
11183W        W28030   2.973  11.971  10.079 -0.1704  0.0003  0.3625
11184W        W28031   8.575   8.364  14.960  0.1711  0.0261 -0.0611
11185W        W28032  12.876  15.225  14.881  0.0755  0.3616  0.3473
11186W        W28033  14.213   5.655  15.459 -0.1302 -0.0065  0.0230
11187W        W28034  11.846   1.556  13.534 -0.3889  0.0293 -0.0129
11188W        W28035  11.074  17.407   3.057 -0.0481 -0.2413 -0.1045
11189W        W28036   8.629   8.338   9.413  0.3839  0.3192 -0.1545
11190W        W28037   7.900   0.966  14.179  0.1461  0.1473  0.0414
11191W        W28038  10.796   0.335   2.862 -0.0229  0.0539  0.0430
11192W        W28039   2.918  14.079  13.970  0.0676 -0.0244  0.0985
11193W        W28040   6.317   6.896  13.642 -0.0108  0.2640 -0.1689
11194W        W28041  10.422   9.045   1.435  0.1666  0.2792  0.0774
11195W        W28042   2.166   2.176   0.838  0.1996 -0.0104 -0.0553
11196W        W28043   4.778   6.652   3.198  0.0557  0.0687  0.0820
11197W        W28044   7.794   5.822  14.512  0.0382 -0.3106  0.2298
11198W        W28045   0.723   4.386  12.224  0.1813  0.0009  0.0899
11199W        W28046  12.368   2.362  11.368  0.0218  0.0586 -0.1465
11200W        W28047   6.380   3.416   0.025 -0.2088 -0.0742  0.0668
11201W        W28048  16.326   7.018   3.216 -0.0365 -0.1583 -0.2131
11202W        W28049   0.646   4.911   3.585 -0.0830 -0.2248  0.0692
11203W        W28050   0.541   1.511   1.773 -0.1183  0.2083 -0.1173
11204W        W28051  13.150   5.851  10.944 -0.0742  0.1934 -0.2867
11205W        W28052  11.320  14.231   1.890  0.2482 -0.0093  0.0422
11206W        W28053   5.865   1.116   4.944  0.0599 -0.1336  0.0145
11207W        W28054   5.405  15.951   0.992  0.1377  0.2608 -0.4507
11208W        W28055  11.923  15.087   1.630 -0.3171 -0.3711  0.0549
11209W        W28056  16.378   7.789   2.515 -0.3527  0.2927  0.2008
11210W        W28057  12.892  12.182   0.062 -0.0750 -0.0618 -0.2534
11211W        W28058   4.953  18.335   0.436  0.1284 -0.0867 -0.1236
11212W        W28059  16.331  16.250   1.246 -0.0294  0.0982  0.1320
11213W        W28060  12.228  11.644   4.272  0.0353  0.2113 -0.1015
11214W        W28061  15.252  13.352   0.996 -0.1723 -0.4167  0.0739
11215W        W28062   3.585  17.962  15.223  0.3929 -0.3982 -0.1922
11216W        W28063  14.831   9.916   2.374  0.0139 -0.1605 -0.1723
11217W        W28064  18.642   7.769  10.444 -0.2521 -0.1230  0.0896
11218W        W28065   0.639   0.678  13.130  0.0644 -0.3109  0.1664
11219W        W28066  10.452   0.088   5.903 -0.2162 -0.1229  0.1168
11220W        W28067  13.172   4.403   3.406  0.2354 -0.1017  0.2606
11221W        W28068   2.728  11.872   2.439  0.0091 -0.1577 -0.2906
11222W        W28069   5.724   1.696   4.831 -0.1083 -0.1537  0.1149
11223W        W28070  13.306   7.794  15.093 -0.3681  0.2526  0.3051
11224W        W28071   7.595   3.157  14.374 -0.1115  0.2152  0.5658
11225W        W28072   0.861  16.039  14.080  0.2269 -0.2554 -0.0220
11226W        W28073  14.220   3.959   2.217  0.0059 -0.0144 -0.0808
11227W        W28074   3.751  15.561   3.610  0.0949  0.0027  0.0151
11228W        W28075   7.328  11.172  12.888  0.0206 -0.1552  0.0768
11229W        W28076   8.394  16.163   3.703  0.0207 -0.3883  0.1874
11230W        W28077   6.008  13.809  13.729  0.2843  0.2236  0.4607
11231W        W28078   3.849   7.865   0.359 -0.2812  0.0599 -0.1195
11232W        W28079   7.033   6.496   0.745 -0.1810 -0.3896 -0.0920
11233W        W28080  14.226  15.584   2.532  0.0521 -0.0207  0.2597
11234W        W28081  13.750   4.388  14.004  0.2370  0.2846 -0.0588
11235W        W28082   2.470   2.234  14.377  0.1901 -0.1336  0.0919
11236W        W28083   8.984   6.060  13.496  0.0530  0.4333  0.0625
11237W        W28084   6.794  16.368  13.079  0.0681 -0.0665 -0.1220
11238W        W28085   6.340  11.992  14.525 -0.0172  0.2034  0.0289
11239W        W28086  10.917  17.674  10.924 -0.0940 -0.5270  0.1181
11240W        W28087  12.738   8.745   2.585 -0.1334 -0.1034 -0.2448
11241W        W28088   1.986   9.466  13.382  0.1050  0.0064 -0.3503
11242W        W28089   0.210  18.750  11.733 -0.1098 -0.2589 -0.1715
11243W        W28090   8.186  14.238  14.329 -0.0185  0.0033 -0.1009
11244W        W28091   9.365   1.588  12.977 -0.0054  0.4103  0.0737
11245W        W28092   5.188  14.282   0.935  0.1657  0.1615  0.2402
11246W        W28093   8.572  16.952  11.247  0.1212 -0.1148  0.1422
11247W        W28094   2.907   1.909  10.644  0.1444  0.1459  0.1487
11248W        W28095   0.129  10.897   1.820 -0.1602  0.0122 -0.0659
11249W        W28096   8.401   9.043  13.012 -0.3038  0.1719  0.0349
11250W        W28097  13.588  14.033   3.937 -0.0951 -0.0543  0.2538
11251W        W28098   2.932   7.332   4.105 -0.2223 -0.2765  0.1718
11252W        W28099   2.991   2.834   0.094  0.1757  0.0787 -0.0714
11253W        W28100   7.688   1.859   1.461  0.1361  0.1663 -0.1013
11254W        W28101  11.474  16.437   5.062  0.1956 -0.0349 -0.0637
11255W        W28102  16.807   9.412  11.996  0.0287  0.0428 -0.1164
11256W        W28103   0.692   8.692   1.356 -0.2172  0.1485 -0.0593
11257W        W28104   8.421   2.567   4.624 -0.0700 -0.1999 -0.2359
11258W        W28105   3.501   8.052   0.693  0.3975  0.1184  0.1115
11259W        W28106  17.689  12.694   0.405  0.1643  0.1812 -0.2152
11260W        W28107  13.130   8.618  14.900  0.2823 -0.0351  0.0899
11261W        W28108  12.631  14.183   4.833  0.0629  0.0178  0.1062
11262W        W28109   1.055   7.022   1.731 -0.4280  0.0557 -0.0507
11263W        W28110  15.786   9.262  15.448 -0.0193  0.1184  0.1009
11264W        W28111   5.929   6.029  15.472 -0.0004  0.0174  0.2431
11265W        W28112   7.706   5.368   1.675 -0.6951  0.3625  0.0259
11266W        W28113  13.522   8.573   4.280  0.0176 -0.2435  0.1044
11267W        W28114  12.220   0.752  12.574 -0.3275 -0.3584  0.0794
11268W        W28115   1.510   2.428  14.298 -0.4556 -0.3186  0.2019
11269W        W28116   6.683  12.133  12.462  0.2550  0.0984  0.0605
11270W        W28117  13.574  14.158   4.525 -0.1990  0.0973  0.1029
11271W        W28118  13.877   8.461  13.727  0.3133  0.0336 -0.1412
11272W        W28119   7.607  16.448  13.577  0.1688 -0.4006  0.0477
11273W        W28120  10.520  10.765  11.815  0.1207  0.2408  0.0325
11274W        W28121   4.334  10.940  14.748  0.1222 -0.0125  0.3170
11275W        W28122   4.851   0.520  15.055 -0.1671 -0.2012  0.2172
11276W        W28123   1.171  12.942   3.211 -0.1460 -0.0478  0.2261
11277W        W28124  17.622  17.322   3.332 -0.1166  0.2325 -0.0020
11278W        W28125  11.232   6.104  11.847  0.0542  0.0950 -0.1934
11279W        W28126  13.384   9.127   3.332 -0.0997  0.4020 -0.1983
11280W        W28127   1.043  11.286  11.425  0.0264 -0.1710  0.1411
11281W        W28128  18.682  11.154  12.426  0.2416 -0.0360 -0.1813
11282W        W28129   6.695   2.857   1.097  0.4292  0.0106 -0.1059
11283W        W28130   9.984   0.243  14.431 -0.0252 -0.1408  0.1610
11284W        W28131  15.724  12.244  14.566 -0.0436 -0.0439  0.0498
11285W        W28132   5.208   5.018  13.138 -0.0917 -0.1544 -0.3001
11286W        W28133   0.496   6.469  13.785  0.1572 -0.1968  0.2134
11287W        W28134  15.516   7.552  14.890 -0.1774  0.0855 -0.0622
11288W        W28135   1.425   8.287  12.540  0.2594  0.2239 -0.0833
11289W        W28136  16.789   3.926  12.237 -0.0282 -0.1755 -0.2675
11290W        W28137   4.235   0.661  12.547 -0.0217  0.2328 -0.3861
11291W        W28138  17.183   5.523  13.577 -0.0838  0.0192  0.1988
11292W        W28139   2.067   4.535   4.108  0.2066  0.1556 -0.3244
11293W        W28140   4.471  13.746  11.670  0.0692  0.1674 -0.3221
11294W        W28141  11.005  12.809   5.839 -0.3950  0.2302  0.0250
11295W        W28142   3.867  12.007   0.935 -0.0520 -0.1133 -0.1678
11296W        W28143  12.662  15.629  13.984 -0.1138  0.0359  0.0469
11297W        W28144  14.652   8.657   5.296  0.1588  0.0052  0.2582
11298W        W28145   2.936   4.735   3.540 -0.3215 -0.1770 -0.1515
11299W        W28146  16.963   7.285  11.541 -0.1832  0.1281  0.0423
11300W        W28147   4.193  17.444  10.814 -0.0199  0.2716  0.0768
11301W        W28148   6.645  10.623   4.678 -0.1370  0.1936  0.0161
11302W        W28149  14.147  12.001  13.320  0.0687 -0.0694  0.4134
11303W        W28150   3.007  10.944   2.150  0.0422 -0.0854  0.3540
11304W        W28151   9.695   3.250  14.176  0.0481 -0.0740  0.1188
11305W        W28152  14.859   8.995  13.634  0.1285 -0.1243 -0.4528
11306W        W28153   0.907  13.854   3.453 -0.0876  0.2537 -0.2423
11307W        W28154  15.001   4.331   3.456  0.2667  0.1828  0.0727
11308W        W28155   1.517  18.753  11.927 -0.1460  0.1048 -0.0304
11309W        W28156  13.296   3.506  15.338 -0.0930  0.0597 -0.0193
11310W        W28157   6.441  17.010   2.427  0.3443 -0.0849  0.0020
11311W        W28158  10.430  17.157   4.603 -0.1869 -0.2139 -0.1495
11312W        W28159   1.432   9.578  13.345 -0.1708  0.2218 -0.0363
11313W        W28160   8.144   8.342  12.517 -0.0495 -0.2359  0.2091
11314W        W28161   0.099   0.051  13.327 -0.1368  0.0892 -0.0423
11315W        W28162   8.866  10.967   1.664 -0.2237 -0.0679  0.2150
11316W        W28163   6.682  12.380   1.344  0.1612  0.1290 -0.0398
11317W        W28164   5.743   9.905   3.910  0.1639  0.3077  0.0162
11318W        W28165   6.429   2.232   2.916 -0.1318  0.0904 -0.1007
11319W        W28166  13.127  16.678  14.648 -0.1732  0.0488 -0.1204
11320W        W28167   7.331   0.429  11.186  0.0276 -0.0540 -0.0920
11321W        W28168   4.078  15.497   2.710  0.3353 -0.0538  0.1431
11322W        W28169   2.348   9.997   3.905  0.2763  0.0141  0.0705
11323W        W28170   3.971  13.671   1.820  0.0993  0.1109  0.0203
11324W        W28171   2.383  14.487   0.351  0.1303  0.2565  0.2963
11325W        W28172  13.679   1.875   3.416  0.1149 -0.1024  0.0657
11326W        W28173   6.335  13.195  13.020 -0.0817 -0.0734  0.1546
11327W        W28174   9.355   1.814   1.535 -0.0760 -0.2581 -0.0271
11328W        W28175  10.571   3.905  10.603 -0.2115  0.2298 -0.3198
11329W        W28176   2.361   6.265  11.740 -0.3447  0.0455  0.2053
11330W        W28177  12.911  10.639   2.792  0.0037  0.0397 -0.0885
11331W        W28178  14.699  15.286   5.058 -0.0098 -0.0922 -0.1555
11332W        W28179   5.703  13.599   1.776 -0.1883  0.0896 -0.3022
11333W        W28180   7.836   3.704  12.076 -0.0754  0.2064 -0.3575
11334W        W28181  13.995   9.335  10.910 -0.1544 -0.0171  0.3464
11335W        W28182   8.196  10.506   5.146 -0.1864  0.0433  0.2292
11336W        W28183  15.209  12.728   1.997  0.0721  0.0948  0.3079
11337W        W28184  12.739   1.454   3.298  0.1981 -0.2464 -0.0030
11338W        W28185   7.016   9.417   1.849 -0.2315 -0.2595  0.1792
11339W        W28186   9.256   8.030   1.262 -0.2074  0.0526  0.3106
11340W        W28187   6.057  17.584  11.422 -0.0021  0.0055  0.1109
11341W        W28188  13.773  12.456  15.538  0.3096  0.1864  0.1956
11342W        W28189  13.978  16.908  12.473 -0.2547 -0.0054 -0.1521
11343W        W28190  15.558  15.056  10.211 -0.0351  0.1703 -0.0421
11344W        W28191  10.875   4.404   3.802 -0.2368  0.3563 -0.1833
11345W        W28192   5.721   4.822   4.877  0.0042  0.2971 -0.2579
11346W        W28193  14.097   1.656  12.210 -0.3383 -0.0814 -0.0213
11347W        W28194   3.731  11.160   4.828  0.0986  0.1881 -0.0922
11348W        W28195  12.776   4.864  12.533  0.0028 -0.2983 -0.1506
11349W        W28196  10.679  16.113  13.627  0.0394 -0.0211 -0.1727
11350W        W28197   2.748  12.284   1.186 -0.1539  0.2341  0.0935
11351W        W28198   6.322  12.927  14.105  0.0700 -0.0358 -0.3752
11352W        W28199  11.719  11.407  12.312  0.0227  0.1504  0.0198
11353W        W28200  10.410  14.696  13.113  0.2551 -0.2748 -0.1605
11354W        W28201  17.541   9.316  15.520  0.1144 -0.1685  0.0345
11355W        W28202   2.722   5.345  13.722 -0.0849 -0.2438  0.2787
11356W        W28203  11.173   8.523  15.200 -0.1189  0.0668 -0.1252
11357W        W28204  10.754  16.825   0.085 -0.1198  0.2162  0.2732
11358W        W28205  10.123  15.643  13.825  0.2566  0.1128 -0.4021
11359W        W28206   4.024  16.187  11.094 -0.1705 -0.1369  0.2444
11360W        W28207  11.487  15.295  13.260 -0.1228 -0.0487  0.0127
11361W        W28208  16.846  11.528   0.307  0.1437 -0.3568 -0.0955
11362W        W28209  12.734   1.979   1.586 -0.1803  0.0180 -0.1217
11363W        W28210  16.404  14.471  14.118  0.5587  0.0969 -0.1575
11364W        W28211  11.680   5.093   4.559  0.0332  0.0021 -0.0064
11365W        W28212  15.584  12.791   1.671  0.0214 -0.0323  0.2997
11366W        W28213   6.905  11.125   3.154  0.4623 -0.1547 -0.1963
11367W        W28214   3.563   1.922   4.530 -0.1114 -0.1500 -0.0221
11368W        W28215  18.118  15.069   1.021 -0.0789  0.0801 -0.4803
11369W        W28216   8.554   2.283  11.622  0.1377 -0.1819  0.0911
11370W        W28217   1.976   5.404   1.514  0.2147  0.1705 -0.4112
11371W        W28218   2.916   7.162   5.474  0.3224  0.1937  0.4263
11372W        W28219   6.337  10.210  10.820  0.0112 -0.1665 -0.0183
11373W        W28220   6.090   5.617  11.363  0.1813  0.2190  0.1747
11374W        W28221  18.792   1.201   1.336  0.1468  0.1831  0.3166
11375W        W28222  15.345   1.007  13.528 -0.1638  0.2538  0.0687
11376W        W28223  15.779  13.234   4.068 -0.0500 -0.5077  0.3702
11377W        W28224  12.102  12.577   1.954 -0.2433  0.0334  0.2344
11378W        W28225   9.992   3.053   2.279 -0.0351  0.0264 -0.1907
11379W        W28226  10.403   9.768  12.542  0.1740  0.1558  0.2272
11380W        W28227  16.507  13.328  14.589 -0.0901 -0.2159  0.0423
11381W        W28228   2.204  13.387   2.924  0.1320  0.1658 -0.1502
11382W        W28229   2.898  14.629   1.555 -0.1515  0.2294  0.1491
11383W        W28230   2.149  15.611   5.160 -0.2427 -0.0234 -0.1453
11384W        W28231  16.613   9.160   0.423 -0.2039  0.0536  0.1233
11385W        W28232  18.371   2.367  14.748 -0.2825 -0.3677  0.1244
11386W        W28233  15.266  17.539   3.671  0.0392 -0.1406  0.1601
11387W        W28234  11.883   3.739  12.249  0.2336 -0.2879  0.0322
11388W        W28235  17.145  10.854  13.207  0.0377  0.0889  0.1743
11389W        W28236  17.187   6.053   3.893 -0.0179 -0.1092  0.2083
11390W        W28237   5.224  12.971   4.856 -0.1780 -0.0969 -0.1491
11391W        W28238  17.404  16.559  13.115 -0.1906  0.0651  0.0711
11392W        W28239   4.449   0.653  15.525  0.1987 -0.2679  0.1103
11393W        W28240  10.251   2.814   2.721  0.0337  0.0495  0.1088
11394W        W28241   8.391  13.897   9.937  0.0156  0.2494  0.4036
11395W        W28242  17.107  18.407  12.712  0.1743  0.2375  0.2220
11396W        W28243   2.476   7.900   0.594 -0.1362 -0.1637 -0.1026
11397W        W28244   7.516   4.066   1.587 -0.1025 -0.3167  0.2476
11398W        W28245  12.442  12.306   3.456  0.6059  0.1639  0.1133
11399W        W28246   5.250  14.212   4.581  0.2105 -0.0836 -0.1094
11400W        W28247  12.101   6.518   1.356 -0.0098  0.3450  0.0730
11401W        W28248   6.864   9.813   4.059  0.1239 -0.1364 -0.1884
11402W        W28249  13.654   6.486   4.232 -0.1978 -0.3156  0.0492
11403W        W28250  10.451  12.969   1.816 -0.2907 -0.0727 -0.0689
11404W        W28251  14.515   0.238   3.535 -0.0658  0.1697  0.0380
11405W        W28252   5.729  13.941  11.847 -0.0529 -0.1120 -0.1597
11406W        W28253   4.276   1.214  14.133 -0.1791 -0.2930 -0.2083
11407W        W28254   6.208  18.090  13.517  0.0455  0.3032  0.1466
11408W        W28255  18.110   7.585   1.135 -0.2012 -0.0205  0.2488
11409W        W28256  13.691   2.883   2.436  0.3510 -0.1440 -0.0855
11410W        W28257  12.118   3.709   0.710  0.0242  0.1508 -0.0212
11411W        W28258   8.532   5.369   5.337  0.2728 -0.1212  0.0417
11412W        W28259  14.392   0.246   2.146  0.1826  0.3150 -0.4629
11413W        W28260  14.361   6.767   0.500 -0.2627  0.2624 -0.1323
11414W        W28261   3.892  14.191   2.672  0.0469 -0.1548  0.1253
11415W        W28262  12.355  18.276   5.292  0.0699  0.1298 -0.0098
11416W        W28263  12.538   1.623   1.236 -0.0743 -0.0096 -0.0481
11417W        W28264  12.365   6.681   3.556 -0.0397  0.1834 -0.0351
11418W        W28265   6.444   2.804  13.152  0.1376  0.0045 -0.0803
11419W        W28266   6.623   1.603   0.065  0.0313  0.0378 -0.6031
11420W        W28267   7.024   4.303  13.541 -0.2083  0.2399  0.1442
11421W        W28268   5.069  10.262  11.807  0.2605  0.1376 -0.0812
11422W        W28269   9.845   9.013   9.961  0.3899  0.1388  0.2843
11423W        W28270   1.532   2.022   3.268 -0.1650 -0.1385  0.1937
11424W        W28271   6.689  14.575  11.539  0.0384 -0.2431  0.0819
11425W        W28272  11.704  10.087   0.357  0.0189  0.0517  0.0051
11426W        W28273  11.726  12.948   3.052  0.0943 -0.1230  0.0589
11427W        W28274  14.381  14.231   1.864 -0.3178 -0.1976  0.2009
11428W        W28275   7.816   8.419   5.373  0.0087  0.4523  0.1518
11429W        W28276  18.611  14.017   2.690  0.1286  0.0288  0.1924
11430W        W28277   5.490  12.772   1.832 -0.0197 -0.4323  0.0117
11431W        W28278   2.634   6.770  12.075  0.0016  0.0906 -0.4429
11432W        W28279   3.733   6.256  10.715  0.2373 -0.2198  0.2078
11433W        W28280  12.055   6.601   0.852 -0.0721 -0.1853 -0.2214
11434W        W28281   9.035  11.478  11.129 -0.1630 -0.1497  0.1080
11435W        W28282  12.495   5.189   1.859  0.2757 -0.0247  0.0307
11436W        W28283   4.739  13.196   3.783 -0.6301  0.2347  0.0254
11437W        W28284   6.446  10.297  11.359 -0.1295 -0.1079  0.2761
11438W        W28285   4.027  16.155  14.980 -0.2654  0.0302  0.1211
11439W        W28286  16.566  17.042   0.838 -0.0027 -0.0990  0.1276
11440W        W28287   3.380  18.806   1.707 -0.1586 -0.4172 -0.1926
11441W        W28288  18.755  17.907   1.758  0.0934 -0.0512  0.3181
11442W        W28289   2.915   5.601   1.320 -0.0611  0.2917 -0.1693
11443W        W28290  14.441   9.027  14.095 -0.0120  0.3825  0.3038
11444W        W28291   7.332  13.689   2.341 -0.3096 -0.0039  0.1217
11445W        W28292   0.921   0.819   5.719 -0.0431  0.0542  0.0167
11446W        W28293  16.142   3.038   2.403  0.1103 -0.0311  0.0941
11447W        W28294   7.758   5.132   5.521 -0.0344  0.0013  0.2137
11448W        W28295   2.809  15.676   1.454 -0.1314  0.0918 -0.0975
11449W        W28296   0.956   0.243  13.211 -0.1662 -0.0719 -0.0680
11450W        W28297   6.360  16.619  13.698 -0.0448  0.3471 -0.1447
11451W        W28298  12.915   0.111  11.647  0.1101  0.2986 -0.0445
11452W        W28299  14.619   8.133   2.534  0.2700 -0.0010  0.2395
11453W        W28300   6.014   5.299  13.309 -0.1344  0.2012  0.1542
11454W        W28301  11.480   0.259   0.458 -0.2981  0.0639 -0.1241
11455W        W28302  14.264  12.556   3.609  0.1628  0.1682  0.0243
11456W        W28303  16.358   1.033   4.730 -0.0867 -0.1770  0.5021
11457W        W28304  18.072   6.374   0.012  0.0476 -0.3360  0.1518
11458W        W28305   1.674  13.686   3.807 -0.3710 -0.2124  0.2411
11459W        W28306   4.316   3.593   5.702  0.0062  0.1061 -0.2992
11460W        W28307   1.246  18.258   0.940 -0.4025  0.0313  0.0406
11461W        W28308   3.500  14.833   0.810 -0.2122 -0.1729 -0.0921
11462W        W28309   9.721  17.565   4.095 -0.1868  0.0487 -0.3113
11463W        W28310   8.605  16.429   1.200  0.1943  0.2319  0.3544
11464W        W28311  11.068  14.636   1.725 -0.2822  0.3110 -0.0782
11465W        W28312   3.049   4.511  10.986  0.0505  0.0072  0.2328
11466W        W28313   8.585   4.636   2.391  0.1493 -0.0086  0.1556
11467W        W28314  18.614  11.444  13.783  0.1330  0.0781 -0.0808
11468W        W28315   9.869   5.943   0.820 -0.3175 -0.2241  0.1010
11469W        W28316  12.294  18.029   0.467  0.3348 -0.0380 -0.2937
11470W        W28317  13.959  11.033  14.344 -0.1769  0.1182  0.3080
11471W        W28318   4.838  10.169   4.224  0.2064  0.1311 -0.2800
11472W        W28319   0.377   1.761   5.221  0.2998  0.3003 -0.1328
11473W        W28320  17.617   5.262   2.991  0.0016 -0.1273 -0.2509
11474W        W28321   8.002  18.808  13.251 -0.0579  0.4012  0.3497
11475W        W28322   9.568  14.658  11.803  0.0947 -0.2001  0.2761
11476W        W28323   9.161   8.537  14.479 -0.0863 -0.0327 -0.1115
11477W        W28324  12.782  15.307   2.065  0.2857 -0.1327 -0.2759
11478W        W28325   0.751   9.033   6.176  0.1699 -0.0518  0.1663
11479W        W28326  16.001   8.052   2.649 -0.1327 -0.1724  0.1860
11480W        W28327  14.752  11.246  13.505 -0.2083 -0.2426  0.1009
11481W        W28328   5.490  12.907  11.976 -0.0984 -0.2324 -0.0653
11482W        W28329  14.787   7.089   0.571  0.1224  0.0126  0.1387
11483W        W28330   4.031  14.170   0.323  0.1087 -0.0132  0.1509
11484W        W28331  10.062  15.755   3.003  0.0166 -0.1040  0.0247
11485W        W28332  14.366  11.526  14.484  0.0756  0.0300 -0.0109
11486W        W28333  17.518  10.550   2.792 -0.2129 -0.0217  0.2330
11487W        W28334   5.524   3.031  13.947  0.0286 -0.3319 -0.0464
11488W        W28335  11.020   0.893   1.395  0.1877  0.1741  0.3363
11489W        W28336   5.251  18.351  13.117 -0.0923 -0.0998  0.0053
11490W        W28337  17.444  18.182  13.861 -0.1773  0.0061  0.0946
11491W        W28338   0.758   5.751   4.136 -0.0864  0.1921  0.3012
11492W        W28339  17.891   4.708  12.616  0.0438 -0.1315 -0.1961
11493W        W28340   9.394  18.273   0.325 -0.0870  0.1896 -0.5090
11494W        W28341   9.988   3.590   0.854  0.0821 -0.1190  0.3528
11495W        W28342  15.132  12.395  12.487 -0.0555  0.0365 -0.0892
11496W        W28343   1.135   4.103  11.373  0.0019 -0.2490  0.0787
11497W        W28344  18.193   5.653   4.041  0.0812  0.0229 -0.0564
11498W        W28345   5.359   8.200  11.465  0.1063  0.1150  0.0976
11499W        W28346  17.449  16.433  11.076 -0.1448 -0.1584 -0.1361
11500W        W28347  11.667  14.667   2.536  0.1711  0.0716 -0.0115
11501W        W28348   3.439  11.055  15.246  0.2544  0.1800  0.3439
11502W        W28349  16.392  10.484   4.699  0.0977 -0.0795  0.0447
11503W        W28350   0.361  14.771  14.618 -0.1090 -0.1266 -0.2271
11504W        W28351  10.394   9.411  12.147  0.1457 -0.0226 -0.0974
11505W        W28352   1.395   0.310   3.074  0.1082 -0.0767  0.1910
11506W        W28353   2.809   5.226   3.717 -0.0748 -0.0113 -0.1724
11507W        W28354  12.239  18.642  13.312  0.2217  0.0167 -0.1412
11508W        W28355  15.822  17.079  10.945  0.1019 -0.1253  0.0552
11509W        W28356   4.992   9.489  12.682 -0.1971  0.0375  0.1226
11510W        W28357   9.862   1.278   3.369  0.0436 -0.1541 -0.0274
11511W        W28358  18.200  17.407   2.500 -0.0664  0.3204  0.2716
11512W        W28359  13.939   1.432  12.690  0.1608  0.2010  0.4408
11513W        W28360  11.842  10.169   2.101 -0.3555 -0.2232  0.4001
11514W        W28361  12.490  13.558  10.935  0.1558 -0.2903  0.3385
11515W        W28362  13.892  18.131   3.520  0.0819  0.1019  0.2730
11516W        W28363   8.664  17.295  11.676 -0.0378  0.0637 -0.0864
11517W        W28364  18.777  15.741   4.867  0.1521  0.1526 -0.0757
11518W        W28365   3.764   5.482  12.295 -0.4089  0.1003  0.0012
11519W        W28366   1.720   8.058  14.302 -0.0570 -0.1588  0.0773
11520W        W28367   6.285   8.655   1.196  0.1721  0.0908 -0.5849
11521W        W28368   2.470   3.234  11.277  0.0848 -0.0992 -0.0222
11522W        W28369   9.634   0.030   2.560 -0.3650  0.1028  0.1625
11523W        W28370  16.415   5.034  11.552  0.2183  0.4412  0.0611
11524W        W28371  16.069   7.687   5.261  0.1729  0.1986  0.1995
11525W        W28372   1.753   6.970  13.311  0.0993 -0.1541  0.1587
11526W        W28373  17.619  13.565   4.257 -0.0150 -0.0087 -0.2506
11527W        W28374  11.257   1.923  12.326  0.1640  0.1229 -0.3015
11528W        W28375  13.995   7.732  10.888 -0.1008  0.0438 -0.0284
11529W        W28376   4.025   6.403  13.149  0.0526  0.2150  0.3587
11530W        W28377  12.104   8.002   2.903  0.1894  0.3661 -0.4496
11531W        W28378  17.592  13.087   3.838 -0.2712 -0.2813  0.0213
11532W        W28379  12.271  16.791   0.439  0.0117 -0.1870 -0.1056
11533W        W28380   2.001  14.224   2.996  0.4336 -0.0628 -0.1164
11534W        W28381   3.693   5.931  13.057 -0.2252  0.2367 -0.0694
11535W        W28382  10.965   5.587   4.726 -0.1760  0.1207 -0.0428
11536W        W28383  13.918  17.624   1.878  0.1421 -0.0985 -0.0456
11537W        W28384   3.247  16.827  14.739 -0.0507  0.2031  0.1196
11538W        W28385   4.709   3.546  14.041  0.1451  0.3913  0.1525
11539W        W28386   3.138   5.927   2.174  0.0806 -0.0299 -0.0346
11540W        W28387   5.704   6.388  14.346 -0.2153 -0.3516  0.0655
11541W        W28388   4.767   4.981  14.042 -0.1231  0.2350  0.2683
11542W        W28389   5.346  17.571   1.023  0.0798 -0.1598 -0.1764
11543W        W28390   9.183  18.748  15.176  0.2275  0.0437 -0.0133
11544W        W28391  16.385   5.878   5.112  0.1196  0.1707  0.0106
11545W        W28392   6.059   3.778   4.138  0.0757 -0.2932  0.0893
11546W        W28393  17.663   7.207   1.913  0.0692 -0.1972 -0.0013
11547W        W28394   7.855  14.247  13.416  0.1627 -0.1027  0.1988
11548W        W28395  11.150   8.132  12.083 -0.0220 -0.2723  0.5839
11549W        W28396   1.817  10.216   5.228 -0.0641 -0.1028 -0.0835
11550W        W28397   8.627   8.515  12.472 -0.1743 -0.2178 -0.3603
11551W        W28398   9.231  12.989   0.649 -0.1923 -0.2234 -0.1360
11552W        W28399   3.995   8.367  15.160  0.1787 -0.1170  0.0398
11553W        W28400   8.431   5.853   5.450 -0.1377  0.3495  0.0615
11554W        W28401   7.338   4.578   3.663 -0.0205  0.0427  0.1581
11555W        W28402   1.060   5.123  13.354 -0.3054 -0.1919 -0.1315
11556W        W28403   5.498  13.313  14.472  0.2605  0.1881  0.0914
11557W        W28404  14.974  17.064  13.840 -0.0277  0.1480  0.2449
11558W        W28405  17.460   2.683  13.123 -0.1025  0.1927 -0.0708
11559W        W28406  17.151  17.753  13.665 -0.0128  0.1252 -0.0421
11560W        W28407  17.999   7.187   0.424 -0.0449  0.1517 -0.0960
11561W        W28408   3.424  17.279   2.499 -0.1232  0.0060 -0.0893
11562W        W28409   6.202  13.573  15.252  0.0643  0.4893  0.1879
11563W        W28410   0.579   1.592  11.455  0.0990  0.0120 -0.0204
11564W        W28411   6.546   3.620   1.733  0.0006  0.3304 -0.0138
11565W        W28412   9.143   0.269  13.048  0.0653 -0.2558  0.1405
11566W        W28413   7.529   8.422  14.891 -0.3569 -0.1208  0.2548
11567W        W28414   3.061   3.157  14.226  0.1272 -0.0487  0.0942
11568W        W28415   3.366   0.791   2.248 -0.1140  0.0039  0.1557
11569W        W28416   9.126   7.684   3.116  0.2000  0.6229 -0.2728
11570W        W28417  17.488   4.638  13.036 -0.1130  0.0608  0.0211
11571W        W28418   3.027   6.354  11.187 -0.2765 -0.2431  0.1113
11572W        W28419   7.488   5.770  12.078  0.0751  0.3342 -0.1958
11573W        W28420   0.609   1.162  14.230  0.1495 -0.4380  0.1782
11574W        W28421  13.872  12.025  14.104  0.4524 -0.2789  0.0918
11575W        W28422  16.570  17.215  13.873  0.2712 -0.0054  0.1464
11576W        W28423  12.001   1.721   3.628 -0.0235 -0.1989 -0.2852
11577W        W28424   3.425  16.361   0.454  0.0891  0.1392 -0.0901
11578W        W28425  13.387   0.706   5.157 -0.3421 -0.1447  0.0981
11579W        W28426  16.299  11.570  12.919  0.1080  0.1826  0.4742
11580W        W28427   7.546  11.179  10.681  0.0913 -0.1737 -0.0725
11581W        W28428  18.387   2.773   3.737  0.0706  0.2361  0.3032
11582W        W28429   9.769  12.001   1.021  0.1052 -0.0681  0.0336
11583W        W28430  18.579  10.236  15.374 -0.3428  0.4108 -0.2390
11584W        W28431   6.194  11.000   1.408 -0.0474  0.0666  0.0510
11585W        W28432   4.720   9.283  12.274  0.0342 -0.0258 -0.0255
11586W        W28433   1.055   3.101  13.331  0.1263  0.3449  0.1465
11587W        W28434  18.216  14.115   2.406  0.0251  0.2330  0.0216
11588W        W28435  18.255  18.309  13.301 -0.3156 -0.1086  0.1084
11589W        W28436   9.853   9.408  10.339  0.0092 -0.0803  0.0199
11590W        W28437  10.688   2.332  13.682  0.1629  0.0076  0.1138
11591W        W28438  15.344   6.195  10.862 -0.0097 -0.0526 -0.1066
11592W        W28439   1.179   0.222   0.314  0.2547 -0.1262  0.1139
11593W        W28440  14.301   4.889   4.601  0.0382  0.3528 -0.3110
11594W        W28441  12.708   8.285   2.393 -0.0371  0.1466 -0.0684
11595W        W28442   5.507  10.153   2.581 -0.1741  0.1214 -0.0761
11596W        W28443   6.636   8.204  13.246 -0.1896 -0.1941 -0.0977
11597W        W28444  14.549   0.031   4.501  0.2014  0.1395 -0.0003
11598W        W28445   4.676   5.864   0.174 -0.0347  0.2298 -0.0808
11599W        W28446   0.490   8.606  13.912  0.1287 -0.0550 -0.0305
11600W        W28447   3.518  11.966   4.272  0.2356 -0.0586 -0.0833
11601W        W28448  14.975  14.798  10.880 -0.1944 -0.2036  0.2593
11602W        W28449   2.694  15.867   0.889  0.0972 -0.1015  0.0359
11603W        W28450  17.649   9.717  15.102 -0.1189 -0.0650 -0.4190
11604W        W28451  12.220   0.390  14.882  0.1248 -0.0212  0.2892
11605W        W28452   7.015  12.358   4.800 -0.1567 -0.1430 -0.0271
11606W        W28453  14.886  16.356   2.769  0.0157 -0.0475 -0.2755
11607W        W28454   8.339   4.296   1.069  0.0309 -0.3342  0.1093
11608W        W28455  16.066  10.804   3.838  0.3142 -0.0308 -0.0685
11609W        W28456  10.443  16.511   4.719 -0.3544 -0.1148 -0.0273
11610W        W28457  13.487   6.991  11.861  0.2895  0.0140 -0.1742
11611W        W28458  18.772   1.741   3.535  0.3009  0.0872 -0.1060
11612W        W28459   7.833   6.446  12.339  0.0785  0.1026 -0.0397
11613W        W28460  14.592  13.009  15.202  0.3486 -0.1020  0.1109
11614W        W28461   5.300   4.232   2.027 -0.0103  0.1057  0.1141
11615W        W28462   2.871  10.991  15.318  0.0779 -0.1119  0.0818
11616W        W28463   5.636  14.954   3.569 -0.2999 -0.1380 -0.0430
11617W        W28464   5.289  10.267  15.370 -0.1858 -0.2852 -0.2552
11618W        W28465  15.519   7.593   1.761  0.1162  0.0678  0.0519
11619W        W28466   7.408   0.795  10.780 -0.0343  0.1002 -0.0414
11620W        W28467  10.215   0.678   2.212 -0.1918  0.3136 -0.0964
11621W        W28468  15.345  11.653   1.556  0.0150  0.2549  0.0041
11622W        W28469  15.966  10.870   0.626 -0.0152 -0.0097 -0.0535
11623W        W28470  12.309  15.183  13.963 -0.1952  0.1384  0.2195
11624W        W28471   9.783  13.296  14.207 -0.1609  0.1085  0.1065
11625W        W28472  10.178   8.796  14.292  0.2197  0.4419 -0.2199
11626W        W28473   0.701   9.418   5.488  0.1190  0.2031  0.0807
11627W        W28474  10.683   0.285  12.274  0.2391 -0.0723  0.0976
11628W        W28475  11.984  11.634   3.399  0.3999  0.1993 -0.2205
11629W        W28476  13.320   0.031  14.214  0.3693 -0.0364  0.2267
11630W        W28477  11.311   3.464   5.265 -0.1209  0.2053  0.2277
11631W        W28478  17.109  10.780   1.359  0.0892 -0.0524 -0.4135
11632W        W28479   3.715  15.474   1.225  0.2686 -0.2850 -0.0253
11633W        W28480  15.446  16.976  11.777  0.0085 -0.1620 -0.0642
11634W        W28481   6.332  10.353   0.740 -0.0149 -0.1229 -0.1272
11635W        W28482   1.083   9.006  11.041 -0.2622 -0.1307  0.3494
11636W        W28483  12.652  11.763  15.491  0.1198  0.0422  0.0749
11637W        W28484  14.773   4.764   0.595 -0.2897 -0.0416  0.0760
11638W        W28485  15.144   9.278   4.962  0.1253  0.1285  0.1903
11639W        W28486  10.344   5.624   0.858 -0.0118  0.0680  0.1982
11640W        W28487   1.521  18.603   9.998 -0.3783  0.0876  0.0765
11641W        W28488  13.178   7.097   3.300  0.1557 -0.1488 -0.1274
11642W        W28489  14.685  12.866  11.323 -0.2797 -0.4578 -0.1334
11643W        W28490  13.102  14.193   4.704  0.0799  0.1118 -0.0295
11644W        W28491  11.635   4.253  11.657 -0.2381  0.0657 -0.1183
11645W        W28492  13.448  17.485  12.747 -0.0836 -0.0705  0.2345
11646W        W28493   6.552  16.674   0.392 -0.1123 -0.0143 -0.0372
11647W        W28494   8.606  12.562   1.731 -0.0592 -0.3229  0.3036
11648W        W28495   0.838   2.456   4.419 -0.2020 -0.3295 -0.1687
11649W        W28496   2.778  11.265   5.135  0.0049 -0.1087 -0.1368
11650W        W28497  11.991  11.493   2.614 -0.0809 -0.2690  0.3337
11651W        W28498  15.048   9.455  11.962 -0.2721  0.0241  0.1629
11652W        W28499   7.259   6.941  14.614  0.1251 -0.0689  0.0085
11653W        W28500   6.634  13.410   5.603  0.0000  0.2390  0.1192
11654W        W28501  16.058  17.436  12.758  0.1821 -0.0139  0.2268
11655W        W28502  14.338   8.501  11.220 -0.1400 -0.0501 -0.3055
11656W        W28503   2.065   6.745   3.676  0.1560 -0.2498 -0.0773
11657W        W28504  14.161   7.491   4.741  0.1289 -0.1022 -0.1313
11658W        W28505  14.238  13.629  12.364 -0.0556  0.0039 -0.2628
11659W        W28506  16.215  16.345  14.240  0.1173  0.1939  0.1894
11660W        W28507  10.581  11.702  13.145  0.1456  0.1595  0.3847
11661W        W28508  17.126  18.383  11.435 -0.1080  0.0408  0.1366
11662W        W28509   4.076   0.319   1.975  0.1107  0.1945 -0.2609
11663W        W28510   9.657   7.672   1.183 -0.0694 -0.2187  0.1225
11664W        W28511  16.857  10.685   4.928 -0.1525  0.1897  0.0668
11665W        W28512  10.193  14.826  13.628 -0.0660  0.3098 -0.2985
11666W        W28513   8.768  11.164   5.169 -0.0223 -0.0232  0.1488
11667W        W28514  16.723  14.733   9.998  0.0716 -0.0375  0.0559
11668W        W28515  10.638   1.423  14.435 -0.1884 -0.1881  0.0965
11669W        W28516   1.633   8.856  12.314  0.0560  0.2397  0.2494
11670W        W28517   8.349   2.125   0.025  0.0062 -0.1477 -0.1984
11671W        W28518  10.396   4.831  13.345 -0.4001  0.2896  0.2571
11672W        W28519  10.926   2.515  12.512  0.0642 -0.0915 -0.0032
11673W        W28520  11.586   8.331   5.107  0.0983 -0.1527  0.0051
11674W        W28521   5.566   5.808  10.618 -0.3423 -0.1610  0.1318
11675W        W28522  13.383   6.147  15.254  0.0420  0.1392 -0.1036
11676W        W28523  17.735  13.357  12.122 -0.1670 -0.2020  0.1497
11677W        W28524   1.037   2.203   3.063  0.0523 -0.1572 -0.0382
11678W        W28525   6.792   8.893  11.450  0.0235  0.0741 -0.0082
11679W        W28526  11.013  17.284   0.476  0.2065  0.1756  0.0087
11680W        W28527  17.896   8.733  13.989  0.2232  0.2104 -0.0205
11681W        W28528   7.822   7.993  13.466  0.3490  0.1664  0.0385
11682W        W28529  14.223  10.208  14.041 -0.1823 -0.0141  0.0994
11683W        W28530  15.053  17.400   4.491 -0.2955  0.1230  0.1052
11684W        W28531   6.716  17.080   2.869 -0.4275 -0.0545 -0.2224
11685W        W28532  12.161   6.631  11.300 -0.1148  0.0868 -0.3229
11686W        W28533   6.789   5.726  11.440  0.2659 -0.2694 -0.1528
11687W        W28534  18.597  12.900   2.968 -0.0101  0.4465  0.0671
11688W        W28535   6.446   0.789   1.476 -0.2583 -0.0177  0.2388
11689W        W28536  16.266  16.236  15.134 -0.0441 -0.0242  0.0519
11690W        W28537  16.116   7.666  13.878 -0.0916 -0.1983  0.1311
11691W        W28538   3.754   8.960  11.214 -0.1075  0.3420  0.2234
11692W        W28539   9.802  16.237  12.095 -0.1312  0.2306 -0.1991
11693W        W28540   1.923  17.494  14.133 -0.0844 -0.1814  0.0862
11694W        W28541   0.295   4.159  14.952 -0.1915 -0.0184  0.1081
11695W        W28542   2.371  18.786   2.769  0.2134 -0.0784 -0.1042
11696W        W28543   1.264  14.849  10.898 -0.2256  0.0893 -0.0973
11697W        W28544   4.125   1.623  11.421  0.2357  0.2825 -0.3751
11698W        W28545  16.983   3.025  11.570  0.1963  0.0295  0.1979
11699W        W28546   6.953   0.202   2.674 -0.1050 -0.1424 -0.1900
11700W        W28547   8.669  10.474  10.749 -0.2495  0.0448 -0.0693
11701W        W28548  10.874   7.742   4.378  0.1884 -0.0298  0.1120
11702W        W28549   0.758  11.734   5.076  0.0159  0.1911  0.1987
11703W        W28550   7.625   4.967   1.090  0.0874 -0.1246  0.4968
11704W        W28551  18.729  10.631  14.566 -0.4029  0.0759 -0.2661
11705W        W28552  18.630   3.043   4.136  0.0069 -0.0530 -0.1051
11706W        W28553   4.401   1.753   4.739  0.0454 -0.1395 -0.0590
11707W        W28554   4.575  17.384   2.015  0.0913 -0.1711  0.0292
11708W        W28555   2.405  13.046   3.186  0.2775 -0.0594  0.2697
11709W        W28556   3.686  11.209   3.781 -0.0610  0.1038  0.2430
11710W        W28557  10.133   3.105  12.378 -0.0094  0.1126 -0.1292
11711W        W28558   2.235  11.349   3.183 -0.1846  0.1197  0.2286
11712W        W28559  13.642  18.154   1.335 -0.1599 -0.0917  0.0540
11713W        W28560   0.243   0.342   4.722 -0.1881  0.0132 -0.1814
11714W        W28561   9.239  17.973   0.739 -0.0152  0.0080 -0.3293
11715W        W28562   4.653  13.511  15.008  0.0404  0.1390 -0.1319
11716W        W28563   2.920   6.382  12.949 -0.1961  0.4824  0.0013
11717W        W28564  15.654   4.065   1.550 -0.1680 -0.0277 -0.1127
11718W        W28565   7.446  16.811   4.898 -0.1234  0.2432 -0.1428
11719W        W28566  15.279  11.554   2.032  0.0635  0.2685  0.0744
11720W        W28567  16.018  18.695   1.410  0.0038  0.4595  0.0646
11721W        W28568   7.956   9.901   4.767  0.2278  0.1122 -0.1281
11722W        W28569   2.133   0.089   4.202  0.0135  0.1415  0.2016
11723W        W28570   8.289  17.060  11.970  0.2474 -0.1977  0.0676
11724W        W28571  11.198   1.787   1.816 -0.2330  0.1177 -0.2322
11725W        W28572  18.110  11.544  12.685  0.1552  0.0127  0.0738
11726W        W28573   4.354  12.147   3.972 -0.0981  0.2613 -0.1731
11727W        W28574   5.841   5.144  15.002  0.0591 -0.1616  0.1379
11728W        W28575  16.369  16.024   0.520 -0.2536 -0.1281 -0.1981
11729W        W28576   6.888  15.346  10.119 -0.1326 -0.1003 -0.0171
11730W        W28577  18.472   3.468   3.378 -0.0787  0.0667  0.0119
11731W        W28578   2.179   0.932  13.187 -0.1833  0.0652 -0.1779
11732W        W28579  18.135  12.709  14.256 -0.0354 -0.0480  0.1006
11733W        W28580  14.180  14.303  13.056  0.0465 -0.0829  0.1207
11734W        W28581  11.072  17.079  11.303  0.3254 -0.1113  0.0752
11735W        W28582  10.996   9.929  13.338 -0.1742 -0.2998 -0.0656
11736W        W28583  13.941  12.544   1.822 -0.0511 -0.1975 -0.0136
11737W        W28584   0.104  18.539   4.210  0.1780 -0.1988 -0.0158
11738W        W28585   8.021  18.175   2.357 -0.0407 -0.1141  0.0581
11739W        W28586  15.725   2.715   4.047 -0.0326  0.5293 -0.1757
11740W        W28587  11.351  11.174  12.648 -0.0207 -0.0086 -0.0963
11741W        W28588   1.606   7.358  13.748  0.0680  0.1470  0.2286
11742W        W28589   9.613  13.698   1.200  0.0354  0.4128 -0.0742
11743W        W28590  18.156   1.988  12.108  0.0729  0.2131  0.0273
11744W        W28591  18.467  16.226  12.192 -0.0359 -0.1886  0.0892
11745W        W28592   3.756   5.981   4.614 -0.1129  0.0429 -0.0156
11746W        W28593   6.321  18.676   4.331 -0.2447  0.4546 -0.0670
11747W        W28594   4.560   0.800  12.161 -0.0205  0.1520  0.0538
11748W        W28595  14.428   9.631   2.821 -0.0790  0.4153 -0.0212
11749W        W28596   6.706  16.552   3.731  0.3313 -0.0230 -0.0940
11750W        W28597   3.454   8.779  15.390 -0.1546  0.1221 -0.1599
11751W        W28598   1.781  16.539   2.889 -0.2058  0.1295  0.0363
11752W        W28599   7.867  13.651  15.054  0.0734 -0.0733 -0.0287
11753W        W28600   0.924   2.523   5.198  0.0873 -0.1564 -0.2236
11754W        W28601   0.254   0.037   1.707  0.1933  0.0036  0.1434
11755W        W28602  15.222  14.475   1.550 -0.1679 -0.2238 -0.0525
11756W        W28603   3.927  15.936   3.259 -0.4311 -0.0953  0.2987
11757W        W28604  18.580  14.292  13.781  0.0537  0.1937  0.3086
11758W        W28605  11.444   8.802   1.445  0.0521  0.0422  0.1472
11759W        W28606   5.030  15.164  13.402  0.2642 -0.3623  0.1395
11760W        W28607   6.713   3.458   4.807  0.3787 -0.2800  0.0901
11761W        W28608   7.554  15.006  13.650  0.0365  0.4790 -0.0054
11762W        W28609   6.775  13.487   4.212 -0.0166 -0.2242  0.0696
11763W        W28610  16.444  11.373   2.148  0.0961 -0.0674  0.1383
11764W        W28611   6.075   4.425   4.975  0.0768  0.1005 -0.0378
11765W        W28612  13.900   3.526   4.570 -0.0340  0.0093  0.0741
11766W        W28613  17.217   4.258   0.684  0.3502  0.0600 -0.1145
11767W        W28614   0.488  12.761  10.953  0.0248 -0.0941  0.4383
11768W        W28615   2.221   4.261   3.021 -0.1311 -0.0290  0.1814
11769W        W28616   6.585  11.005   5.044 -0.2372 -0.3159  0.1136
11770W        W28617   6.477   0.990  13.026  0.0488 -0.1757  0.0350
11771W        W28618  11.137   0.106   1.680  0.0906 -0.1534  0.0846
11772W        W28619  13.920  17.761   2.499  0.0592 -0.0805  0.0125
11773W        W28620  16.431   1.029  11.315  0.0914 -0.0829 -0.2774
11774W        W28621   5.632   1.604   2.706 -0.1154 -0.1490  0.0128
11775W        W28622   4.662   9.963  13.783 -0.4384  0.0233 -0.1058
11776W        W28623   3.724   5.460   2.079 -0.2973  0.0301  0.1032
11777W        W28624  17.574  10.036   2.763 -0.1144 -0.2165  0.0296
11778W        W28625  17.197   6.455   1.566  0.0898  0.0780 -0.2305
11779W        W28626   7.118   1.765   0.139  0.3739 -0.3193 -0.1587
11780W        W28627   6.779   9.773  15.076 -0.1177  0.1021  0.1543
11781W        W28628  17.404   2.054  14.853  0.1131 -0.2714  0.0796
11782W        W28629   4.223   1.738  12.421 -0.1425  0.1270 -0.0451
11783W        W28630   7.787   8.128  14.503 -0.2282  0.1490  0.1401
11784W        W28631  15.077   5.853   3.484  0.2475  0.0103 -0.0234
11785W        W28632  11.116   2.174   0.503 -0.1399  0.3892 -0.0922
11786W        W28633  11.726  16.131  11.823 -0.0978 -0.2970 -0.0834
11787W        W28634   1.314   3.086   9.884 -0.2354 -0.0570 -0.4566
11788W        W28635  10.405  13.187  10.068 -0.1887 -0.0703 -0.0686
11789W        W28636  18.011   7.718   0.666 -0.0932  0.0724 -0.0217
11790W        W28637  10.724   3.281   3.488 -0.2570 -0.2290 -0.0971
11791W        W28638   1.658   1.597   0.268 -0.3441  0.2026  0.2022
11792W        W28639   6.022  17.024   0.258 -0.1126 -0.1350 -0.0454
11793W        W28640   7.394   4.862  11.888 -0.0641 -0.0562  0.1002
11794W        W28641  15.370   0.692   3.668 -0.2386  0.1388 -0.1135
11795W        W28642  17.671   3.283  13.346 -0.0592 -0.2800  0.2305
11796W        W28643   7.105   9.308   0.660  0.1395 -0.0823  0.1714
11797W        W28644   3.665   3.163  11.572 -0.2714  0.0624 -0.0845
11798W        W28645  15.334   8.052  13.544  0.1831  0.2330  0.1752
11799W        W28646  17.033   0.193  15.286 -0.3144 -0.1805  0.0631
11800W        W28647   7.653   4.369  13.545 -0.1175 -0.1339  0.0587
11801W        W28648   4.192  16.338  10.632  0.4723 -0.0570  0.1172
11802W        W28649   1.107   0.132   9.734 -0.0508 -0.0964 -0.2374
11803W        W28650   2.711   8.885  11.452 -0.0270 -0.0589 -0.2849
11804W        W28651  18.237   5.060   0.947 -0.0678  0.0875 -0.0155
11805W        W28652   8.477   0.250  13.054  0.0361  0.2371  0.1049
11806W        W28653  11.516   7.836  13.690  0.0166  0.0072  0.1224
11807W        W28654   3.578   9.792   0.516  0.1279  0.3416 -0.3384
11808W        W28655   0.152   1.715  14.998  0.0008 -0.1013  0.1584
11809W        W28656  10.671   9.013  13.011  0.1076  0.3315 -0.1179
11810W        W28657  17.132  15.041   3.048  0.1744  0.2090 -0.0369
11811W        W28658  10.340   9.536  11.176 -0.1795 -0.1168  0.2142
11812W        W28659   9.732   3.052  14.756 -0.0720 -0.0961  0.0288
11813W        W28660   5.714   7.016   4.033  0.6238  0.0631 -0.0202
11814W        W28661   5.667  11.101   3.404  0.0776  0.1121 -0.1865
11815W        W28662  17.211   7.997   1.950  0.1884  0.0747 -0.1316
11816W        W28663  11.110   3.542   4.458 -0.0032 -0.0034 -0.0879
11817W        W28664   2.578  17.624  10.627  0.1503  0.2809 -0.0660
11818W        W28665   1.268   0.794   3.176  0.2983 -0.0073  0.0101
11819W        W28666  16.482  15.479  13.552 -0.1500 -0.1703  0.2013
11820W        W28667  14.138   7.897  11.916  0.1653 -0.2138  0.0892
11821W        W28668  17.352   4.893   5.622 -0.0699 -0.2077  0.1764
11822W        W28669   5.133  17.047  15.104 -0.2507 -0.0736  0.1201
11823W        W28670  13.605  11.736  11.224  0.1263  0.0282 -0.0557
11824W        W28671  10.931  14.508   3.169  0.3919 -0.1685 -0.1919
11825W        W28672  10.063  11.287   1.334  0.4478 -0.1529 -0.1278
11826W        W28673   6.995  18.188   2.420  0.0185  0.4118  0.0394
11827W        W28674   7.896   9.920  11.826 -0.2933  0.0349 -0.2520
11828W        W28675   8.139   1.419  10.802  0.0361  0.0160  0.0438
11829W        W28676  17.110   1.885   2.248  0.2261 -0.1705 -0.2038
11830W        W28677   3.187   0.938  14.178  0.1236  0.0559 -0.1491
11831W        W28678   2.552  10.987  14.045  0.2027  0.2193 -0.1287
11832W        W28679   4.495   5.510   2.565 -0.0225 -0.2397  0.3382
11833W        W28680  10.198   1.498   4.314 -0.0977  0.1485 -0.3379
11834W        W28681   3.706  11.398   1.629  0.0388 -0.0693  0.4260
11835W        W28682  18.627   0.508  14.293 -0.1252 -0.0674 -0.0840
11836W        W28683   4.856   6.173  14.291  0.0779 -0.0303  0.0043
11837W        W28684   4.374   5.736   4.763 -0.2615  0.0614  0.0638
11838W        W28685   3.094  16.362   0.002  0.0633  0.2349 -0.3134
11839W        W28686   0.787   7.839  11.790 -0.3750  0.2243  0.0159
11840W        W28687   2.340   9.189   5.569  0.2168 -0.0234 -0.0951
11841W        W28688  12.142  13.442   1.361 -0.0086  0.1978  0.0643
11842W        W28689  16.078   4.788   4.286  0.2734 -0.1116 -0.0552
11843W        W28690  11.203   1.923   4.944  0.0124 -0.0599  0.0520
11844W        W28691  12.280  13.330  14.615  0.1951 -0.1876  0.1239
11845W        W28692   6.857   0.028  13.487 -0.1163  0.0967 -0.0250
11846W        W28693  10.542  12.951   2.304 -0.0501 -0.0923  0.2334
11847W        W28694  13.814  11.498   0.367  0.0367  0.0049  0.1712
11848W        W28695   5.336  16.549   3.264  0.1022 -0.2004  0.0034
11849W        W28696   1.751  14.911  11.092  0.0033  0.2758  0.1468
11850W        W28697  14.154  10.389  12.510 -0.0101  0.0642  0.1867
11851W        W28698   6.888   8.521   1.966  0.1372  0.1088  0.1806
11852W        W28699  11.910  16.991  11.943 -0.0083  0.2640  0.2409
11853W        W28700  13.762   1.061  11.517  0.1895  0.0931 -0.0037
11854W        W28701   5.028  15.920   1.700  0.0661  0.0322 -0.0133
11855W        W28702  12.024   2.555   2.563 -0.1870  0.3979 -0.0720
11856W        W28703   3.248   2.835   2.555 -0.1130 -0.5043 -0.0152
11857W        W28704  10.854   2.410  14.175 -0.0121 -0.1024 -0.1347
11858W        W28705   2.246   4.417   2.478 -0.0768  0.0385 -0.2456
11859W        W28706   4.804  18.355  12.779  0.2266  0.3436  0.1017
11860W        W28707   8.799   5.834   1.430 -0.2426  0.1190  0.1114
11861W        W28708  18.449  12.874   3.935 -0.0209 -0.1447  0.1381
11862W        W28709   5.954   2.369   2.975 -0.2694 -0.1000 -0.2077
11863W        W28710  18.114  16.536   3.089 -0.0656 -0.1604 -0.0318
11864W        W28711  13.837   9.269   5.695  0.1140 -0.1140 -0.2183
11865W        W28712   4.562  10.081   4.705  0.1677  0.0095  0.1059
11866W        W28713  13.970  17.384   4.132 -0.0836 -0.2270 -0.1240
11867W        W28714  11.698   5.233   4.103 -0.1526 -0.3966 -0.0445
11868W        W28715   2.244  13.686   4.387  0.1893 -0.4357  0.0098
11869W        W28716   5.460   0.048   3.072 -0.3186  0.0343  0.3686
11870W        W28717  16.142   0.890  14.963  0.1306 -0.1251  0.0622
11871W        W28718   2.153  15.374  12.358  0.0798  0.2482  0.2337
11872W        W28719   5.793   8.768  13.181  0.0663  0.0097 -0.0090
11873W        W28720   4.155  16.176   1.950 -0.2047  0.1403 -0.3043
11874W        W28721   4.320  10.766   3.291 -0.0121 -0.0109  0.0697
11875W        W28722  15.028  17.316   2.617 -0.1032  0.1100  0.1460
11876W        W28723   3.168   9.394   3.402 -0.3062  0.1722  0.5419
11877W        W28724  12.449  17.643  11.955 -0.1444  0.0541 -0.0002
11878W        W28725   5.568   5.711  13.833 -0.1589  0.2408 -0.3206
11879W        W28726   2.796  10.803  12.699  0.0803 -0.2463 -0.3989
11880W        W28727   9.184   1.371   0.821 -0.1634 -0.2864 -0.1645
11881W        W28728  14.870   6.781  12.970  0.1094  0.1187 -0.0816
11882W        W28729  17.442  12.631  14.700 -0.0024 -0.1974  0.1100
11883W        W28730  12.882   1.827   3.955  0.1597 -0.2325  0.0532
11884W        W28731  12.710  11.332   0.243  0.4467  0.0656 -0.0753
11885W        W28732  17.734  16.440   3.412  0.2407 -0.0146 -0.0885
11886W        W28733   5.398  18.320   3.984 -0.1777  0.0378  0.3972
11887W        W28734  17.488  10.239  14.574  0.1161  0.1386  0.3223
11888W        W28735  13.325  17.740   4.820 -0.0669 -0.1660 -0.1503
11889W        W28736   9.746  11.923   3.479  0.0706  0.2397  0.0679
11890W        W28737  17.917  12.581   9.823 -0.0733 -0.0937  0.2760
11891W        W28738   9.267  10.643   2.789  0.1433  0.0422  0.0559
11892W        W28739  10.188   1.147   2.542  0.2198  0.2722 -0.0151
11893W        W28740   8.180  17.728  14.991 -0.1435  0.3642  0.1340
11894W        W28741  13.903   9.036   0.842  0.1362  0.1812 -0.0167
11895W        W28742   2.663   9.770  14.787 -0.0616  0.2218 -0.2601
11896W        W28743  16.913   0.296   3.602  0.0207  0.0304  0.0062
11897W        W28744   3.967   5.762   3.260 -0.1084 -0.1391  0.1655
11898W        W28745   1.967  16.585  11.670 -0.4134 -0.0501 -0.1820
11899W        W28746   1.145  15.805   2.084 -0.3547 -0.3825 -0.1620
11900W        W28747   0.109   9.218   0.300 -0.0608 -0.0354  0.1487
11901W        W28748  15.024  17.848  14.518 -0.0014 -0.0335 -0.0087
11902W        W28749   5.647  13.447   3.614 -0.0483  0.1013 -0.0256
11903W        W28750  15.751  16.668   3.742  0.0373 -0.1078  0.0513
11904W        W28751  17.451  13.377   3.422  0.2640  0.5327  0.3942
11905W        W28752   1.876   3.428  15.484 -0.1866  0.0460  0.5408
11906W        W28753   4.145  11.113   1.632 -0.1507  0.3618  0.0244
11907W        W28754   7.729   1.922   0.876 -0.0168  0.0382  0.0103
11908W        W28755  12.200   7.505  12.683  0.0373 -0.0932  0.0481
11909W        W28756  18.816   7.193   3.451  0.0573 -0.1608  0.2104
11910W        W28757  17.141  16.102  11.257  0.0830  0.0055  0.1403
11911W        W28758  16.931  17.827  11.249  0.3144  0.2040  0.2148
11912W        W28759  13.343  11.036  14.743 -0.4477 -0.2759 -0.1913
11913W        W28760   4.501   9.480  11.737  0.1097  0.4363  0.0387
11914W        W28761   8.180  10.470   0.660  0.0304 -0.0337 -0.0318
11915W        W28762   3.418  10.931  11.445  0.0512 -0.3061 -0.0624
11916W        W28763  10.828  13.034  13.937  0.0344  0.2676  0.0383
11917W        W28764   1.701  17.919  13.573 -0.1085  0.0978 -0.0432
11918W        W28765   8.485  17.764   5.582 -0.0083 -0.2560 -0.1495
11919W        W28766   0.833   5.572  13.171 -0.0123  0.3073  0.0195
11920W        W28767   7.855  13.497   4.425 -0.3955 -0.1047 -0.1596
11921W        W28768   2.611   4.375   4.811 -0.0441 -0.0253  0.2597
11922W        W28769   0.028  18.104  13.665  0.0725 -0.1894  0.0467
11923W        W28770   3.818   3.113   4.743  0.1452  0.0291 -0.2920
11924W        W28771  16.694  17.185  15.066 -0.1138 -0.0434 -0.0800
11925W        W28772   2.338   2.349   1.366 -0.2571  0.1285  0.1169
11926W        W28773   5.173   1.335   4.200  0.1970 -0.2468 -0.2639
11927W        W28774  14.104  14.206   0.510 -0.4199 -0.1210 -0.2728
11928W        W28775   6.134  15.836  10.518  0.1834 -0.0274 -0.4418
11929W        W28776   2.709  17.124   5.159  0.1020  0.1879 -0.2697
11930W        W28777  18.233  11.202   0.293 -0.1305  0.1622 -0.2561
11931W        W28778  18.611   7.662  15.254  0.1895  0.0317 -0.2554
11932W        W28779  17.362  18.241  14.794  0.0762 -0.0052 -0.0533
11933W        W28780   2.388  14.951   1.192  0.1223 -0.0842 -0.2173
11934W        W28781  10.639   5.701   1.516 -0.1422 -0.3730 -0.3447
11935W        W28782  15.740  11.059  13.968 -0.1937  0.3523  0.0973
11936W        W28783   2.604  13.203  11.326  0.1028 -0.0783 -0.0651
11937W        W28784  17.378   1.378   0.426 -0.0071 -0.3068  0.1468
11938W        W28785   2.658   2.818   3.077  0.1354  0.0192  0.1793
11939W        W28786   2.689   4.970  12.752  0.0689 -0.0771  0.1518
11940W        W28787  17.534   4.466  11.187 -0.0946  0.1488 -0.4020
11941W        W28788  11.793   0.275  15.183  0.0307 -0.0487  0.2176
11942W        W28789   6.291   4.502   2.156 -0.0336 -0.0257 -0.2778
11943W        W28790   3.606   8.485  13.397 -0.0151  0.2519 -0.0985
11944W        W28791   2.573  15.548  15.006  0.0621 -0.2990 -0.0167
11945W        W28792  14.274  10.693   4.528  0.1510 -0.1120  0.2076
11946W        W28793   4.704   7.804   4.471 -0.1767 -0.1915 -0.1959
11947W        W28794  11.611   5.039  13.275  0.0712 -0.0972 -0.0781
11948W        W28795  17.311  16.520  13.662  0.1492 -0.2099 -0.1572
11949W        W28796  13.240   3.198   1.571 -0.2435 -0.1919  0.1329
11950W        W28797  17.064  11.371  12.507  0.2222 -0.1001 -0.1756
11951W        W28798  12.139  11.608   4.779  0.0325 -0.1227  0.0365
11952W        W28799  11.581  13.740   3.292  0.1031  0.0469 -0.0465
11953W        W28800   1.823   8.506   5.171 -0.0117 -0.0457  0.0740
11954W        W28801   7.484   0.509   1.269 -0.1584 -0.4268 -0.0306
11955W        W28802  11.947   0.907   2.213 -0.0967  0.0355 -0.2324
11956W        W28803  10.529  16.006   4.953 -0.1222  0.0456 -0.1311
11957W        W28804  11.328  14.297  14.274 -0.3636 -0.2487 -0.2259
11958W        W28805  15.131   2.135  12.328 -0.2422  0.0855 -0.1814
11959W        W28806   6.567  14.205  11.863  0.2146 -0.1525 -0.2440
11960W        W28807   9.611   0.338   2.132 -0.0454  0.1345 -0.0050
11961W        W28808   4.988   4.176  12.177 -0.3518 -0.2777 -0.0847
11962W        W28809   5.577   3.202   4.485 -0.0109  0.0342 -0.0247
11963W        W28810   6.767  12.368  14.074 -0.1483 -0.1496 -0.0072
11964W        W28811  15.624  18.184   4.628 -0.3666  0.4998  0.1337
11965W        W28812   4.179  16.852  10.933 -0.3014 -0.1168  0.1282
11966W        W28813   7.044   5.776  14.706 -0.1279 -0.1170  0.2818
11967W        W28814   3.119   6.624   4.487  0.0992  0.3150 -0.0264
11968W        W28815  18.011   4.242   2.855  0.1725  0.2489  0.0799
11969W        W28816   6.084   9.315  14.440 -0.1053 -0.0842  0.0279
11970W        W28817  13.795   4.882   1.402 -0.0934 -0.3316  0.0339
11971W        W28818   3.238   4.591  14.094  0.2303 -0.0934 -0.0321
11972W        W28819  18.220   4.833   3.805  0.3332 -0.2293 -0.0778
11973W        W28820  10.781  14.332  12.927 -0.0720 -0.1211 -0.0298
11974W        W28821   8.193  12.060   3.836 -0.1346  0.0167  0.0334
11975W        W28822  12.493   1.826   3.085  0.1083 -0.3602 -0.0107
11976W        W28823   0.162   6.912   2.396 -0.0686 -0.0864  0.1273
11977W        W28824  15.874   0.037  12.129  0.0153 -0.1393  0.0310
11978W        W28825  10.921   2.141  15.527  0.0989  0.0792  0.0643
11979W        W28826  15.206   6.920   0.932  0.1512 -0.0620 -0.1208
11980W        W28827   6.594  11.946   3.278 -0.0103  0.2273  0.0717
11981W        W28828  16.412   4.381  15.052 -0.1573 -0.0829 -0.0225
11982W        W28829   0.155   0.485  15.125  0.1518  0.0138  0.0097
11983W        W28830   3.008   2.218   2.375  0.1821  0.1769  0.2666
11984W        W28831   6.722  11.373  13.932  0.5007  0.0549 -0.3412
11985W        W28832  18.646  10.165  11.691 -0.0942 -0.1116  0.1133
11986W        W28833   5.368  18.043  14.545  0.2027  0.0027 -0.2575
11987W        W28834  12.837   7.770  12.584  0.0380 -0.2371 -0.0580
11988W        W28835  16.325   7.944  13.449  0.0622 -0.2678 -0.0014
11989W        W28836  17.967   3.718   4.648  0.0261 -0.3214 -0.3394
11990W        W28837  18.092  18.346  14.565 -0.1485 -0.1172 -0.0001
11991W        W28838  11.015   7.737  11.662 -0.0659 -0.1482 -0.1837
11992W        W28839   4.846   9.795   3.236  0.0289 -0.0639  0.1078
11993W        W28840  15.463  10.839  11.570 -0.1165 -0.0506  0.0022
11994W        W28841  11.312   5.784   2.217  0.1239 -0.4799 -0.0843
11995W        W28842   9.050  14.221   1.481  0.1076 -0.0564  0.1108
11996W        W28843   7.438   1.738   5.491 -0.0568  0.1871  0.2881
11997W        W28844  16.076  17.054   0.646 -0.1697  0.2086  0.2122
11998W        W28845  13.552  10.246   0.928  0.0513 -0.2166 -0.1038
11999W        W28846  13.676  15.457  12.287  0.0137 -0.0831 -0.0020
12000W        W28847   2.432   0.446  13.285 -0.4534 -0.1467 -0.0730
12001W        W28848   8.163  18.841  12.645 -0.0476 -0.1092  0.2194
12002W        W28849   2.017  11.638   2.858 -0.0591 -0.0126 -0.0038
12003W        W28850   5.854  10.519  11.431 -0.1255  0.0030  0.1216
12004W        W28851  10.643  12.559   2.638 -0.0053 -0.0431  0.0602
12005W        W28852   1.733   2.129  15.228  0.0603  0.4103  0.2661
12006W        W28853   6.552  15.927  10.774 -0.2524 -0.1314  0.2363
12007W        W28854  16.686   2.976   2.028 -0.0691 -0.0836 -0.1183
12008W        W28855   3.362  13.017   4.634  0.1045  0.1451 -0.1316
12009W        W28856  13.205   6.661   2.775  0.0730  0.2308 -0.2730
12010W        W28857   9.588   5.298   1.685 -0.2488  0.3600  0.0873
12011W        W28858   0.080   9.925  14.007 -0.3211  0.0404 -0.0651
12012W        W28859   3.008  18.725  14.215  0.1124 -0.2541  0.0099
12013W        W28860   2.928   5.994   0.041  0.1905 -0.0105  0.0860
12014W        W28861  13.354  16.657  14.229 -0.2542  0.1099 -0.0710
12015W        W28862  16.865  13.884   4.591  0.0975 -0.1384 -0.1079
12016W        W28863   3.783   2.146  12.301  0.0133  0.2102  0.1257
12017W        W28864   4.883   3.842   1.059  0.2309  0.1264  0.1610
12018W        W28865   0.402  14.937  11.003  0.3056 -0.1051 -0.0921
12019W        W28866   5.194  12.714  14.827 -0.2274 -0.3407 -0.0035
12020W        W28867   5.090   3.828  11.829  0.1370 -0.2739 -0.2937
12021W        W28868  13.603  10.202   0.404  0.1333  0.0827  0.1302
12022W        W28869   5.601  12.741  12.406 -0.0018  0.1793  0.1854
12023W        W28870   9.304  17.827   2.097 -0.2813  0.0606  0.0026
12024W        W28871  16.497   3.662  11.833  0.0781 -0.0812  0.0542
12025W        W28872   5.322  14.440  14.580 -0.0523  0.0274 -0.2700
12026W        W28873  13.034   1.356  11.206 -0.1254  0.1804 -0.0446
12027W        W28874   6.927  16.115   4.126  0.0761 -0.2486  0.1184
12028W        W28875   5.327   1.770   4.061 -0.2293 -0.1577 -0.1815
12029W        W28876   3.843   6.913   2.826 -0.2138  0.1698  0.3375
12030W        W28877   0.816   1.212   4.095  0.2195  0.3112 -0.1746
12031W        W28878   9.533   1.587  15.526  0.1515  0.1611 -0.1449
12032W        W28879  16.869   2.055   3.130 -0.1712  0.0921  0.1263
12033W        W28880  11.000   9.070   2.361 -0.0254  0.0203  0.1362
12034W        W28881  16.094   5.924   5.680  0.1480  0.1379 -0.1964
12035W        W28882  15.530   0.059  11.504 -0.2147  0.4342 -0.1704
12036W        W28883   8.737  15.972  12.993 -0.1563  0.3973 -0.3321
12037W        W28884   7.487  10.794   3.928  0.3239 -0.0579 -0.3565
12038W        W28885   1.260   5.048  14.537 -0.2188  0.2914 -0.4731
12039W        W28886  13.854  16.895   1.907 -0.1364 -0.0193  0.2074
12040W        W28887  16.486  13.681  10.799 -0.1449 -0.1202 -0.0421
12041W        W28888  13.113   3.086  11.993  0.0758 -0.0579  0.0705
12042W        W28889   3.141   1.901   3.526  0.1415  0.1632 -0.0995
12043W        W28890   0.548   3.391  10.379  0.0179 -0.0791  0.0354
12044W        W28891   5.280   0.306  11.939 -0.1091  0.1590 -0.1416
12045W        W28892   9.306  17.102   3.773 -0.5214 -0.0750  0.3734
12046W        W28893   4.851  16.525   4.911  0.3626  0.1650 -0.1911
12047W        W28894   2.874   2.705  14.218  0.4569 -0.0774  0.0862
12048W        W28895  14.563   4.153  13.687 -0.0541  0.0945  0.0839
12049W        W28896   6.747   0.440  12.154 -0.1469 -0.1168 -0.1896
12050W        W28897  17.835   6.162   2.857 -0.0602  0.4066 -0.1361
12051W        W28898   1.022  13.219   4.955 -0.1866  0.2932 -0.2443
12052W        W28899   4.406   9.402   2.569 -0.2220  0.3551 -0.3873
12053W        W28900   9.117  15.893  15.498 -0.0032 -0.0792 -0.0799
12054W        W28901  14.597   4.931  14.992 -0.1173  0.2765  0.2437
12055W        W28902   8.976   5.505  13.506 -0.1048 -0.0371 -0.1390
12056W        W28903   9.339  13.313  11.852 -0.2834  0.0404  0.0373
12057W        W28904  14.172   1.607   5.719  0.0460 -0.2707  0.1384
12058W        W28905   8.838   0.963  11.895 -0.0443 -0.1682  0.2175
12059W        W28906   8.291  16.571   3.367  0.3356  0.4455  0.3222
12060W        W28907   0.351  12.724   4.717  0.0413  0.3268 -0.0773
12061W        W28908  15.218   0.589  13.924  0.1120 -0.0353  0.2778
12062W        W28909  17.165  10.439  15.542 -0.2214  0.2423  0.2243
12063W        W28910   3.265  14.831  13.993 -0.2013 -0.0373 -0.0463
12064W        W28911   9.238  13.899  15.157 -0.0196  0.0886  0.1886
12065W        W28912   5.477  12.026  13.484  0.1062  0.1327  0.1831
12066W        W28913   4.270   0.633   9.661  0.2459 -0.0408  0.1709
12067W        W28914  10.710  18.555   1.738  0.1568  0.0032 -0.2065
12068W        W28915   9.452   3.008   2.042  0.1150  0.0346  0.0727
12069W        W28916  12.361   0.358  13.491 -0.3417 -0.0989 -0.3231
12070W        W28917   4.152   8.456   4.776  0.0900 -0.1073  0.0254
12071W        W28918  13.143   8.782   4.526 -0.0246  0.2538 -0.0508
12072W        W28919  10.281   1.682  13.200 -0.0820 -0.1352  0.0781
12073W        W28920  13.772   3.124   5.553 -0.0674 -0.1642  0.1176
12074W        W28921   3.501   3.822   2.419 -0.1345  0.2267 -0.2709
12075W        W28922   0.455  18.144  14.733 -0.0365  0.1460 -0.1062
12076W        W28923   1.038   0.595  12.281  0.0842  0.1365  0.0281
12077W        W28924   0.429   8.528   0.810  0.4036  0.0909 -0.1598
12078W        W28925  10.891  16.836  11.816  0.1766  0.2469  0.0385
12079W        W28926  18.744   8.790  12.259 -0.1577 -0.2224 -0.3114
12080W        W28927   5.691  15.775   4.245 -0.2106  0.0822 -0.1433
12081W        W28928  11.440   0.940   3.137 -0.3094 -0.0784  0.1530
12082W        W28929   5.448   8.546   2.728  0.0028 -0.3636 -0.0881
12083W        W28930  15.276  10.426   1.677 -0.0961 -0.1276  0.4020
12084W        W28931  13.510   8.097   0.018 -0.1032 -0.3297 -0.1033
12085W        W28932   4.566  17.818   3.071  0.2387 -0.3285 -0.2619
12086W        W28933  16.352  12.081  12.702  0.3441  0.1034  0.2828
12087W        W28934  15.117   4.154  13.746  0.0303  0.0343 -0.0272
12088W        W28935  12.323  11.967  13.027 -0.3107  0.1890 -0.4225
12089W        W28936  16.812  14.718  15.010 -0.1863 -0.2317  0.1162
12090W        W28937  10.186  13.093  14.497  0.0542 -0.1857 -0.2111
12091W        W28938  18.757  17.379   0.546 -0.1946 -0.1594  0.2755
12092W        W28939   8.906  15.054  12.543  0.0075  0.0604 -0.3349
12093W        W28940  15.036  12.789   0.629 -0.0632 -0.2894  0.1875
12094W        W28941  15.800   6.803   0.122  0.2614 -0.1844 -0.2849
12095W        W28942  14.192   2.894   1.478 -0.0848 -0.1567 -0.0680
12096W        W28943  17.775  13.509   1.019 -0.0128  0.3483  0.1340
12097W        W28944  14.917   5.955  11.022  0.2286  0.1289 -0.0970
12098W        W28945   0.888  17.732   9.490  0.2520 -0.0325 -0.1476
12099W        W28946  13.985   6.443   2.701  0.0265  0.0371  0.1196
12100W        W28947   4.235   7.239  14.377  0.0091  0.1526  0.3202
12101W        W28948   8.311  18.092   4.146  0.2077 -0.0765  0.1691
12102W        W28949   5.104   2.152   4.317  0.1224 -0.0682 -0.4124
12103W        W28950   3.624  10.681   4.021 -0.0106  0.1145  0.2853
12104W        W28951   3.606  15.305   5.245 -0.3464  0.0593 -0.4596
12105W        W28952   0.228   3.981   4.731 -0.1403  0.1136  0.0391
12106W        W28953  13.138   9.215   3.766 -0.0108  0.1561 -0.0790
12107W        W28954   7.954   6.248  13.383  0.2260 -0.2467 -0.1603
12108W        W28955   8.514   8.279   3.076 -0.3178  0.0504 -0.1528
12109W        W28956  15.676  13.434  10.839  0.4029  0.1225  0.1802
12110W        W28957   3.805   7.781   2.664 -0.1099  0.0288 -0.1943
12111W        W28958  17.509  11.175  12.797 -0.0395  0.0624  0.1488
12112W        W28959  11.010   8.558  11.833 -0.2919 -0.4321 -0.0903
12113W        W28960   3.073   2.763  12.879  0.0413  0.0497 -0.1250
12114W        W28961   1.982   0.852   3.544 -0.2450 -0.2216 -0.0053
12115W        W28962   4.560  16.008  12.918  0.2174 -0.0681  0.2063
12116W        W28963  13.209   9.080  12.636 -0.2512  0.0960  0.0555
12117W        W28964  16.926  17.718   3.821 -0.0653  0.0850 -0.1189
12118W        W28965   3.957   3.301   3.798  0.2903  0.3786  0.0888
12119W        W28966   0.910   7.078   1.068 -0.1395 -0.0256 -0.0832
12120W        W28967   6.685  12.514   0.441 -0.2061  0.0983  0.5716
12121W        W28968  10.866   5.813  11.866 -0.0756  0.2359  0.1541
12122W        W28969  18.069  16.052  10.389 -0.1432  0.1273  0.0629
12123W        W28970   4.979   0.492   2.101  0.0758  0.0824  0.1666
12124W        W28971   7.023  10.104   4.456 -0.1567  0.1363 -0.2311
12125W        W28972   1.985  17.848  13.170 -0.1420 -0.3394  0.1786
12126W        W28973   4.967   1.006   0.509 -0.4731  0.0009 -0.0445
12127W        W28974   4.315  16.704   0.759 -0.1561 -0.2713  0.0809
12128W        W28975  18.329   3.438  14.945  0.1388 -0.2704  0.1226
12129W        W28976  11.756   9.550  11.579 -0.3578  0.0608 -0.1138
12130W        W28977   7.821   0.580   2.322 -0.2595 -0.1328  0.1952
12131W        W28978  15.061   3.863   3.201  0.0422  0.1810  0.2297
12132W        W28979   8.726   5.256  11.594 -0.0987 -0.2157  0.1408
12133W        W28980  18.840   8.632  13.648  0.4241  0.0463  0.2135
12134W        W28981   6.923  12.631  10.993  0.0303  0.0441  0.1056
12135W        W28982  10.425   7.537   2.571  0.2597 -0.1945  0.0152
12136W        W28983  13.881   1.649   2.422 -0.2532 -0.0627 -0.1168
12137W        W28984  18.287  12.377   3.881  0.1305  0.0931 -0.3795
12138W        W28985   9.086  11.550  12.164  0.1555 -0.1296 -0.4286
12139W        W28986   7.892  15.203  15.220 -0.2998  0.1524 -0.0157
12140W        W28987  16.866  15.748   4.720  0.3071 -0.0233  0.2901
12141W        W28988   9.884  10.513  11.167 -0.0248 -0.2275  0.5482
12142W        W28989   8.115  18.574   0.744  0.0659  0.1016  0.1615
12143W        W28990  15.475  12.643   0.198 -0.0402  0.0295  0.0563
12144W        W28991   1.076   8.828   0.667  0.2874  0.0989  0.2590
12145W        W28992  17.559  17.383   0.423 -0.1428  0.1619 -0.0682
12146W        W28993   7.459   5.423  14.545  0.0457 -0.0926 -0.0480
12147W        W28994  13.112   6.275   0.115 -0.1031  0.0482 -0.2350
12148W        W28995   9.544   4.138  11.883 -0.1905 -0.1899  0.0957
12149W        W28996   0.727  10.619   0.193 -0.1856 -0.2644  0.2001
12150W        W28997   8.819   3.343   5.279 -0.0849  0.3881  0.0024
12151W        W28998  10.851   3.237   2.796 -0.3816 -0.1866 -0.0634
12152W        W28999   8.982   6.589   0.018  0.0114 -0.1018  0.1901
12153W        W29000  13.973  15.598  13.716  0.2281  0.1432  0.2607
12154W        W29001   1.874   2.779  14.081 -0.1465 -0.0809 -0.2761
12155W        W29002   4.043   6.738  12.321 -0.0777 -0.0835 -0.0818
12156W        W29003   1.486  11.280  10.188 -0.0182 -0.0739 -0.0237
12157W        W29004  14.002  10.627  12.908  0.0213 -0.1799 -0.0766
12158W        W29005  11.907  11.064  14.994  0.0429  0.1176  0.1220
12159W        W29006  14.041  18.481  11.255  0.0376 -0.0544  0.0911
12160W        W29007  17.547  18.047  10.655  0.0560 -0.0505  0.0864
12161W        W29008   2.246  10.606  12.466 -0.1234 -0.1383  0.1488
12162W        W29009   6.967   0.616   5.207  0.2554 -0.0603  0.2585
12163W        W29010   6.251   8.208   4.677 -0.1195 -0.3304  0.0477
12164W        W29011  13.436   3.226   4.543 -0.2593 -0.0975 -0.0372
12165W        W29012  10.316   2.853   0.634 -0.0858  0.0792 -0.0199
12166W        W29013   8.430  10.346   1.240 -0.0298  0.2200 -0.1851
12167W        W29014  12.945  10.870   0.509 -0.1229  0.0719 -0.0021
12168W        W29015   2.262   5.399   1.015 -0.2288  0.0720  0.0315
12169W        W29016  15.545  18.674  12.477  0.1134 -0.1303  0.0065
12170W        W29017   9.901  10.594  12.680  0.0367  0.1386 -0.0551
12171W        W29018   2.453   3.576   2.118  0.0105 -0.1196 -0.0030
12172W        W29019   9.324   4.766   0.449  0.2615 -0.0703 -0.3309
12173W        W29020  16.412  17.737  15.464 -0.1351  0.0896 -0.0196
12174W        W29021   6.743   4.767  14.596 -0.1234  0.0031  0.0215
12175W        W29022  16.104  17.477   3.453 -0.2464  0.2833 -0.0466
12176W        W29023   3.489   0.152  10.989  0.1216  0.0564 -0.3952
12177W        W29024   6.535   7.012   2.010  0.0293  0.0480 -0.0021
12178W        W29025   2.991  11.720  10.657  0.0179  0.3053  0.2992
12179W        W29026  11.475   5.554   6.110  0.1833 -0.0055  0.0886
12180W        W29027  18.838  10.195   1.543 -0.0848 -0.0133 -0.0056
12181W        W29028  16.460   3.938  11.434  0.1043 -0.0832 -0.1315
12182W        W29029  14.846   5.961  14.999  0.0649  0.0702 -0.1310
12183W        W29030   8.687  17.998   2.186  0.3700  0.1245  0.1012
12184W        W29031   4.846   4.544   4.084 -0.0184  0.2121  0.0070
12185W        W29032   1.194   7.061   4.028  0.1765  0.0492  0.1662
12186W        W29033  13.122  12.055  11.384 -0.3484 -0.0815 -0.0709
12187W        W29034   3.931   5.803  11.111  0.2977 -0.0472 -0.1633
12188W        W29035  18.453   1.696  11.211  0.1386 -0.0796 -0.1209
12189W        W29036  11.896   7.472   2.982 -0.3163 -0.0262  0.0198
12190W        W29037   7.952  12.951   0.471  0.0604  0.0337  0.0423
12191W        W29038   8.525   0.848   2.137  0.1439  0.1008  0.0645
12192W        W29039   8.774  14.514  13.505 -0.2005  0.0413 -0.5288
12193W        W29040   9.816   4.904   0.566  0.0958  0.1331  0.2108
12194W        W29041  14.444   1.555   2.523  0.1446  0.1850  0.0582
12195W        W29042   6.222   6.808  15.436 -0.0400 -0.0359 -0.0528
12196W        W29043   5.920   6.950   5.183  0.1374  0.2086  0.2361
12197W        W29044   9.524  10.804   2.398  0.0381 -0.2064  0.2290
12198W        W29045  16.232   0.534  12.717  0.2024 -0.0888 -0.1263
12199W        W29046  12.006  12.776  11.504 -0.3165  0.0679  0.0210
12200W        W29047  11.993  13.529   4.673  0.0228 -0.4426  0.0024
12201W        W29048   4.052   7.056  12.736 -0.1453  0.0499 -0.3135
12202W        W29049   8.978  10.069  14.608  0.1412  0.1108  0.1546
12203W        W29050   9.742   8.307  11.914 -0.1574  0.0464  0.0237
12204W        W29051   3.690   9.304   3.466  0.0771  0.3312  0.1461
12205W        W29052   8.971  18.738   5.004  0.2158 -0.2410 -0.2813
12206W        W29053  13.632   0.156   3.924  0.0841 -0.2690 -0.2783
12207W        W29054   4.965  17.152   4.311  0.3423 -0.2968  0.1016
12208W        W29055   7.664  14.456  14.455  0.1246 -0.0079  0.2560
12209W        W29056  17.985  10.529  12.935 -0.3269  0.2392 -0.0024
12210W        W29057   8.807   4.099   1.075 -0.0209  0.2620  0.2014
12211W        W29058  16.754  13.607  14.153  0.1474 -0.1993 -0.1715
12212W        W29059  14.944   1.401   5.142  0.0183  0.3746  0.2144
12213W        W29060   5.891   4.149  11.919  0.0244 -0.1436  0.0362
12214W        W29061  11.406  13.753  13.603  0.0994  0.0032 -0.0133
12215W        W29062  13.838  14.538   4.634  0.4024  0.2718  0.0253
12216W        W29063  10.646   8.724   2.488  0.2485 -0.0555 -0.1190
12217W        W29064   4.573  11.031   3.601 -0.2079  0.2556 -0.0918
12218W        W29065  12.882  13.874  10.844  0.0763 -0.1755 -0.0851
12219W        W29066   0.763   2.312   1.336  0.0897 -0.1208  0.2108
12220W        W29067   2.202  17.501  12.821  0.0991  0.1215  0.0875
12221W        W29068   3.848  14.187  15.402 -0.0080  0.0554 -0.2117
12222W        W29069   6.590  18.693  13.055  0.0725 -0.1206  0.0994
12223W        W29070  15.263  15.800   2.290  0.2302 -0.1253 -0.0118
12224W        W29071  11.052   8.525   5.548  0.0833  0.0006  0.0340
12225W        W29072  16.516  15.521   2.071  0.1690  0.1001 -0.0235
12226W        W29073   5.780  14.258   3.015  0.1937  0.0552 -0.0124
12227W        W29074   5.497   6.668   1.621  0.0452 -0.1412  0.0372
12228W        W29075  13.279  16.485   3.461 -0.0656 -0.2815  0.1999
12229W        W29076   7.764   0.235   4.604  0.1031  0.0783 -0.2008
12230W        W29077  16.490  17.576  11.915  0.2284 -0.0804 -0.2401
12231W        W29078  12.354   0.474   3.811  0.1703  0.3017  0.2302
12232W        W29079  10.381   5.976   1.186 -0.1430  0.0663 -0.0519
12233W        W29080  16.939   4.528  11.485  0.3072 -0.2138  0.0839
12234W        W29081  13.916   8.809   4.568  0.0023 -0.0207 -0.0917
12235W        W29082  10.216   0.928  13.003 -0.0845 -0.0950  0.0384
12236W        W29083  12.128  17.137  13.256 -0.1093  0.1378 -0.0399
12237W        W29084   9.707  11.313  12.798 -0.0023 -0.1954  0.3067
12238W        W29085  12.173  11.093  12.520 -0.1789  0.1019 -0.2097
12239W        W29086   7.586  13.626  11.369 -0.1743 -0.0047  0.1461
12240W        W29087   3.104   2.351   0.426 -0.0900 -0.0450  0.2708
12241W        W29088   0.934   8.385   1.685 -0.1232  0.0517 -0.2523
12242W        W29089  17.375  10.740   4.957 -0.0283 -0.0712  0.0341
12243W        W29090   3.411  10.829   3.525 -0.2294 -0.1567 -0.0657
12244W        W29091   9.651   7.058  14.456  0.1128 -0.2907 -0.3530
12245W        W29092  10.747  17.589   5.764 -0.0784  0.1366 -0.3219
12246W        W29093   5.698  18.184  13.817  0.4152  0.0223  0.2513
12247W        W29094  14.642  11.799  14.163 -0.1545  0.0689  0.1144
12248W        W29095  14.058  17.888  13.597 -0.1300  0.0676  0.0335
12249W        W29096   6.078  16.728   2.625  0.2634  0.0092  0.3290
12250W        W29097   4.842   8.684  12.362  0.2127 -0.1822  0.0283
12251W        W29098   6.233  15.399  15.089 -0.2605  0.1121 -0.0902
12252W        W29099   8.813   8.088   5.214  0.2154  0.2949  0.0278
12253W        W29100   2.907  10.990   4.720 -0.3265 -0.1737 -0.1417
12254W        W29101   7.771  16.959   1.963  0.1481 -0.1197 -0.0528
12255W        W29102   3.532  11.100   3.112 -0.1219  0.1617 -0.1998
12256W        W29103   2.253   3.663  11.146  0.0444  0.1520  0.1172
12257W        W29104   8.703  12.881  12.841 -0.0862  0.2678  0.2200
12258W        W29105   5.765   5.858   4.451 -0.1319  0.2202  0.0509
12259W        W29106  11.950  13.091  13.078 -0.0810  0.0566 -0.1653
12260W        W29107   8.214   2.538  14.648  0.0871  0.2751 -0.0144
12261W        W29108   8.582   9.184   5.619  0.1857 -0.2195 -0.1694
12262W        W29109  17.422   6.314   0.012 -0.1344  0.0748 -0.2828
12263W        W29110   0.638   8.081   3.217 -0.1833  0.0229  0.2365
12264W        W29111   7.256   9.596   3.763  0.0174  0.0339 -0.0097
12265W        W29112  16.119  12.986   1.381  0.0273  0.2255 -0.1418
12266W        W29113  13.685   4.078   0.386 -0.0809  0.3094  0.3667
12267W        W29114   3.238  12.131   1.311  0.0869 -0.0822  0.4556
12268W        W29115   7.836   2.202  12.966  0.1757  0.0601 -0.1277
12269W        W29116   6.357  13.871   1.669  0.2583 -0.0053 -0.0026
12270W        W29117   9.138   3.485  11.582  0.0801 -0.0269 -0.1512
12271W        W29118   5.136   9.615   3.609  0.1988  0.0412  0.0245
12272W        W29119   1.698   1.207   1.613 -0.1098  0.0667  0.2684
12273W        W29120   4.157   7.132   3.846 -0.0648  0.4517  0.1800
12274W        W29121   8.942  10.239  11.077 -0.1781 -0.4062  0.0863
12275W        W29122   7.196   1.816  13.953  0.1776  0.0909  0.1542
12276W        W29123   0.636   2.985   4.423  0.0203 -0.0800 -0.0868
12277W        W29124   1.156  14.962  12.340 -0.0433 -0.0577 -0.0585
12278W        W29125  16.339   7.431   4.132  0.3138  0.1779  0.0788
12279W        W29126  16.175   6.281  14.911 -0.3211 -0.1016  0.0182
12280W        W29127  12.658   9.742  11.377  0.1175 -0.0838 -0.0681
12281W        W29128   0.935   7.495   1.566  0.3350  0.0956 -0.0841
12282W        W29129   0.846  17.901  14.948 -0.1090 -0.0893 -0.0457
12283W        W29130  13.377   7.065  14.113 -0.0490  0.0222 -0.2470
12284W        W29131  16.585  18.040   4.467  0.2810 -0.4344  0.1068
12285W        W29132   3.318   2.335   4.599 -0.0572 -0.0354  0.0932
12286W        W29133   7.013   6.058   3.426 -0.2121  0.1126  0.0832
12287W        W29134  12.375   6.825  14.990  0.2419  0.1969 -0.1257
12288W        W29135   5.172  11.485   3.125 -0.1550 -0.2149  0.1049
12289W        W29136  17.936  13.047  13.472 -0.1400 -0.4269 -0.0965
12290W        W29137  17.894   2.468  13.267 -0.0265 -0.3191 -0.1184
12291W        W29138   1.908   1.411  11.310  0.0852 -0.2420 -0.1316
12292W        W29139   7.486  14.896  10.590 -0.1044  0.0797  0.2780
12293W        W29140  13.005  13.855  11.383  0.1158  0.0294 -0.0097
12294W        W29141  15.434  10.234  13.814  0.1128 -0.2834  0.2245
12295W        W29142   9.834   9.795   0.664  0.1908 -0.1713 -0.0045
12296W        W29143   7.499   6.148  14.816 -0.1759 -0.2071  0.3055
12297W        W29144  13.690  10.712   0.636 -0.1607 -0.1104 -0.0260
12298W        W29145  11.920   8.143  11.666 -0.1746  0.1329  0.0968
12299W        W29146  10.934   5.030  14.031  0.0363 -0.0543  0.2225
12300W        W29147  13.105  11.467  14.526 -0.0005  0.0881 -0.0737
12301W        W29148  14.723  18.288  10.037 -0.0473 -0.0201 -0.4989
12302W        W29149  17.804  13.778   0.034 -0.0387  0.0948 -0.0612
12303W        W29150   5.163  16.734   2.195 -0.0067  0.1583  0.2474
12304W        W29151  13.224   7.166   1.741  0.2774  0.0049 -0.0798
12305W        W29152   0.691  10.965   1.295 -0.1692  0.2026  0.0623
12306W        W29153   6.330   7.127   4.168  0.0227  0.0444  0.1613
12307W        W29154  11.645   5.807  12.706 -0.2116  0.0128 -0.3239
12308W        W29155   1.210  10.488  14.327  0.0754  0.2186  0.1905
12309W        W29156  16.577  17.890   4.982 -0.0934  0.0807  0.0835
12310W        W29157   1.809   4.552   2.684 -0.1380 -0.1391 -0.3352
12311W        W29158   3.923  15.606  10.404  0.2944  0.1759  0.3277
12312W        W29159  10.290  11.205   0.369  0.0236  0.2903 -0.0592
12313W        W29160   7.095   7.948  10.886 -0.3693  0.1820  0.0541
12314W        W29161  15.051  13.229   2.106  0.0608  0.0151  0.3182
12315W        W29162  14.951   8.885  13.157  0.3777  0.0056  0.1239
12316W        W29163  10.814   3.890  11.081  0.1206 -0.1740  0.1008
12317W        W29164   5.921  13.383   4.381  0.1013  0.2570 -0.0285
12318W        W29165  10.928   6.810   5.257 -0.1299 -0.0439 -0.0199
12319W        W29166  12.939   5.351  15.541  0.0685 -0.1427 -0.1686
12320W        W29167   0.917   9.587  13.380  0.2627  0.0001 -0.0717
12321W        W29168   2.956   9.468  11.687  0.1447 -0.1842 -0.0351
12322W        W29169  11.195   7.470   1.179 -0.1658 -0.1566 -0.1862
12323W        W29170  15.248  11.803  14.452 -0.3053  0.4701  0.1369
12324W        W29171  18.726   9.331   1.417 -0.0281  0.2368 -0.1511
12325W        W29172   5.144  15.480  11.779 -0.1233  0.4275  0.2681
12326W        W29173   6.536  12.752  13.251  0.0338  0.3323  0.0130
12327W        W29174   6.386  17.608  13.715  0.1078 -0.1559 -0.1730
12328W        W29175   5.801  11.609  10.763 -0.2836 -0.1983 -0.2244
12329W        W29176   4.456   2.145   2.975 -0.1931 -0.2097  0.0988
12330W        W29177   8.887   6.242  14.257 -0.0055  0.2166  0.0878
12331W        W29178  10.165   7.752   5.738 -0.0521  0.1388  0.2876
12332W        W29179  16.442  13.613   3.472  0.0458 -0.1654 -0.1654
12333W        W29180   5.168  10.830   2.005  0.3094  0.0951  0.0308
12334W        W29181  18.149   0.460  12.406 -0.1149  0.0812  0.0177
12335W        W29182  15.437   7.708   2.269 -0.0490  0.2846 -0.2255
12336W        W29183  10.446   7.431  11.580  0.1380 -0.1401  0.1573
12337W        W29184   8.803  12.091  14.620 -0.0080  0.1835  0.1659
12338W        W29185   0.771   3.610  11.908 -0.0762 -0.0125 -0.0110
12339W        W29186   0.751  11.252   2.357  0.0908  0.1668 -0.1118
12340W        W29187  15.030   6.311  12.932  0.0841  0.1289 -0.0614
12341W        W29188   5.445  18.016   3.401 -0.0266  0.0351  0.0515
12342W        W29189   7.804  11.317   3.309  0.2598  0.0207 -0.0570
12343W        W29190  15.792  17.899  10.803  0.0823  0.0312 -0.0377
12344W        W29191  18.757  17.164  12.643  0.0587  0.4698  0.2206
12345W        W29192   8.547   8.109  11.324  0.2009  0.1379  0.1107
12346W        W29193   8.333   8.414  11.021  0.2697 -0.1522  0.1031
12347W        W29194   8.983  14.032   2.896 -0.2204 -0.0716  0.2935
12348W        W29195  11.755   9.309  15.353  0.1920 -0.0583 -0.0545
12349W        W29196  16.389  11.511   0.120 -0.0311 -0.0578  0.2185
12350W        W29197   0.920  18.631   0.956 -0.1516 -0.0791 -0.0282
12351W        W29198   4.941  16.826   3.723  0.2572 -0.0908 -0.0880
12352W        W29199   8.951   2.177   0.650  0.3076  0.1714 -0.1760
12353W        W29200   9.843  12.259   0.579  0.0657  0.1261 -0.1276
12354W        W29201   3.670  10.610  10.093  0.1780  0.2066  0.0998
12355W        W29202  14.649  10.032  13.330 -0.1727 -0.1688 -0.3972
12356W        W29203   8.450   5.401   0.310 -0.2077 -0.4014 -0.5156
12357W        W29204   8.266  12.263   5.056  0.1775 -0.1254  0.1066
12358W        W29205   2.071   0.905  15.396  0.2236  0.3448  0.0710
12359W        W29206   7.370  15.565  13.579 -0.3173  0.1683  0.0219
12360W        W29207  17.908  14.014   1.343 -0.2754  0.1320 -0.1574
12361W        W29208   9.083  11.689  14.835 -0.1065 -0.2759  0.1359
12362W        W29209  14.684   1.909  13.929 -0.0895 -0.0695 -0.0704
12363W        W29210  17.772  14.763  11.570  0.0838 -0.1741  0.0312
12364W        W29211  17.680   7.807   0.989  0.2969 -0.2730 -0.0940
12365W        W29212   0.173  18.412  10.410  0.1526 -0.0595  0.1620
12366W        W29213   7.483  12.889  10.671  0.4201  0.0151  0.3733
12367W        W29214   2.795  13.601  12.221 -0.0668  0.0402  0.1790
12368W        W29215  16.692   8.211  14.451 -0.0816 -0.1252  0.0869
12369W        W29216   9.882   9.983  10.139 -0.1220 -0.5011  0.4461
12370W        W29217   9.403   0.620  12.054 -0.0164  0.0761  0.0796
12371W        W29218  12.470   0.663   4.733 -0.3265  0.0194 -0.0621
12372W        W29219   3.449   1.746  15.404 -0.2206 -0.1728  0.0288
12373W        W29220   8.988  17.631  14.548  0.0146  0.0508 -0.1252
12374W        W29221   1.748   5.879  15.057  0.0667 -0.1426 -0.3064
12375W        W29222   0.202   8.446   2.548 -0.0942 -0.0669  0.2252
12376W        W29223   2.728  10.240  10.305  0.5326 -0.2323  0.0015
12377W        W29224  15.373  13.532   4.005  0.0447  0.1485  0.1801
12378W        W29225   1.692  15.272  10.763 -0.2424  0.0025  0.0895
12379W        W29226   0.230  15.438   1.533  0.0129  0.1390  0.1619
12380W        W29227   8.729   4.889   5.499 -0.0938  0.1193  0.3026
12381W        W29228  16.044  18.818   3.531  0.1789 -0.0840  0.0600
12382W        W29229   3.101  13.353  13.817  0.0802 -0.0446  0.1137
12383W        W29230  15.756  13.267   0.485  0.2335 -0.2228  0.1335
12384W        W29231  14.918   3.525   0.170  0.0707  0.2242 -0.0256
12385W        W29232   7.641  13.876   2.729 -0.2978 -0.0623 -0.0360
12386W        W29233   9.242   2.379   5.436 -0.1308 -0.0265  0.0994
12387W        W29234   8.573  11.218  15.275 -0.3313  0.2041  0.2228
12388W        W29235   4.408   2.660  14.821 -0.0729 -0.1993 -0.1801
12389W        W29236  13.506  14.464  15.042  0.0248 -0.2030  0.0433
12390W        W29237   5.645   4.342   4.585 -0.0566 -0.0941 -0.2356
12391W        W29238   7.710  14.487  10.370 -0.0444  0.4293  0.0610
12392W        W29239   1.605   1.152   2.623  0.0084  0.2178 -0.1621
12393W        W29240   7.987   6.789  15.221  0.1425  0.1080  0.1708
12394W        W29241   4.242  14.301  11.333  0.1229  0.1241 -0.1079
12395W        W29242  14.432  18.411  15.065  0.0791  0.1445  0.0759
12396W        W29243   0.328  14.653  12.109 -0.2337 -0.0098 -0.2924
12397W        W29244  14.626   4.434   1.016  0.2121 -0.3145  0.2073
12398W        W29245   1.360   4.104   4.531  0.1816 -0.0962  0.2768
12399W        W29246   1.213   4.457   2.978  0.2650  0.2725  0.1593
12400W        W29247  17.431  17.918  11.384  0.0874  0.2097  0.2686
12401W        W29248   3.898   6.031  14.384 -0.2373 -0.3924  0.3131
12402W        W29249   2.878   6.935   3.221  0.0614 -0.2854  0.0068
12403W        W29250  15.931  16.883  11.894  0.0576  0.1839  0.1654
12404W        W29251   1.807   7.430  15.021 -0.2063 -0.0344  0.1389
12405W        W29252   0.986  10.175   4.575 -0.2752 -0.0553  0.1195
12406W        W29253  11.465   4.181  15.127  0.3118 -0.2018 -0.1892
12407W        W29254  13.834  13.877  13.196  0.0830 -0.0190 -0.0587
12408W        W29255   9.618  14.199  13.272  0.5755 -0.0450  0.0796
12409W        W29256   9.370  11.558   3.636  0.2051 -0.0282  0.1218
12410W        W29257   1.400  14.867  14.401  0.0653  0.4379 -0.0426
12411W        W29258  14.698  15.664  14.973  0.2591 -0.3500 -0.0154
12412W        W29259  15.633  14.687   3.797  0.0056  0.0285 -0.1089
12413W        W29260  16.188  14.951   3.577  0.0760 -0.1323 -0.0499
12414W        W29261   5.163   5.883   0.335 -0.1600  0.2756 -0.2089
12415W        W29262  15.026   2.069   2.099 -0.1791 -0.4306 -0.0720
12416W        W29263   1.561  17.355  14.443  0.3168 -0.1734  0.2357
12417W        W29264  12.424  17.901  13.026 -0.1783  0.1316 -0.1485
12418W        W29265   0.060  16.418  13.720  0.0297  0.2042  0.2367
12419W        W29266   0.177  14.089  10.429  0.0576 -0.3018 -0.0313
12420W        W29267  17.312   2.943   5.206  0.0609 -0.0929 -0.3363
12421W        W29268   6.076   9.409   4.261 -0.5180 -0.1171 -0.0114
12422W        W29269  13.476  14.100  12.502 -0.3137 -0.1952  0.1104
12423W        W29270  18.777   2.793  15.302  0.1794 -0.2096 -0.0536
12424W        W29271   2.162  13.665  14.247  0.0516 -0.1728 -0.2471
12425W        W29272   0.869   3.867  13.882  0.1026  0.1064  0.2202
12426W        W29273  15.642  10.157  12.080 -0.0934  0.0868 -0.2410
12427W        W29274   4.061  10.178   2.262  0.3095  0.0397  0.2029
12428W        W29275   0.010   7.240  12.630 -0.2298 -0.0432 -0.0030
12429W        W29276  16.183  15.580  10.463  0.0608 -0.1652 -0.0149
12430W        W29277   8.821  12.648  14.814  0.2237 -0.1822  0.1134
12431W        W29278  11.815   2.478  13.611 -0.0308  0.1049  0.4097
12432W        W29279  10.337   9.218  13.915  0.1258 -0.0458  0.3187
12433W        W29280  18.308   4.278  14.426  0.1309 -0.0962 -0.2138
12434W        W29281   7.297   7.657   3.323  0.0711 -0.1355  0.2589
12435W        W29282   8.603   7.795   3.043  0.0314  0.0200  0.1659
12436W        W29283  13.156  17.320  12.278 -0.0462  0.0016 -0.0267
12437W        W29284   8.558   0.571  11.641 -0.2681 -0.2265 -0.0006
12438W        W29285   9.911   1.495   5.755 -0.0938 -0.0675 -0.0141
12439W        W29286   2.752   9.798   5.847  0.1305  0.1416 -0.2295
12440W        W29287  13.143   1.491   0.069 -0.2354 -0.2682  0.0766
12441W        W29288   5.476   9.400  12.090 -0.1470  0.5157 -0.0168
12442W        W29289   9.187   1.731  14.274 -0.1757 -0.1094  0.1763
12443W        W29290   2.875  13.950  14.540  0.2236 -0.0372  0.0394
12444W        W29291   1.276   3.649   4.324 -0.0443  0.1428 -0.0295
12445W        W29292   6.954  15.684  12.398  0.0115 -0.2296 -0.1878
12446W        W29293   4.958  12.850   2.069  0.3306 -0.1696 -0.0242
12447W        W29294   2.297   4.431  12.588  0.1704  0.1432  0.1504
12448W        W29295   9.175   2.165   5.004  0.0391  0.1283  0.0416
12449W        W29296   1.530  15.567  15.012 -0.2089 -0.1106 -0.0500
12450W        W29297  13.697   9.031  12.952 -0.2008  0.2087 -0.2944
12451W        W29298   9.510   1.220   3.766  0.0962  0.3096  0.3591
12452W        W29299  11.731   7.165  11.752 -0.1745  0.2557 -0.0121
12453W        W29300  14.075  16.072  13.843  0.2056 -0.2260 -0.2651
12454W        W29301  13.687  11.443   4.346  0.1005 -0.1692 -0.2334
12455W        W29302   6.393  18.518  11.022  0.1104  0.1208  0.0102
12456W        W29303   3.388   4.243   4.424 -0.0212 -0.0324  0.2009
12457W        W29304  17.152  14.205  13.040 -0.1385 -0.1778 -0.3362
12458W        W29305   4.053   2.486   2.810 -0.2263  0.0697 -0.0739
12459W        W29306   8.860   3.233  14.353 -0.0991  0.0182 -0.0340
12460W        W29307   8.597  18.026   3.524 -0.0237 -0.0045 -0.1961
12461W        W29308  13.518   9.641   0.312 -0.0822  0.1464 -0.3956
12462W        W29309   7.632  10.237  14.910 -0.1831 -0.1695 -0.0667
12463W        W29310  16.260   4.296   0.816  0.1491  0.0353  0.0602
12464W        W29311   9.888   5.013   1.126 -0.0693  0.1627  0.2764
12465W        W29312   0.220  12.480  12.799 -0.0551 -0.0796  0.1771
12466W        W29313  11.926   3.618   1.805  0.0429 -0.2252 -0.0143
12467W        W29314   0.297  14.232   4.086  0.0228  0.0525 -0.0582
12468W        W29315   2.349   0.007  11.268  0.0580  0.0265  0.0173
12469W        W29316   5.293  18.720   0.475 -0.1763 -0.0243  0.1717
12470W        W29317  16.188   5.840  13.587  0.0161  0.2908 -0.3243
12471W        W29318   1.758  16.156  11.794  0.2371  0.1473  0.0240
12472W        W29319  11.834   0.932  12.261  0.0521  0.2338  0.0201
12473W        W29320  18.365  13.837  13.621  0.2776  0.0882  0.0614
12474W        W29321   7.230  16.236  12.772 -0.2682  0.1069  0.3084
12475W        W29322  15.316   7.816  12.210  0.0377 -0.0999 -0.1786
12476W        W29323  18.485   1.492   2.035 -0.0348 -0.0039 -0.2188
12477W        W29324  13.149  16.425   9.894  0.0252 -0.0575 -0.1795
12478W        W29325  16.749   2.698   9.673  0.1058 -0.2338 -0.0099
12479W        W29326  15.107   0.241  15.221  0.0791  0.1663  0.2445
12480W        W29327  18.033   3.852   2.498  0.2325 -0.1439 -0.1550
12481W        W29328   7.888  18.735  10.551  0.0320  0.4016  0.1535
12482W        W29329   8.345  16.446   4.815 -0.0861  0.0813 -0.3551
12483W        W29330  14.555  14.645   2.678  0.2306  0.1349 -0.1584
12484W        W29331  11.453  14.346   4.184  0.0903 -0.0121 -0.0244
12485W        W29332   2.392   0.449   3.983  0.0874 -0.3088 -0.2183
12486W        W29333  13.253  18.000  11.163  0.0533 -0.2214 -0.3100
12487W        W29334   9.913  13.645   5.881 -0.0848 -0.0112 -0.0274
12488W        W29335   2.080   3.895  14.727  0.3122  0.0359 -0.2196
12489W        W29336  12.062   8.507   0.637 -0.0406 -0.1674 -0.1251
12490W        W29337  15.965   6.518   0.470 -0.4280  0.0637 -0.0234
12491W        W29338  11.794   9.582   3.605  0.0367 -0.0398 -0.2225
12492W        W29339   1.490  12.069  12.592  0.0400  0.1531  0.3186
12493W        W29340   6.861   9.978  10.605  0.0500 -0.1176  0.0421
12494W        W29341  10.543   9.525   2.106  0.0956  0.2928  0.0475
12495W        W29342   3.470  15.965   4.572  0.0093 -0.0179  0.0977
12496W        W29343  16.411   6.698  13.974  0.1786  0.0080 -0.0758
12497W        W29344   2.348   2.221  15.357  0.1356 -0.1667 -0.2314
12498W        W29345  16.435  13.348   2.275  0.4821  0.1355 -0.1987
12499W        W29346   6.279  11.878  11.483 -0.0606  0.0498 -0.0585
12500W        W29347   1.677   9.126  13.515  0.4455  0.1299  0.3002
12501W        W29348   6.840  16.191   5.021 -0.3731 -0.0162  0.1772
12502W        W29349   1.174  14.377   3.539  0.3275  0.3477 -0.1799
12503W        W29350  10.568  14.386  11.323  0.1319  0.1647  0.1572
12504W        W29351  13.389  12.800  14.294 -0.3362 -0.3356  0.1862
12505W        W29352  18.096   6.157   3.327  0.1089  0.1459  0.1648
12506W        W29353  13.483   8.431   1.221 -0.3307  0.0334 -0.1928
12507W        W29354  18.165   0.305  11.943 -0.3587  0.1431 -0.2295
12508W        W29355  11.928  12.436  14.552 -0.1483 -0.0416 -0.1756
12509W        W29356  15.554   4.513   1.937  0.0573 -0.0219 -0.3455
12510W        W29357  11.679   0.727   2.611 -0.1614 -0.1353  0.1300
12511W        W29358   3.868  13.625   3.735  0.3688 -0.0977  0.0872
12512W        W29359  18.592   1.981   3.990 -0.0002  0.1736  0.1417
12513W        W29360  10.607  11.924   2.739  0.2751  0.1327 -0.2410
12514W        W29361  12.050   0.796   1.272 -0.2322 -0.0670 -0.3331
12515W        W29362   7.651  11.197   0.926 -0.0209  0.2114  0.0088
12516W        W29363   1.238   7.951   4.373 -0.1413  0.0667  0.1198
12517W        W29364   1.104   0.583   1.637 -0.1995  0.0445  0.3549
12518W        W29365  11.944   9.763  11.976 -0.2373  0.0545 -0.1167
12519W        W29366  12.306   2.208   2.833 -0.2253  0.1035  0.2605
12520W        W29367  10.280   5.233  11.520  0.0617 -0.4952  0.0657
12521W        W29368  14.311  11.068  11.235  0.1436  0.0950  0.0304
12522W        W29369   5.114  17.730   2.356 -0.0124  0.1595 -0.3158
12523W        W29370  11.999   8.583   1.472  0.1925 -0.0354  0.0740
12524W        W29371  17.720   2.578   3.266  0.0662 -0.1273 -0.1353
12525W        W29372  14.034   2.606  13.111 -0.1650 -0.2462  0.3333
12526W        W29373  17.342   2.625  11.049 -0.0693  0.1094  0.0591
12527W        W29374   3.634  10.547  14.415 -0.2956  0.0959 -0.0117
12528W        W29375   0.040   3.403  12.801 -0.2308  0.0476 -0.2718
12529W        W29376   7.780   6.869   1.292 -0.0822  0.0505  0.0689
12530W        W29377  12.513   4.125  14.882 -0.1097 -0.2383 -0.1267
12531W        W29378   0.650   2.250   3.358  0.3085  0.1042 -0.0358
12532W        W29379   5.102   3.568   2.807 -0.0163  0.0754 -0.3923
12533W        W29380   2.214   1.846  12.768  0.1941 -0.1003  0.0949
12534W        W29381  12.550   8.660  13.018  0.1459 -0.1587 -0.4739
12535W        W29382   2.946   5.699  15.209 -0.0438  0.0530  0.1528
12536W        W29383  10.694   6.297   0.786 -0.0682 -0.0399 -0.3186
12537W        W29384   3.740  14.602  13.675  0.0916  0.0400  0.1133
12538W        W29385   8.591   6.368   3.875  0.3122  0.4017 -0.0607
12539W        W29386   2.350  13.930   1.080 -0.0722 -0.0806 -0.0208
12540W        W29387  12.723   0.960  12.679 -0.0327  0.0108 -0.0348
12541W        W29388  18.293   2.402  11.228 -0.0365  0.2050  0.3916
12542W        W29389  16.710  17.261  12.935 -0.0805  0.0414  0.2172
12543W        W29390   0.017  15.482   4.251  0.3204  0.3233  0.1459
12544W        W29391  17.061  17.700  13.152 -0.0226  0.1422 -0.1371
12545W        W29392   0.719   3.245   0.722  0.2013  0.3646  0.3422
12546W        W29393   8.678   9.288  13.376 -0.0517 -0.1911 -0.0616
12547W        W29394   3.121   3.864   3.347  0.1191  0.1408 -0.0492
12548W        W29395   8.206  11.505   5.230 -0.0142  0.0098  0.1692
12549W        W29396   8.628  11.292  13.702  0.0932  0.0502 -0.0746
12550W        W29397  16.259   7.168   5.384  0.0154 -0.1713  0.1188
12551W        W29398  16.043  13.301  13.429 -0.3278 -0.0265 -0.0153
12552W        W29399  13.041  16.572   4.486  0.0810  0.1198 -0.0013
12553W        W29400   8.724  15.136   5.213 -0.0848 -0.2256  0.0168
12554W        W29401  12.761   8.803  15.268 -0.1901  0.1784  0.0464
12555W        W29402   9.460  15.261   3.147  0.1569  0.2580 -0.0454
12556W        W29403  18.502  16.253   1.609  0.2943  0.0269  0.0273
12557W        W29404   0.212   7.826  14.499  0.1382 -0.1752 -0.0321
12558W        W29405   4.096   2.995   2.045  0.1225  0.1876 -0.1376
12559W        W29406  12.055   2.187   5.316  0.0769 -0.0614  0.0533
12560W        W29407   7.458  13.576  14.016 -0.1975 -0.1451  0.2918
12561W        W29408  12.404   1.256  11.784  0.1237  0.0859  0.1821
12562W        W29409  11.937  15.224   4.378 -0.0792 -0.0578  0.3065
12563W        W29410   7.590   7.716   1.573 -0.0714  0.0777 -0.1111
12564W        W29411   5.772  14.663  12.949 -0.4229  0.1399  0.2593
12565W        W29412  16.318   4.279   4.327  0.4695 -0.1621 -0.2029
12566W        W29413  10.822   2.902   3.789  0.0913 -0.1166 -0.1048
12567W        W29414   5.688   4.074   3.202 -0.0176  0.0174 -0.1655
12568W        W29415  10.512  18.183  13.680 -0.1403  0.0403 -0.2057
12569W        W29416  18.566   5.844   2.096  0.0382 -0.1223  0.1177
12570W        W29417  15.119  11.306   2.944 -0.0370 -0.0208 -0.1481
12571W        W29418  15.473  17.264  13.951 -0.0020 -0.0850 -0.2262
12572W        W29419   9.402   2.140   3.343  0.1463 -0.0306 -0.3410
12573W        W29420  17.871   1.123   3.206 -0.0690 -0.1299  0.2949
12574W        W29421   5.820   3.974  14.197 -0.2732  0.1080  0.0712
12575W        W29422   5.988  13.821  12.286 -0.4891  0.2032  0.1692
12576W        W29423   7.706   2.042  14.515 -0.1367  0.2247 -0.1632
12577W        W29424  18.174   9.731   4.844 -0.1167  0.0678 -0.2320
12578W        W29425  14.929   4.786   5.155  0.2155 -0.0633  0.3652
12579W        W29426   2.423   6.613   4.035 -0.2239 -0.2420  0.0558
12580W        W29427   6.565  10.072   3.657  0.3102 -0.1955 -0.1260
12581W        W29428  14.765  15.175   3.591  0.4296 -0.2533 -0.0175
12582W        W29429   1.913   8.728  13.757  0.0798 -0.1688  0.2541
12583W        W29430   6.532   2.075   5.096  0.3320 -0.1543 -0.0293
12584W        W29431  18.349   3.703   4.316  0.0962 -0.0144  0.1237
12585W        W29432   2.556  14.304   5.154 -0.4519  0.0223  0.0598
12586W        W29433   5.577   1.599   2.115 -0.0538 -0.1208 -0.0278
12587W        W29434  16.627  10.604  12.541  0.2465  0.2586 -0.0894
12588W        W29435   7.349   7.277   2.908  0.2105  0.0402  0.0466
12589W        W29436  14.061  13.274  11.129  0.0429  0.0612  0.1642
12590W        W29437  12.655  18.523  11.885 -0.0607  0.2125  0.2083
12591W        W29438  14.374  12.262  15.532  0.0896 -0.1735  0.1216
12592W        W29439  13.183  15.701  12.731 -0.0505 -0.0341 -0.2284
12593W        W29440   3.732  15.388   3.144 -0.2156  0.1069 -0.1981
12594W        W29441   2.678  13.495   3.923  0.1992 -0.2497  0.0269
12595W        W29442   5.992   1.501   3.600  0.0363 -0.0613  0.0107
12596W        W29443   9.251  16.930  13.726 -0.1260  0.2626  0.2774
12597W        W29444  14.289   8.075   3.999 -0.2073 -0.1690  0.1317
12598W        W29445  15.442  16.814  12.259 -0.0410  0.1318 -0.0389
12599W        W29446  12.998  14.098  14.277  0.0660 -0.0024 -0.3330
12600W        W29447  17.475   7.918  11.245 -0.0654 -0.0795 -0.2370
12601W        W29448  13.631  11.658  14.538  0.1137  0.0053 -0.0974
12602W        W29449  13.959   9.775  14.329 -0.0562 -0.0929 -0.2657
12603W        W29450   4.819  10.990   1.064 -0.2879  0.3052  0.0342
12604W        W29451   8.865   9.859   4.746  0.1301 -0.4216  0.1045
12605W        W29452   9.628   5.075   4.899 -0.0813  0.0537 -0.0001
12606W        W29453   5.337   2.797  11.382  0.0323  0.2420 -0.3044
12607W        W29454  14.335  17.726   0.270  0.1497 -0.2571  0.2779
12608W        W29455   6.861  10.717  11.352  0.0789  0.2315 -0.1627
12609W        W29456   2.436   4.280   5.772 -0.1205  0.1441  0.0803
12610W        W29457   7.043   7.232   2.072  0.3567 -0.1506  0.0545
12611W        W29458   5.344   8.451   4.994  0.0122  0.1205 -0.0500
12612W        W29459   3.741  16.039  10.687 -0.0708 -0.0121 -0.1140
12613W        W29460   5.817  17.346   3.221 -0.2424 -0.1624 -0.0200
12614W        W29461  10.971   3.220   0.057 -0.0158 -0.0402  0.1616
12615W        W29462  15.072   4.834  10.621  0.1226 -0.1625  0.0524
12616W        W29463   7.224  16.974   3.061  0.1793  0.2314  0.2821
12617W        W29464   2.457   9.155  12.725 -0.0196 -0.3523  0.0716
12618W        W29465  16.320   6.363   1.617 -0.0879  0.0623  0.0769
12619W        W29466  16.925  10.769  10.375 -0.1796  0.2343 -0.1181
12620W        W29467   1.400  11.596  11.160  0.0122 -0.2083  0.1663
12621W        W29468  10.919  18.307   3.717  0.1700 -0.1561 -0.1814
12622W        W29469  12.464   4.367  13.692 -0.4090  0.0480 -0.1270
12623W        W29470   1.034   3.242   2.380  0.0133  0.0789 -0.2331
12624W        W29471   9.835   3.675   0.139 -0.1198 -0.2717 -0.1633
12625W        W29472   2.224   3.795  12.875  0.2077  0.0588 -0.0925
12626W        W29473  16.678   5.304  13.997  0.1263  0.0123 -0.1181
12627W        W29474  14.431   4.327   5.031 -0.0964 -0.0258  0.0874
12628W        W29475  12.601  16.977  12.965  0.1708  0.0779  0.2102
12629W        W29476  13.091  13.718   3.077 -0.1810 -0.4370  0.3213
12630W        W29477  18.413   5.247  11.500 -0.2728  0.2112 -0.5780
12631W        W29478   6.260   2.454   5.872 -0.0699  0.0993  0.0160
12632W        W29479   2.983  18.083  13.121  0.1297  0.2940 -0.1186
12633W        W29480  16.593  16.366  12.971  0.2447  0.2057  0.3862
12634W        W29481   9.458   0.259  12.620 -0.6251  0.0279  0.3888
12635W        W29482  14.295   2.182   4.914  0.1775  0.2927 -0.0645
12636W        W29483   4.352   7.541  13.953 -0.1705 -0.4042  0.1211
12637W        W29484  10.144   9.382  14.941  0.2646  0.1096  0.0974
12638W        W29485   4.817   3.991  14.379 -0.3579  0.0697 -0.0340
12639W        W29486   7.986  10.535   3.299 -0.1350 -0.0587 -0.2806
12640W        W29487  15.849  17.827   0.062  0.0254 -0.0813 -0.1725
12641W        W29488   8.723   4.964  15.048  0.3203 -0.1637 -0.1643
12642W        W29489   9.295   9.617  13.120  0.0930  0.1939  0.3770
12643W        W29490   9.630   1.311   5.372  0.0371 -0.2201  0.1558
12644W        W29491   7.313   7.941  14.212 -0.0057 -0.2170 -0.3223
12645W        W29492  14.246  14.925  10.286 -0.0750  0.0062 -0.3282
12646W        W29493  12.823   9.795   2.823 -0.3250 -0.0957 -0.2045
12647W        W29494   4.794   6.552   1.707  0.1969 -0.4657 -0.1259
12648W        W29495   6.191  10.321   3.959  0.0998 -0.0862  0.0028
12649W        W29496   6.005  17.248  12.812 -0.1678  0.1983  0.1757
12650W        W29497  12.225   4.532   2.071  0.0800  0.1494  0.1506
12651W        W29498   1.348  17.252   5.048 -0.0527 -0.1296 -0.3487
12652W        W29499   0.882   2.805  12.633 -0.2912  0.0791  0.0460
12653W        W29500   0.051   3.550   2.184  0.2343 -0.2176  0.1118
12654W        W29501   3.468   3.827  10.441  0.1471  0.1418  0.3589
12655W        W29502   5.602   2.230   4.231 -0.2332 -0.0841 -0.4206
12656W        W29503   9.165   2.935   4.525  0.4816  0.2552  0.0463
12657W        W29504   3.003  16.203  11.272  0.1055  0.1372  0.1175
12658W        W29505   2.110  10.474  13.315  0.1623 -0.0854 -0.0408
12659W        W29506  14.201   0.576   1.577 -0.0121  0.2070 -0.1746
12660W        W29507  15.827   5.127   1.875  0.1746 -0.0586  0.0099
12661W        W29508  17.186  10.131   3.468  0.1150 -0.2615 -0.1901
12662W        W29509  13.025   8.466  14.020  0.0896 -0.2408 -0.2634
12663W        W29510   7.484   3.577   1.168  0.0304  0.0419  0.3840
12664W        W29511  10.974   2.223  13.248  0.0951  0.1770 -0.0288
12665W        W29512   0.990  10.671  10.955  0.0747 -0.1872  0.0305
12666W        W29513   7.910  13.068  12.220  0.2231  0.1837  0.0500
12667W        W29514  12.894  12.821   4.162  0.0411 -0.0355 -0.0105
12668W        W29515   9.197   8.967   5.052 -0.1696  0.1116 -0.3427
12669W        W29516   1.324   6.065  15.314  0.2936  0.0427 -0.0298
12670W        W29517   8.826  16.371   3.436 -0.2179  0.1031  0.0298
12671W        W29518  13.682   9.750   1.208  0.0034  0.0087  0.0175
12672W        W29519   0.198   7.856   2.267 -0.1604 -0.2252 -0.0316
12673W        W29520   7.797   8.390  12.076  0.0150  0.2420  0.0263
12674W        W29521   6.437  16.290  10.379  0.0611  0.2011 -0.0923
12675W        W29522  14.145   5.986  12.364 -0.3512 -0.1348 -0.1126
12676W        W29523  16.803   2.241  14.990 -0.0310  0.1437  0.1053
12677W        W29524   5.757  11.359   4.054  0.0246  0.0802 -0.3608
12678W        W29525   0.067   1.029  14.175 -0.0772  0.0293  0.0350
12679W        W29526  14.626   5.203   0.442 -0.0640  0.2338 -0.0045
12680W        W29527  17.786   4.871  15.553  0.2162  0.2731 -0.0551
12681W        W29528   2.200  11.251  13.762  0.0001 -0.1186 -0.2844
12682W        W29529  17.562   5.056  11.883 -0.0269 -0.0918 -0.2647
12683W        W29530   7.725   0.134   3.659 -0.0522  0.1973  0.1725
12684W        W29531   9.513   0.807   1.409  0.1644  0.0395  0.0571
12685W        W29532   4.005   1.490   4.656  0.0961 -0.0428  0.7055
12686W        W29533   6.925   4.755   1.214 -0.2694 -0.0073 -0.0149
12687W        W29534  17.636   8.637   5.287  0.0257 -0.0579  0.0482
12688W        W29535  10.656   0.394  11.794  0.1479  0.0336 -0.0140
12689W        W29536  15.685   7.600   9.526 -0.3539  0.2209 -0.1342
12690W        W29537  17.875  17.124  10.711  0.2739  0.0528 -0.0989
12691W        W29538   7.683  13.231  14.264  0.1083 -0.2129 -0.2132
12692W        W29539  10.347   1.419   3.484 -0.1137 -0.1497 -0.1353
12693W        W29540   2.758   7.134   1.258  0.1131  0.1603 -0.2173
12694W        W29541   0.452   1.377   2.287  0.0655 -0.1456  0.1994
12695W        W29542  17.782  11.759   4.954 -0.1008 -0.0227 -0.2153
12696W        W29543   0.303   9.295   4.703  0.0987 -0.0586  0.0107
12697W        W29544   3.970   9.558  12.596  0.2276 -0.1718 -0.0053
12698W        W29545   0.556  17.561  15.258  0.1727  0.2908 -0.0598
12699W        W29546  16.427  14.978   9.300 -0.4588  0.2330  0.2721
12700W        W29547  13.798   5.731  11.384 -0.3388  0.4544 -0.0296
12701W        W29548  11.337  11.488   1.817  0.0654  0.0943  0.0360
12702W        W29549  15.000   9.546  14.303 -0.1169 -0.1556 -0.2576
12703W        W29550  13.340   7.368  11.360  0.0987 -0.0326  0.1511
12704W        W29551   3.010  13.498  10.765  0.2810  0.1489 -0.0504
12705W        W29552   2.465   7.027   1.894 -0.0360  0.0414 -0.2100
12706W        W29553   7.633  12.369   1.746 -0.0963  0.0198 -0.1454
12707W        W29554  15.708   3.992   5.250  0.0229 -0.1075 -0.4977
12708W        W29555   9.498  14.757   3.831  0.1327  0.1458 -0.2294
12709W        W29556   1.093   4.824   3.769 -0.2121 -0.0378  0.0647
12710W        W29557   4.278  13.301   4.936  0.2743  0.2913  0.1302
12711W        W29558   9.691  13.817  12.957 -0.1249 -0.1920  0.0981
12712W        W29559  10.333  11.373  11.752 -0.1537  0.0318  0.0890
12713W        W29560  10.851  14.494  13.514 -0.3982  0.3351  0.1030
12714W        W29561  10.179  13.382  13.520  0.0358  0.3895  0.0207
12715W        W29562   2.753  13.712  11.662  0.0665  0.1177 -0.2086
12716W        W29563   0.384   1.074  12.411 -0.0621  0.0257  0.1202
12717W        W29564  18.621   5.725  15.149 -0.1040  0.1209  0.0039
12718W        W29565  18.284   3.279   3.788  0.1856 -0.1436  0.1788
12719W        W29566   4.791   1.474  13.463 -0.2258 -0.1255 -0.1891
12720W        W29567  12.224   2.600   0.342  0.3064 -0.0916  0.2532
12721W        W29568   6.852   8.496   0.361  0.0806  0.0775  0.0797
12722W        W29569   0.700   0.487  13.739  0.0960 -0.0022 -0.3219
12723W        W29570  11.425  18.393   2.397  0.0160 -0.1695 -0.0428
12724W        W29571  13.271   8.770  14.410  0.1766  0.2599 -0.1731
12725W        W29572  18.742   4.017   0.901 -0.0017  0.0277  0.1180
12726W        W29573  14.700  10.464   0.877  0.3515 -0.1225  0.1876
12727W        W29574  16.265   7.442   1.087  0.1789 -0.1809 -0.2367
12728W        W29575   3.926  16.388   0.709  0.3208  0.1760  0.1677
12729W        W29576  16.201   0.204  11.695 -0.0650  0.1905 -0.1815
12730W        W29577  11.411  18.696   2.932  0.1612 -0.1209  0.0355
12731W        W29578   2.957  14.075  12.083 -0.0709 -0.2861 -0.0817
12732W        W29579  14.280  11.512  13.358  0.2434 -0.1709 -0.1584
12733W        W29580  14.838  15.127  13.578 -0.4089  0.2942  0.1238
12734W        W29581  15.639   3.058   0.385 -0.0641  0.1496 -0.3128
12735W        W29582   5.659   9.058  14.637  0.1389  0.0063  0.1329
12736W        W29583   2.949   3.594  14.673 -0.0374  0.0999  0.0927
12737W        W29584   2.421   5.266  11.782  0.0867 -0.1000  0.1301
12738W        W29585   8.507  10.196  14.791  0.0806 -0.0186 -0.0033
12739W        W29586  11.393  13.273  13.035  0.0095  0.0627 -0.0195
12740W        W29587   9.352  13.898  13.846  0.1764 -0.0512  0.0021
12741W        W29588   6.482   3.059  14.071  0.0451 -0.2411  0.0485
12742W        W29589   6.269  17.893   4.696 -0.2068 -0.3222  0.1265
12743W        W29590  12.963   6.371   1.411  0.1535  0.1126 -0.0587
12744W        W29591  12.197   3.799   1.207 -0.0551 -0.3800 -0.1050
12745W        W29592   0.334   9.194   1.205 -0.1048 -0.0190  0.1917
12746W        W29593   6.013  11.626   2.158 -0.2859  0.2346 -0.0241
12747W        W29594   2.924  12.735  12.053 -0.2459 -0.2718 -0.1541
12748W        W29595   8.655  17.947  11.127  0.0370  0.0619 -0.1785
12749W        W29596   5.740  17.608   1.316  0.2921 -0.0320 -0.0606
12750W        W29597   5.027  12.240   1.786  0.2845  0.1827 -0.2224
12751W        W29598  17.572   6.294  13.506 -0.1743  0.2817  0.0704
12752W        W29599  17.025  11.038  14.709  0.0865 -0.0561 -0.1478
12753W        W29600   4.152   7.940   3.439 -0.0762  0.4670 -0.2222
12754W        W29601  17.274  17.187  10.617  0.1710  0.3475  0.0053
12755W        W29602   1.205   9.765  15.172 -0.1838 -0.0136  0.3696
12756W        W29603  13.751   7.021   0.789 -0.0681  0.0529  0.0568
12757W        W29604  18.007   5.136   0.479  0.0035  0.1507 -0.1252
12758W        W29605   6.996  18.146  13.770 -0.0109  0.0776  0.0121
12759W        W29606  11.784   7.181  12.817  0.0349 -0.0837 -0.2094
12760W        W29607  10.156   1.159  14.443 -0.1129 -0.2246 -0.0824
12761W        W29608  16.707   2.639  11.580 -0.2529 -0.0147  0.0811
12762W        W29609   0.436   1.571   4.357  0.0367 -0.3928 -0.0626
12763W        W29610  15.300   5.513  15.293  0.1543  0.1831  0.0807
12764W        W29611  16.360  18.357   1.672 -0.0989  0.0669 -0.1262
12765W        W29612  14.119  13.821   1.839 -0.0476 -0.0027 -0.0738
12766W        W29613  18.514  12.494  11.199 -0.0728  0.1023 -0.2008
12767W        W29614   3.599   4.075   4.849  0.0704  0.3198  0.0415
12768W        W29615   7.009  15.640   3.768 -0.0192  0.0531 -0.1984
12769W        W29616   9.028   3.390  14.929  0.3737 -0.2309 -0.2947
12770W        W29617  11.331  16.912  14.609 -0.0799 -0.0245 -0.0996
12771W        W29618  16.917   6.426   3.572  0.0692 -0.3169 -0.1196
12772W        W29619   6.513   9.652  14.699  0.4967 -0.2687  0.1411
12773W        W29620  14.695   7.796  12.895  0.0407 -0.1067  0.3309
12774W        W29621  15.590  12.716  11.232 -0.1193 -0.2211  0.0254
12775W        W29622  15.156   1.956  13.559  0.0452  0.1045  0.1151
12776W        W29623  16.258   5.258   2.067  0.0387 -0.0487 -0.0758
12777W        W29624  12.204   9.525  13.463  0.1028  0.1856  0.3706
12778W        W29625   8.729   1.782  12.422  0.0067  0.1223  0.0012
12779W        W29626   4.297   9.837   3.536 -0.4582  0.0853  0.1957
12780W        W29627   6.647   2.276  10.749  0.0251  0.0499 -0.1827
12781W        W29628  12.485  16.520   2.321  0.1192  0.2626 -0.0268
12782W        W29629   8.727   3.263  11.334 -0.0863  0.1243  0.1163
12783W        W29630   1.241  11.407  14.207  0.0258  0.1132  0.2175
12784W        W29631   0.431   0.847  10.725  0.0728 -0.0063  0.2217
12785W        W29632   2.454  11.910   1.008  0.1701 -0.0182  0.3225
12786W        W29633   1.405  14.768  10.058  0.1285 -0.2497  0.1231
12787W        W29634   7.006   6.637  12.621 -0.2076  0.0359  0.3336
12788W        W29635   7.019  16.731  12.655  0.0775 -0.0929 -0.1878
12789W        W29636   1.315   7.052  15.214 -0.1373 -0.0699 -0.0104
12790W        W29637  14.984   1.525   1.585 -0.0364 -0.0130  0.2313
12791W        W29638   0.470   1.030   0.424 -0.0200  0.1470  0.0586
12792W        W29639   1.201  14.403  14.639 -0.1250 -0.1491  0.0021
12793W        W29640  10.271   6.041   5.056 -0.1469 -0.0485 -0.1237
12794W        W29641   9.707   2.014   0.282 -0.0507 -0.0192 -0.0560
12795W        W29642  11.415   5.208   2.797 -0.0712 -0.0249  0.0822
12796W        W29643   0.074  16.354   4.664 -0.2001  0.1018 -0.0688
12797W        W29644   5.447   4.366  12.332 -0.0234  0.0183  0.4156
12798W        W29645   5.137   8.092   4.754 -0.1407  0.3655  0.1350
12799W        W29646  12.645  13.901   1.936 -0.1701 -0.2330  0.1058
12800W        W29647   0.610   0.122   2.977  0.0945  0.0873 -0.1596
12801W        W29648  16.102   4.454  13.607  0.2193 -0.1000  0.3047
12802W        W29649   3.300  15.588   2.728 -0.3365  0.3131 -0.0258
12803W        W29650   0.580   1.684  14.705  0.2664 -0.0348  0.0331
12804W        W29651   8.224   3.754   2.509  0.0350 -0.1338  0.0514
12805W        W29652   7.549   4.679  14.482 -0.2777 -0.1674  0.1022
12806W        W29653   9.705   8.850   3.028 -0.1132  0.0556 -0.2204
12807W        W29654   6.058   5.831  13.186  0.3533  0.1058  0.1344
12808W        W29655   7.038  12.491  14.470 -0.0529  0.0511 -0.0891
12809W        W29656   2.173   1.810  13.977 -0.0193 -0.1777  0.0046
12810W        W29657   9.523  13.180  14.627 -0.0045  0.0116  0.1925
12811W        W29658   5.416   4.044  14.541 -0.0089  0.0325  0.1845
12812W        W29659   9.814   9.348   3.894 -0.0541  0.4591  0.3543
12813W        W29660   2.371   8.631   4.279  0.3410  0.0198  0.2154
12814W        W29661  11.723   6.996   4.980  0.3331 -0.0625  0.1152
12815W        W29662   8.684   4.022   2.318 -0.0974  0.3457 -0.0259
12816W        W29663  12.920   0.506  13.218  0.0609 -0.2288 -0.0824
12817W        W29664  18.551   8.715   4.268  0.0566 -0.0084 -0.1286
12818W        W29665  18.643  10.614   2.032  0.1645  0.1897  0.0115
12819W        W29666  17.842  13.592   2.117  0.1297  0.2258 -0.1067
12820W        W29667   6.319  12.445   2.297  0.0760 -0.3184  0.1583
12821W        W29668  11.426  15.350  13.789  0.0053  0.4283 -0.0528
12822W        W29669  12.609   4.916   2.248 -0.2641 -0.0351 -0.0030
12823W        W29670   4.443  17.315   4.169  0.0602 -0.0391 -0.1265
12824W        W29671  16.221   6.396   2.598 -0.1063 -0.2149  0.4483
12825W        W29672   2.925   1.126   2.295  0.0441 -0.0041 -0.1433
12826W        W29673  17.498  18.427  15.400 -0.1846  0.1506  0.3395
12827W        W29674   1.444   5.281  13.706  0.0706  0.1787  0.2934
12828W        W29675  14.772   9.782  14.713  0.0181 -0.0070 -0.0695
12829W        W29676   9.707   9.451  14.619  0.0505  0.1887  0.2270
12830W        W29677  16.925   5.029  11.565 -0.1916  0.1508  0.3461
12831W        W29678  13.282  16.052   5.227 -0.0331  0.2372 -0.0745
12832W        W29679   8.750  17.168   2.907 -0.0800 -0.1722 -0.5577
12833W        W29680   3.664  15.319   0.702 -0.3267 -0.2427  0.0985
12834W        W29681   6.637   9.353  11.219 -0.3084 -0.2109 -0.1210
12835W        W29682   6.856  11.164  14.821 -0.1810 -0.1556  0.1810
12836W        W29683   7.222   8.934   3.134 -0.4128  0.1626 -0.3183
12837W        W29684  13.239   9.411  14.692 -0.0396  0.0254  0.0567
12838W        W29685  14.605   8.836  11.014 -0.5619  0.1007  0.2289
12839W        W29686   9.513  17.588  15.196  0.2570 -0.1594  0.1389
12840W        W29687  12.893  15.202  12.645 -0.1991 -0.0997 -0.3505
12841W        W29688   1.881  10.822  11.548 -0.2855  0.0931 -0.3092
12842W        W29689  13.795   3.782   5.302  0.0201 -0.1242 -0.2985
12843W        W29690  13.632  11.400   5.559 -0.2544 -0.0778  0.1958
12844W        W29691   6.832  16.326  12.506 -0.0483  0.4024  0.2347
12845W        W29692   9.590  11.866   5.129 -0.2607 -0.0578  0.0954
12846W        W29693  12.717  17.076  14.520 -0.1834 -0.2382 -0.1880
12847W        W29694   5.295   6.704   2.548 -0.2290  0.1921  0.3989
12848W        W29695   8.512   9.355   4.007 -0.1202 -0.0876 -0.1215
12849W        W29696  13.711   1.210   4.238  0.2174 -0.0199 -0.0589
12850W        W29697   1.113   7.179  13.588 -0.1285  0.0397  0.1229
12851W        W29698   9.511  15.666  13.488  0.2868 -0.1884  0.1183
12852W        W29699   8.899  10.251   2.899  0.2310  0.0499  0.0828
12853W        W29700   7.334  15.432   0.549  0.1525 -0.1120 -0.2791
12854W        W29701   9.764  17.161  15.083  0.0555  0.0148 -0.2201
12855W        W29702  15.309  17.920   4.033 -0.3061 -0.3127 -0.3839
12856W        W29703   4.508   7.924  11.912  0.0389 -0.2034  0.1909
12857W        W29704  18.303  16.264  12.887 -0.0954 -0.3222 -0.1329
12858W        W29705   5.105  14.228   2.196  0.2124 -0.1848 -0.2669
12859W        W29706   5.630   4.920   4.290  0.3212  0.1200 -0.0422
12860W        W29707  11.649   8.127  12.106  0.0005 -0.2285  0.0829
12861W        W29708  10.177   8.365  10.750 -0.3805 -0.0425  0.0014
12862W        W29709   9.376   9.749   0.429  0.0638 -0.3111 -0.2355
12863W        W29710   9.689   2.373  13.989  0.1640 -0.1173  0.1538
12864W        W29711  17.843  13.626   3.790  0.4954  0.0995 -0.2915
12865W        W29712   5.605  13.385   0.875  0.2458 -0.0081 -0.1289
12866W        W29713  12.722   4.797   0.505  0.2939  0.4328  0.4042
12867W        W29714  17.362  16.763   2.344  0.0690 -0.5051  0.0414
12868W        W29715   0.786  11.729   2.528  0.0962  0.3133  0.1405
12869W        W29716   1.876  16.580  13.157  0.2404 -0.0583  0.0122
12870W        W29717  12.998  13.291   4.741  0.4028 -0.1904 -0.3185
12871W        W29718   9.690   1.368  10.186 -0.4288 -0.2784  0.1945
12872W        W29719  16.576  11.900   3.282  0.0422  0.0406  0.0657
12873W        W29720  18.740   0.782  15.408  0.1158  0.1073 -0.0941
12874W        W29721  10.313  14.963   4.296  0.1187 -0.1226  0.1772
12875W        W29722  11.412  16.660   3.604  0.0336 -0.0382  0.1753
12876W        W29723   1.528   6.736   3.776  0.1237 -0.0236  0.1095
12877W        W29724  11.605   8.569  14.896 -0.0944  0.0023 -0.1116
12878W        W29725  14.261   0.534  15.411  0.5506 -0.0458 -0.2005
12879W        W29726  17.911   2.708  11.536 -0.1101  0.0567  0.1963
12880W        W29727   7.603  11.451  15.105 -0.2962  0.1241  0.1378
12881W        W29728  10.549   0.613   3.377 -0.1091  0.0148  0.0016
12882W        W29729   3.294   8.141  13.281 -0.0280  0.3565 -0.2338
12883W        W29730   9.099  18.585  14.447 -0.5784  0.0371  0.1372
12884W        W29731  15.242   0.317   4.046  0.2193  0.1916 -0.3174
12885W        W29732   6.422   8.705  13.247  0.0975 -0.0479 -0.1833
12886W        W29733  13.366  14.691  11.817  0.0533  0.1598 -0.1592
12887W        W29734  13.025   8.187  13.253 -0.2225 -0.1148  0.0750
12888W        W29735  13.849   7.891   2.899 -0.3074  0.0615  0.0514
12889W        W29736   7.039   4.565   1.753 -0.0113  0.2451 -0.2186
12890W        W29737  11.026   8.375   2.383 -0.0975 -0.0424 -0.2188
12891W        W29738   7.634  18.051  11.920 -0.2063 -0.2268 -0.1022
12892W        W29739  11.036  10.254   2.477  0.0431  0.0908  0.1105
12893W        W29740   9.132   6.432  14.697 -0.0724 -0.0317 -0.2199
12894W        W29741  18.450   9.072  13.594 -0.0543 -0.2759  0.3038
12895W        W29742   4.521   1.534   3.736  0.1299  0.0388 -0.1497
12896W        W29743  15.667   1.919   2.192 -0.2203  0.1383  0.1323
12897W        W29744   2.672  16.497  10.000 -0.0784 -0.1216 -0.0746
12898W        W29745   0.695   0.388   3.911  0.0636  0.0283  0.5032
12899W        W29746   4.848   3.305  12.987 -0.0891  0.0348  0.2643
12900W        W29747   1.950   0.358   3.081 -0.0049 -0.3517  0.0429
12901W        W29748   0.064   0.050  12.773  0.0040  0.0904  0.0053
12902W        W29749   1.692  14.622   2.723  0.2140 -0.0601  0.1676
12903W        W29750  11.969   1.030   3.056  0.0297 -0.0061 -0.0662
12904W        W29751  11.249   2.567   1.029  0.0957 -0.1026  0.1485
12905W        W29752   8.558  14.271  13.121  0.1105 -0.0234 -0.0541
12906W        W29753  16.892   6.152  12.958  0.0996 -0.0551 -0.0160
12907W        W29754   6.313   7.992   1.867  0.3142 -0.0402 -0.0165
12908W        W29755  11.906  18.012   0.788  0.1616  0.0671 -0.1020
12909W        W29756  10.606   7.830   3.066  0.0956  0.0607  0.0619
12910W        W29757  16.507  14.246   2.772  0.0394 -0.1665 -0.1183
12911W        W29758   7.330  14.055   0.064 -0.0590 -0.1032 -0.0569
12912W        W29759   7.495  13.014   0.102 -0.1394 -0.0620  0.3018
12913W        W29760   9.283   5.959  11.906 -0.1450  0.0250 -0.1172
12914W        W29761  18.062   8.778   2.615  0.2427 -0.2549  0.1473
12915W        W29762   2.031  15.028   3.383 -0.0583  0.1999  0.2550
12916W        W29763  13.292  13.582  13.312 -0.0391  0.0593 -0.0139
12917W        W29764  13.425   4.418   2.983 -0.0820 -0.0125  0.1301
12918W        W29765   9.352  13.230   3.302 -0.0008 -0.0971 -0.2158
12919W        W29766   1.977   7.860  15.356 -0.0299 -0.0950  0.0651
12920W        W29767   8.811  11.071  12.120  0.0821 -0.0887  0.1849
12921W        W29768  17.792  15.356   0.338  0.0965  0.1344  0.0337
12922W        W29769  10.548   5.531  11.281  0.1183 -0.1763 -0.2165
12923W        W29770  16.663  18.481  14.152  0.4114 -0.0441  0.2822
12924W        W29771   0.945  14.603  15.155 -0.3051 -0.1871  0.4456
12925W        W29772   0.906   3.122   0.061 -0.3460  0.2240  0.0161
12926W        W29773   5.873   1.009   4.446 -0.2778 -0.2520  0.1428
12927W        W29774   8.132   8.044   0.208  0.1690  0.0840 -0.0587
12928W        W29775  17.365   6.331   2.578 -0.1091 -0.0089 -0.1077
12929W        W29776  10.461  11.578  11.283 -0.1189  0.1100  0.2087
12930W        W29777  13.594  16.893  14.992 -0.0751  0.0607 -0.1600
12931W        W29778   9.364  13.538   5.160  0.1628  0.1803 -0.1551
12932W        W29779  15.703  14.630   3.240 -0.3770 -0.1542  0.0448
12933W        W29780   8.015   0.877   9.623  0.0830 -0.1029 -0.0977
12934W        W29781  15.788   0.345   4.911 -0.5661 -0.1163  0.2376
12935W        W29782  15.555  18.606   2.878  0.1250 -0.1579  0.0725
12936W        W29783   9.100  14.405  13.126 -0.0505 -0.0740  0.0570
12937W        W29784   9.973  13.587   2.764  0.0285  0.1706 -0.0459
12938W        W29785   0.089   1.884  12.978  0.3698  0.1340  0.1770
12939W        W29786   2.819   3.972  14.362 -0.0062  0.1589 -0.0572
12940W        W29787   6.438  18.309  14.892  0.1437 -0.1050  0.1621
12941W        W29788   0.880   3.784  11.071  0.2632 -0.0023  0.0447
12942W        W29789   6.516   8.719   4.789 -0.0040 -0.3133  0.0866
12943W        W29790   3.919   2.360  11.765 -0.2180  0.3028  0.1359
12944W        W29791  11.310  12.904  10.349 -0.0397 -0.2562  0.0256
12945W        W29792   2.384   3.537   5.320 -0.1131  0.0951 -0.2437
12946W        W29793  12.057  11.803  12.164 -0.2838 -0.0492  0.0324
12947W        W29794   2.684  16.381   2.789 -0.2857  0.4296 -0.0572
12948W        W29795   2.468  13.902  13.782  0.0713 -0.2367 -0.1164
12949W        W29796  18.817   7.081  13.112 -0.0204  0.0930 -0.1386
12950W        W29797  15.040  16.554  13.948  0.0185 -0.1436 -0.1272
12951W        W29798   1.361  17.901  13.125 -0.0282 -0.0637 -0.0473
12952W        W29799  13.356  18.059  15.038  0.1661 -0.2175  0.2655
12953W        W29800  11.843  18.006  10.746 -0.1011  0.0826 -0.2764
12954W        W29801  12.873  16.478  14.168 -0.3946  0.3503  0.1182
12955W        W29802   7.292   4.713   2.984 -0.1842 -0.0775  0.0666
12956W        W29803   6.784  14.276   0.676  0.2275 -0.4476  0.3895
12957W        W29804   9.460  17.461   0.694  0.0026 -0.0939 -0.1281
12958W        W29805  10.584   8.500   0.218  0.2290  0.1679  0.1404
12959W        W29806   6.284   8.349  15.323  0.1929  0.0587 -0.1047
12960W        W29807  17.336   0.137   1.078 -0.0414 -0.1059 -0.1447
12961W        W29808   0.731   0.133  11.723 -0.0380 -0.0331 -0.0808
12962W        W29809   4.562   7.306   0.588  0.2567 -0.2336 -0.1002
12963W        W29810  11.051   5.268   0.398 -0.0845 -0.0954 -0.0562
12964W        W29811  16.768   5.657   1.130 -0.1581 -0.1318  0.0845
12965W        W29812  17.664  11.481  14.851  0.0541  0.0121  0.0466
12966W        W29813   1.987   2.237   2.985  0.0840 -0.3760  0.1374
12967W        W29814  12.996  14.282   5.193 -0.1210  0.2415 -0.1389
12968W        W29815   3.319   2.303   3.265 -0.0896  0.0428  0.0091
12969W        W29816   4.818  12.477   0.809 -0.1478  0.2531  0.2153
12970W        W29817   4.086   9.812   2.610 -0.0366 -0.1603 -0.2250
12971W        W29818  15.451   7.603   0.367 -0.3340 -0.0986  0.0530
12972W        W29819   6.512   6.997  11.719  0.0984 -0.2214  0.2361
12973W        W29820   2.754   1.788  14.676 -0.3305 -0.0536  0.1680
12974W        W29821   5.950   5.496  14.187  0.2263  0.1383  0.0950
12975W        W29822   5.232   3.595   4.306 -0.1545  0.1563  0.3045
12976W        W29823  15.452   4.373   0.611 -0.0790  0.1886  0.5554
12977W        W29824   2.972   4.214   0.106  0.0009  0.1985  0.0673
12978W        W29825  13.380  12.737   3.878  0.0995  0.0891  0.1907
12979W        W29826  12.921  12.901   1.775 -0.2666 -0.0405  0.1909
12980W        W29827  17.458  16.951   0.735 -0.0534 -0.5163 -0.1714
12981W        W29828  13.243  14.196  11.131  0.0829  0.0220  0.1964
12982W        W29829  17.953  12.490  12.490 -0.0341 -0.0786 -0.2782
12983W        W29830   8.035   8.101  11.210  0.0226 -0.0125  0.4219
12984W        W29831  10.756   1.322  10.690 -0.1298  0.1337 -0.0500
12985W        W29832   2.782  12.224   2.830  0.1476 -0.0649 -0.2883
12986W        W29833   3.380  14.790  10.197  0.0161  0.2903  0.2677
12987W        W29834   3.533   4.939   5.167 -0.2721  0.0544 -0.1505
12988W        W29835  15.822  10.400  11.677 -0.1615  0.1609  0.4360
12989W        W29836   0.474  16.489   1.396 -0.0223  0.0446 -0.2428
12990W        W29837   4.877   5.786   2.856  0.0932 -0.1148  0.0988
12991W        W29838   7.962   9.692  13.551 -0.0880 -0.0492 -0.0515
12992W        W29839   5.291   6.292   1.910 -0.0932  0.1239  0.2778
12993W        W29840   4.545   3.010   1.380  0.0160 -0.4289  0.0776
12994W        W29841  13.646  15.737   5.442  0.2064 -0.2589  0.1008
12995W        W29842   0.371  18.139  13.306  0.0478  0.2998  0.0625
12996W        W29843   1.728  12.855   4.421 -0.1580 -0.2642  0.0207
12997W        W29844  12.150   4.578   2.950 -0.2218  0.1930 -0.1535
12998W        W29845   1.431   0.786   1.316 -0.0151 -0.1417  0.1939
12999W        W29846   5.246   9.763  11.693 -0.1291  0.2004 -0.0457
13000W        W29847  18.511  14.912   4.987  0.1049  0.0640 -0.2197
13001W        W29848  16.453   4.925  14.235  0.0420 -0.3663  0.4257
13002W        W29849   9.856   6.295   3.121 -0.1606 -0.1899  0.0286
13003W        W29850  13.317  11.053   5.435  0.2673  0.2085 -0.0956
13004W        W29851  18.692   8.361   3.803 -0.1651 -0.1776 -0.0298
13005W        W29852  16.553  13.200  12.217  0.0015 -0.0380  0.0444
13006W        W29853   2.662   0.019   4.092  0.1879 -0.1952 -0.0421
13007W        W29854   2.883  17.266   2.977 -0.1229 -0.2067 -0.0151
13008W        W29855  17.590  14.911   0.645  0.2373  0.2146 -0.3459
13009W        W29856   8.661  16.158   0.148 -0.1320 -0.0002  0.0451
13010W        W29857   5.666   7.417  12.028 -0.0275 -0.1764 -0.3309
13011W        W29858  15.457   0.045   0.652 -0.1179  0.1313 -0.1134
13012W        W29859  18.032   0.213   3.439 -0.1055 -0.0638 -0.1140
13013W        W29860  13.134  15.597  14.263 -0.1362  0.3172 -0.0439
13014W        W29861   5.716   0.216   0.551 -0.7134  0.1208 -0.1002
13015W        W29862   4.607   2.023  15.504  0.1411  0.1044 -0.0057
13016W        W29863   8.034   6.417   2.821  0.2861 -0.4074 -0.0315
13017W        W29864  14.304   1.656   2.002  0.3389  0.1167  0.0584
13018W        W29865  13.721   7.665  12.102 -0.0723 -0.0261 -0.1203
13019W        W29866  12.146   8.398  14.166 -0.0557  0.1101  0.0269
13020W        W29867  15.028   5.142   0.903  0.0337 -0.0150  0.1976
13021W        W29868   8.785  12.632   2.317  0.1951 -0.1196  0.0015
13022W        W29869   8.636   8.674   3.366 -0.1725 -0.0433 -0.0306
13023W        W29870   5.530  15.795  13.006  0.0067  0.1485  0.0116
13024W        W29871  15.605   9.146  14.408  0.0108  0.2698  0.2044
13025W        W29872  17.818  10.966   1.241 -0.2692  0.0267  0.0582
13026W        W29873  16.031  11.616  14.221  0.0070  0.0317 -0.4036
13027W        W29874   0.397   2.871  13.387  0.0173  0.1031 -0.0369
13028W        W29875  16.895   8.485  14.081 -0.1540 -0.0936  0.0250
13029W        W29876  16.358  14.581   9.690  0.1413  0.0676  0.0773
13030W        W29877   0.165   9.860  13.008  0.1892 -0.3613 -0.1489
13031W        W29878  11.810  17.049   4.514  0.0501 -0.1470 -0.0855
13032W        W29879  18.780   9.468   0.913  0.0750 -0.0354 -0.0091
13033W        W29880   2.300   0.594  12.083 -0.0845 -0.3110  0.0487
13034W        W29881   4.192  14.036  10.776  0.0744  0.1411  0.0153
13035W        W29882   2.709  13.540   3.010  0.0881 -0.0506  0.0535
13036W        W29883   7.507  10.036   4.692  0.1376 -0.0785  0.0109
13037W        W29884   6.871   7.830  13.531  0.1558  0.2495 -0.1932
13038W        W29885   3.778   4.108  14.790 -0.0791  0.1144  0.2128
13039W        W29886   2.447   2.445   3.325  0.1299 -0.1747  0.4873
13040W        W29887   9.525  11.978   3.971  0.2852 -0.3967  0.0961
13041W        W29888   8.606  10.632   4.841 -0.0736 -0.0808  0.0054
13042W        W29889  11.586   2.245   3.609 -0.0042  0.0574  0.1133
13043W        W29890  10.017  11.657  12.080  0.3129  0.0775 -0.2129
13044W        W29891  16.726   6.144   5.408  0.2209  0.4755  0.1588
13045W        W29892  13.236  11.538  11.446  0.1543  0.0409  0.2874
13046W        W29893   5.866  11.828  12.166 -0.1166  0.0027 -0.0738
13047W        W29894   3.625   8.263  15.485 -0.0782 -0.0825  0.0444
13048W        W29895  17.037   0.005   3.173 -0.0085 -0.0894  0.1102
13049W        W29896   1.783   2.821  12.667  0.3521 -0.2155  0.3125
13050W        W29897  16.923   3.236  14.765  0.0437 -0.0788  0.0206
13051W        W29898   2.572   5.129  13.235 -0.0524  0.1493  0.1521
13052W        W29899  14.612   9.660  11.661  0.0421  0.2176  0.1434
13053W        W29900   1.458   0.352  13.191  0.0574  0.3590  0.0437
13054W        W29901  11.730  17.229   0.120 -0.0769  0.2723 -0.1711
13055W        W29902  10.872  13.204  12.928  0.1114  0.2042  0.2818
13056W        W29903   4.551  12.305   1.945 -0.0625  0.0007 -0.0933
13057W        W29904   9.228   6.530  13.370  0.2200  0.1071 -0.0202
13058W        W29905  17.498  12.083   2.216  0.0719 -0.3780 -0.1801
13059W        W29906  17.435  10.309   1.781  0.2190 -0.1467 -0.2402
13060W        W29907   4.198  18.219  12.463 -0.0021 -0.3640  0.1554
13061W        W29908  17.846  11.014  14.936 -0.1429  0.2838 -0.3923
13062W        W29909   6.120   0.733  14.245 -0.1271 -0.1870 -0.0519
13063W        W29910   3.580   2.382  13.647  0.1019  0.1708  0.1116
13064W        W29911   9.623   4.428   1.821  0.0691 -0.3161  0.0854
13065W        W29912  15.548   0.755  14.864 -0.0610  0.0776 -0.2552
13066W        W29913   0.825  16.958   0.698  0.1469  0.0470  0.1599
13067W        W29914  14.797  17.048  13.110  0.0829  0.0670  0.2949
13068W        W29915   3.151  17.642   0.608  0.3912  0.0139  0.0850
13069W        W29916  15.455   8.904  13.985 -0.1403  0.1183  0.1369
13070W        W29917   6.155   5.080   3.569  0.2420 -0.2537  0.0588
13071W        W29918  15.913   4.337   4.064 -0.1077  0.1448  0.4059
13072W        W29919   7.187  18.444  11.471 -0.2904  0.1235 -0.0503
13073W        W29920   6.028   2.384   1.502  0.0503 -0.0346 -0.1330
13074W        W29921   0.569   6.715  12.389  0.1117  0.1281 -0.2820
13075W        W29922  14.550   0.899   2.607 -0.3122 -0.2542 -0.1009
13076W        W29923  14.875   1.027   3.006 -0.0160 -0.0101 -0.1838
13077W        W29924  11.645  14.102   2.885 -0.2217 -0.1866 -0.1819
13078W        W29925   2.733   7.214  14.194  0.0279 -0.0186  0.0583
13079W        W29926  11.721   5.381  13.648 -0.3472 -0.1316  0.3756
13080W        W29927  14.022  13.588   1.333 -0.0264 -0.1805 -0.0333
13081W        W29928   0.495   1.348  15.076  0.1308 -0.0184  0.1758
13082W        W29929   8.234  15.837   0.900 -0.1602 -0.1933 -0.0919
13083W        W29930   9.423  14.250  12.786 -0.0568  0.4117  0.0538
13084W        W29931   1.864  16.761  10.500  0.0864 -0.1472  0.0383
13085W        W29932   3.718   1.668   2.102 -0.1161  0.2433 -0.2806
13086W        W29933   8.041   0.647   4.172 -0.7171  0.1898  0.1486
13087W        W29934   3.329  11.006   1.196 -0.3624  0.2563  0.3339
13088W        W29935   0.835  16.944  14.041  0.2747  0.1547 -0.0777
13089W        W29936   8.956  13.100   3.015  0.0826  0.0513  0.0928
13090W        W29937   9.023  12.246   1.349  0.2485 -0.0314 -0.1091
13091W        W29938  15.332  11.826   3.084  0.0202 -0.0103 -0.0775
13092W        W29939   4.562   0.866   4.960  0.1580  0.1206 -0.2663
13093W        W29940   3.739   1.481  11.122 -0.0215  0.0937  0.1115
13094W        W29941  11.334   6.476  15.555  0.0364 -0.2273 -0.0806
13095W        W29942   9.856   3.270   5.442  0.0377 -0.1355 -0.1319
13096W        W29943   7.635  11.270   3.873  0.0162 -0.1313 -0.0762
13097W        W29944   6.559  16.965   3.470  0.0489 -0.0723 -0.0726
13098W        W29945   2.327   9.884  10.959 -0.2727 -0.2187 -0.0766
13099W        W29946  15.398   8.105  11.759  0.1302 -0.0361  0.3369
13100W        W29947   8.424  16.141   5.274  0.0347 -0.0692  0.0851
13101W        W29948   6.055   5.566   5.438  0.0017 -0.1106 -0.2282
13102W        W29949  10.390  13.481  14.839  0.0134  0.0827 -0.1931
13103W        W29950   1.726  13.741  10.182 -0.1452 -0.0061  0.1760
13104W        W29951  13.322  16.072   5.758 -0.0364  0.1721  0.3281
13105W        W29952   4.464  15.584   0.597 -0.0706  0.3141  0.0102
13106W        W29953   7.099   8.297   0.717  0.3691 -0.0438 -0.0279
13107W        W29954   1.737  16.052   2.739 -0.0533 -0.0274 -0.0394
13108W        W29955  18.515  16.989  14.629 -0.1181 -0.1959 -0.0864
13109W        W29956   3.690  13.846  13.476  0.2199 -0.0775 -0.0250
13110W        W29957   4.515   2.413   0.907 -0.0411 -0.0780 -0.1665
13111W        W29958  16.052   0.602  12.115 -0.3908 -0.1515 -0.3269
13112W        W29959  18.805   8.683  14.264 -0.1062 -0.1536 -0.1292
13113W        W29960   7.410   7.732   0.544 -0.1265 -0.1006 -0.0903
13114W        W29961   4.057  17.244   1.646  0.2120  0.0972  0.0347
13115W        W29962   4.198  11.197  12.980  0.0542 -0.4751 -0.0709
13116W        W29963   7.885   7.460   4.106  0.0369 -0.0276  0.1175
13117W        W29964  14.164  17.065  13.906 -0.1554  0.0862  0.1914
13118W        W29965   6.603   1.256  10.719 -0.3952 -0.1026 -0.2310
13119W        W29966   1.376   0.712  11.330 -0.1104 -0.1321  0.0997
13120W        W29967  11.729   5.237   2.413 -0.0808 -0.3788  0.1031
13121W        W29968   5.717  17.354  11.710  0.1092  0.3655 -0.2208
13122W        W29969  10.956   0.325   2.206  0.1943  0.2665  0.0666
13123W        W29970  16.483   6.897  11.441 -0.0102  0.2401  0.1667
13124W        W29971  18.057   8.032  13.384 -0.2448  0.1460  0.1838
13125W        W29972  10.949   0.066   1.214  0.2616 -0.1547  0.1786
13126W        W29973   2.550   7.555   3.875  0.2369  0.1772  0.1002
13127W        W29974  16.943   5.611   2.782 -0.0717 -0.1739  0.1926
13128W        W29975   4.435   0.145  13.381  0.4376  0.0790  0.0607
13129W        W29976  18.435   7.233   2.389  0.0980  0.0926  0.0603
13130W        W29977  13.718  10.255  10.976 -0.0833 -0.5394 -0.1332
13131W        W29978  18.045   7.617  12.810 -0.1873 -0.2940 -0.1937
13132W        W29979   9.125  18.078   3.730 -0.0956 -0.0126 -0.0327
13133W        W29980  11.445   8.137  11.680 -0.3803 -0.0627  0.0927
13134W        W29981   7.448  15.284  11.416 -0.1693  0.1679 -0.1161
13135W        W29982   9.001   5.328  15.326 -0.0477  0.0153  0.1105
13136W        W29983  14.645  13.551  14.387 -0.3766 -0.1155  0.0906
13137W        W29984   7.975  12.772   4.300 -0.0493  0.0031 -0.1159
13138W        W29985   9.024   8.931   1.148 -0.1031 -0.0568  0.0284
13139W        W29986   7.341   6.017  14.359  0.0334  0.0359  0.3539
13140W        W29987  15.247   2.137  14.987  0.1343  0.1730  0.0336
13141W        W29988  15.496  15.401   3.074  0.3599 -0.0013  0.1587
13142W        W29989  14.446   1.759   4.698  0.0839 -0.1401 -0.1358
13143W        W29990  11.646  17.946   2.397  0.2149  0.0957 -0.1346
13144W        W29991   7.816   1.863  12.008  0.2637  0.5990  0.0910
13145W        W29992   0.685  15.142  13.341 -0.1922  0.2536 -0.0901
13146W        W29993   7.467   6.977  14.123 -0.1761  0.1719  0.2264
13147W        W29994  12.762   0.020  13.358 -0.1058 -0.1854 -0.1899
13148W        W29995  18.777   4.885   1.890  0.0531 -0.0325  0.1164
13149W        W29996  17.598   6.967  11.293  0.1065  0.0981  0.0185
13150W        W29997   6.059   2.664  12.857 -0.0202  0.0400 -0.1884
13151W        W29998  12.544   7.860   2.197 -0.3907 -0.1453 -0.0668
13152W        W29999  10.192   7.542  11.160  0.3996 -0.1459 -0.1368
13153W        W30000   5.657   9.688  10.866  0.4002 -0.0258 -0.0779
13154W        W30001  12.303   7.584   4.621 -0.2090  0.3046  0.1034
13155W        W30002  12.098   7.100   3.804  0.0851 -0.2862  0.0278
13156W        W30003  15.764  16.326   3.316  0.2655  0.1271 -0.0570
13157W        W30004   5.039   4.372   2.393 -0.0779  0.2744 -0.0011
13158W        W30005   4.896   6.162   1.412 -0.1144  0.1032 -0.0686
13159W        W30006  11.650   2.742  11.771  0.0549 -0.0552  0.0843
13160W        W30007  10.297   9.840   0.352 -0.4605  0.0430 -0.0322
13161W        W30008  13.706   4.190   4.535  0.3428 -0.2124  0.0039
13162W        W30009   2.087   3.930  11.893  0.1516 -0.0355 -0.3754
13163W        W30010  10.146  11.371  14.665  0.0453  0.0645  0.3257
13164W        W30011  10.073  18.557   2.460 -0.0781 -0.3730 -0.4840
13165W        W30012   5.052  15.624   0.785  0.4128  0.1462 -0.1625
13166W        W30013  10.035  10.994  15.546 -0.1810 -0.1294 -0.1802
13167W        W30014  15.824  12.943  10.821 -0.1763  0.2949  0.0686
13168W        W30015   6.985  10.073  13.561  0.1841 -0.0643  0.1360
13169W        W30016  13.983  15.911  12.625 -0.1113 -0.0864 -0.1312
13170W        W30017   0.125  14.982   1.655  0.1795  0.0722 -0.0106
13171W        W30018  15.555  10.949  12.441  0.0107 -0.0504 -0.0904
13172W        W30019   7.282  17.598  12.817 -0.2273 -0.2273  0.2109
13173W        W30020  15.048  16.608   1.821  0.4183 -0.3581 -0.1313
13174W        W30021   4.754  14.936   1.182  0.1039 -0.0206 -0.2701
13175W        W30022  17.557   2.652   2.083 -0.3063 -0.1041  0.0033
13176W        W30023  15.590   1.412   3.439  0.1577 -0.1798  0.0577
13177W        W30024  12.629   6.574   2.453 -0.2773  0.1311 -0.0758
13178W        W30025   5.435   2.005  11.959  0.1236 -0.0343 -0.0789
13179W        W30026   9.487   9.425  11.961  0.1949 -0.1449 -0.2821
13180W        W30027  10.451   4.605   1.742  0.0911 -0.2432  0.1770
13181W        W30028  12.485   4.779  13.410  0.1286 -0.3182 -0.2719
13182W        W30029   5.229  12.562   1.064 -0.2667 -0.2141  0.0354
13183W        W30030  15.426  13.244   3.597 -0.1988 -0.2190  0.1511
13184W        W30031  16.492  11.638  14.587  0.1807 -0.1155  0.0319
13185W        W30032   3.293   8.287   1.072  0.1662  0.0966 -0.1866
13186W        W30033  14.367   4.118   1.301 -0.0305 -0.3447 -0.1996
13187W        W30034   0.478  16.120  10.439  0.1073  0.0211  0.1472
13188W        W30035  11.145  13.634   3.099 -0.0624 -0.0042 -0.0658
13189W        W30036   3.553   6.689  12.386 -0.1046 -0.0775  0.1305
13190W        W30037  14.127  15.315   4.614 -0.1179 -0.0359  0.0093
13191W        W30038   6.664   7.767   2.078 -0.1628  0.0021 -0.0136
13192W        W30039   6.475  17.454   1.097  0.0467 -0.4177  0.0161
13193W        W30040   4.446  14.239   3.828  0.1427  0.2222  0.1787
13194W        W30041   4.675   4.303   0.791  0.0703  0.1526 -0.3653
13195W        W30042   2.423  18.493  11.624  0.2268  0.0199 -0.4946
13196W        W30043   1.766  10.549  14.162 -0.4044 -0.1808 -0.2942
13197W        W30044   4.847  17.564   4.781 -0.1010 -0.0927 -0.0847
13198W        W30045  15.510   3.353   1.408 -0.0993 -0.1197 -0.1274
13199W        W30046  12.940  11.382   0.667  0.0881  0.1730  0.1961
13200W        W30047  17.484   9.539   2.816  0.0271 -0.0504 -0.0490
13201W        W30048  18.017  12.227  11.915  0.2376  0.1268  0.0388
13202W        W30049  11.377  16.308  14.854 -0.1888  0.0573  0.0639
13203W        W30050   9.262   7.276  12.256  0.1934  0.0662 -0.1706
13204W        W30051  10.613   0.187   1.881 -0.2149 -0.3105 -0.0671
13205W        W30052   1.278   7.880   1.434 -0.2862 -0.1975  0.2139
13206W        W30053   7.855  15.781  15.169 -0.0801 -0.1754  0.1044
13207W        W30054  10.904  15.639   9.546  0.1348 -0.0246 -0.0837
13208W        W30055  17.961   3.754   3.699 -0.1146  0.1316  0.0819
13209W        W30056   3.268  16.992   3.835  0.0581 -0.1787  0.0724
13210W        W30057   0.446   4.182  13.417  0.0162 -0.1057  0.0401
13211W        W30058  15.757  17.198  11.454 -0.0759 -0.0270 -0.2925
13212W        W30059   0.546   8.855  11.464  0.1201 -0.0951 -0.0106
13213W        W30060  13.445  11.275   3.362  0.2423 -0.0316  0.2946
13214W        W30061  11.277   9.521  11.414  0.0931  0.2593 -0.1885
13215W        W30062  11.565   0.924   0.355 -0.2546  0.3790  0.3287
13216W        W30063   2.600  18.327  14.457  0.2950 -0.1087 -0.2406
13217W        W30064  16.969   0.167   1.808 -0.1402 -0.1678  0.1036
13218W        W30065  11.805  12.240  14.063 -0.0755  0.0482 -0.0794
13219W        W30066   2.411  17.095  12.353  0.0076  0.2987  0.0866
13220W        W30067   3.217   1.788  12.844  0.3294 -0.0972  0.4160
13221W        W30068   1.683   4.620   0.210  0.0629 -0.0615  0.1625
13222W        W30069   2.809   3.170   3.624  0.0687  0.0817  0.0953
13223W        W30070  11.916   0.375   0.096 -0.2617  0.0231  0.1176
13224W        W30071   7.384  10.343   4.125 -0.1088  0.2194  0.1465
13225W        W30072   9.363   8.378  13.272  0.0220 -0.0830  0.2799
13226W        W30073   5.828  13.601  15.526 -0.2553 -0.0438  0.0849
13227W        W30074   4.114  17.098  13.232 -0.0284 -0.1342  0.0297
13228W        W30075  12.672   9.699  13.619 -0.1408 -0.1076 -0.2524
13229W        W30076   9.018   7.207  11.757 -0.1538 -0.0859  0.0415
13230W        W30077   9.658  12.331   5.223 -0.0522  0.2600  0.1499
13231W        W30078  16.859  10.367   2.216  0.1455 -0.3845  0.2142
13232W        W30079   6.182  14.867  14.267  0.3350 -0.2990 -0.2014
13233W        W30080  10.667  17.647   0.573 -0.0469  0.0298  0.2812
13234W        W30081   2.821   2.048  13.166  0.1811 -0.1564 -0.0863
13235W        W30082   4.797  15.870  11.513  0.1085 -0.3206 -0.1578
13236W        W30083  15.130  16.089   1.207 -0.0842  0.2203 -0.0531
13237W        W30084  18.222  12.199   3.421 -0.1226 -0.0197 -0.1174
13238W        W30085  16.480   5.930  10.817 -0.1795 -0.1695  0.2937
13239W        W30086   5.604   3.927   4.269  0.0301 -0.0989 -0.0226
13240W        W30087   1.273   7.919  15.537  0.0799 -0.3797  0.1568
13241W        W30088  13.302  17.414   3.432  0.1419  0.0242  0.1203
13242W        W30089   3.932  10.205  14.213  0.2863  0.0747 -0.3497
13243W        W30090   2.021   1.908  11.080 -0.1841  0.0142 -0.1490
13244W        W30091   4.634   3.051  14.385 -0.2199 -0.1802  0.3182
13245W        W30092  17.420   8.908  11.940  0.0634 -0.0921  0.2597
13246W        W30093   1.987   3.249  13.149 -0.0561  0.1051 -0.0519
13247W        W30094  15.996  14.924  11.017 -0.1519  0.1100 -0.0925
13248W        W30095   9.182   7.911   9.627  0.1685 -0.1744  0.0915
13249W        W30096  16.524   1.692   3.346 -0.5350  0.2285  0.1697
13250W        W30097  11.978   9.488   5.194 -0.1344 -0.2029  0.4966
13251W        W30098   0.438  10.999   4.276 -0.0863  0.2168  0.1763
13252W        W30099   6.740  14.555  14.735 -0.0880  0.0876  0.0547
13253W        W30100   1.395   7.841   3.067  0.0657 -0.3572 -0.0798
13254W        W30101   2.438   8.941   3.875 -0.0870 -0.3545  0.2290
13255W        W30102  16.175  13.866  12.943  0.1557 -0.2780 -0.0739
13256W        W30103   0.743   3.019  10.813  0.0386  0.2104  0.0372
13257W        W30104  13.871  11.330  14.846  0.1483  0.4350  0.0162
13258W        W30105  18.834  10.597  11.834 -0.0352  0.0111  0.0681
13259W        W30106  15.360  18.053  15.556  0.0810  0.0798  0.1003
13260W        W30107   4.140   7.499  13.494  0.2870 -0.2074 -0.1413
13261W        W30108   0.403   2.507  12.535 -0.0180  0.0193 -0.0018
13262W        W30109   4.624   0.228   1.239  0.1078 -0.1574 -0.0271
13263W        W30110  15.780   0.838  15.304  0.2859  0.2488 -0.0240
13264W        W30111   4.217  11.046  11.083  0.2799 -0.0370 -0.2178
13265W        W30112   9.705  14.047  11.141  0.0776 -0.1067  0.1692
13266W        W30113   4.168   9.851   5.001 -0.2105  0.0244  0.0366
13267W        W30114   0.028  18.207  15.063  0.1529  0.2004 -0.1736
13268W        W30115  14.524  12.407  10.060  0.1080 -0.0008 -0.1018
13269W        W30116   7.163  16.195  14.786 -0.1116  0.3303 -0.0421
13270W        W30117  13.651  12.097  12.046  0.4913 -0.1777 -0.3808
13271W        W30118  12.777  16.218   2.091 -0.2008 -0.0928 -0.0375
13272W        W30119   9.197   3.701   4.000  0.1479  0.0983 -0.1453
13273W        W30120  14.595   6.912   4.343 -0.1196  0.1716  0.1871
13274W        W30121   2.705   4.001   4.094  0.0088 -0.2537 -0.1419
13275W        W30122  10.137   2.470  13.584 -0.1010  0.0706  0.1672
13276W        W30123   6.231  16.349  12.589  0.0179  0.1574 -0.0497
13277W        W30124   5.965  14.215  11.536  0.1340  0.1532 -0.0507
13278W        W30125  11.213  15.580  12.940 -0.2740  0.1463 -0.0899
13279W        W30126  12.152   7.368  13.250 -0.3110  0.1414 -0.0314
13280W        W30127   1.748  12.026  15.310 -0.2146  0.1978 -0.2673
13281W        W30128   6.599   4.907   1.978 -0.3625  0.2050  0.2456
13282W        W30129  16.082  15.734  15.040 -0.0239 -0.0492  0.2570
13283W        W30130   8.319  18.223  15.169  0.2743 -0.2147  0.1113
13284W        W30131   8.547   3.654  15.181  0.0194  0.0619 -0.3533
13285W        W30132  12.260  13.956  11.155  0.0689  0.0856 -0.3194
13286W        W30133  16.944  14.296  15.284  0.0306  0.1059 -0.0339
13287W        W30134   2.099  17.085  14.355  0.1518 -0.0478 -0.2969
13288W        W30135   3.220   8.682   1.482 -0.4160 -0.3514 -0.1130
13289W        W30136   0.339  15.738  10.786 -0.1559  0.0379  0.2221
13290W        W30137  18.633  15.849   2.912  0.1499 -0.1468  0.1656
13291W        W30138   2.557  14.482   1.203 -0.0666 -0.0877 -0.2491
13292W        W30139   5.610  12.885   2.884 -0.2079 -0.0238  0.0771
13293W        W30140  13.720   1.717  13.819  0.1973  0.0767  0.0108
13294W        W30141  10.945  11.640   0.997  0.1283 -0.4301 -0.0598
13295W        W30142  12.687  12.413   4.423 -0.0305  0.0076 -0.3401
13296W        W30143   8.426   7.886   4.886 -0.2748 -0.1580 -0.1180
13297W        W30144  16.340   8.022  12.066  0.1458  0.1620  0.0290
13298W        W30145  12.771   1.180   0.031  0.0453  0.1710 -0.1015
13299W        W30146   7.483  15.205  15.551 -0.1475  0.0381  0.1386
13300W        W30147  15.569  11.166   3.700  0.1365 -0.5190  0.2369
13301W        W30148  12.144  16.623  13.754  0.1023 -0.0121  0.2413
13302W        W30149   4.870   0.752  12.829  0.2424 -0.2095 -0.1177
13303W        W30150   4.874  12.475   0.255 -0.1884  0.1348  0.0482
13304W        W30151  17.523  10.607  12.183  0.0552 -0.0929  0.1369
13305W        W30152  17.568   5.983   4.213  0.2146 -0.0647  0.1185
13306W        W30153   5.918  12.324  14.431  0.3745  0.3217 -0.2298
13307W        W30154   9.284  16.583   4.622 -0.0040 -0.2367  0.2934
13308W        W30155  10.916   9.553   2.416 -0.0237 -0.0652  0.1430
13309W        W30156  10.889   4.061  14.346  0.2221 -0.1428 -0.1096
13310W        W30157   0.103  17.915   4.067  0.0807 -0.1920 -0.1674
13311W        W30158   0.179  15.128  14.167 -0.0518 -0.0244 -0.3223
13312W        W30159  12.228   3.827  12.583 -0.0147  0.2453 -0.2748
13313W        W30160  15.756  11.360   4.928 -0.1818 -0.1907 -0.0329
13314W        W30161  14.694  14.817   3.210  0.1497 -0.1004  0.1934
13315W        W30162  17.715  15.304   0.857  0.1472 -0.0320  0.2574
13316W        W30163  11.757   2.603   5.385  0.1938  0.0942 -0.0394
13317W        W30164  17.114   9.086   0.251  0.0255  0.0362 -0.1211
13318W        W30165   8.308   7.977  14.789 -0.0174 -0.0337  0.0806
13319W        W30166   8.861  13.420  12.756  0.1745 -0.3735 -0.0728
13320W        W30167  17.931  17.336   2.890  0.0890  0.0944 -0.0371
13321W        W30168  17.659   6.299   5.338 -0.0053  0.2978  0.0640
13322W        W30169   5.526   9.949  14.189  0.6847  0.0136 -0.0002
13323W        W30170  15.662  13.232  11.289 -0.2715  0.1905  0.0624
13324W        W30171  14.411   8.299  12.107  0.1800 -0.0551  0.0914
13325W        W30172  15.138   3.335   2.788 -0.0483 -0.3699 -0.3808
13326W        W30173   3.888   4.661   1.097  0.1071  0.0085 -0.1329
13327W        W30174  11.998   0.719   1.772  0.0108 -0.0155  0.0052
13328W        W30175  13.446   9.029   4.205 -0.0518 -0.2934 -0.3513
13329W        W30176  11.758  10.124   3.083  0.3241 -0.2082 -0.0346
13330W        W30177  15.394   2.180   0.060 -0.0525  0.0712  0.4839
13331W        W30178  15.832   7.177  15.046 -0.1140 -0.0148  0.0043
13332W        W30179   7.097  18.075   1.454 -0.1915  0.0592 -0.0599
13333W        W30180   6.693  12.771  14.889 -0.1904 -0.0218 -0.0379
13334W        W30181  10.533  16.114   1.114 -0.4123 -0.4278 -0.1587
13335W        W30182  11.652  15.365   3.984 -0.1798 -0.2467  0.1352
13336W        W30183  13.693  12.532   2.752  0.2206 -0.0402 -0.1797
13337W        W30184   2.661   1.621  14.174  0.2486 -0.0164  0.0482
13338W        W30185  11.459  18.027   0.401  0.1156 -0.2106 -0.1462
13339W        W30186  11.669   6.253  11.990  0.0669 -0.2695  0.0862
13340W        W30187  15.218   5.543  11.651  0.0001  0.1525 -0.1324
13341W        W30188   3.231   6.638  14.273  0.0327  0.1064  0.1981
13342W        W30189   4.120   2.300   0.324 -0.0981 -0.0890  0.1962
13343W        W30190   4.269   6.295   2.466  0.1173  0.1266  0.2514
13344W        W30191   2.444   8.401   0.572  0.1899 -0.0811 -0.1256
13345W        W30192  18.202   4.184   4.485 -0.1864 -0.3440  0.0460
13346W        W30193   9.218   9.051   4.149  0.0233 -0.1440  0.1326
13347W        W30194   6.109   7.080   4.699  0.0276  0.1347 -0.1051
13348W        W30195   7.381   7.897  13.752 -0.0362 -0.0832  0.2761
13349W        W30196   9.616  11.759   0.545  0.0048  0.2332 -0.0578
13350W        W30197  18.767  10.282  13.311 -0.1768 -0.4158 -0.0316
13351W        W30198   7.127   8.349   5.889  0.3556  0.2787  0.1734
13352W        W30199  17.142   4.396   3.386 -0.2219 -0.2053  0.1641
13353W        W30200  16.159  15.086  13.530 -0.1333  0.3487  0.0009
13354W        W30201   0.247   7.632   0.803 -0.1446  0.1569 -0.0958
13355W        W30202   3.766   2.950  10.696 -0.1589  0.0687 -0.4502
13356W        W30203  12.353  10.048  13.404 -0.0108  0.2961  0.1391
13357W        W30204  10.213   6.053   1.675 -0.2536  0.1049 -0.0010
13358W        W30205   0.426   6.739  14.235  0.1555  0.0447  0.0610
13359W        W30206   7.961   5.293  14.405 -0.1351 -0.0270  0.0518
13360W        W30207  14.966  13.377   0.104 -0.1256 -0.0551 -0.0211
13361W        W30208  18.556  11.007  11.617 -0.1707  0.3676  0.2299
13362W        W30209  16.468   3.072  11.856 -0.0955  0.0602 -0.0321
13363W        W30210   7.495   1.274   5.060 -0.0306  0.1021 -0.0583
13364W        W30211   9.048   6.277   3.494 -0.1151 -0.0606  0.1951
13365W        W30212  14.234  15.369   1.089  0.2761  0.0687 -0.1234
13366W        W30213  10.052  11.609  12.572 -0.1552  0.0359  0.0731
13367W        W30214  12.412  17.442  12.916 -0.2640  0.0206 -0.0093
13368W        W30215  17.311  18.478   4.088 -0.1831  0.2764 -0.0835
13369W        W30216   8.890  10.377   0.013  0.2600 -0.1211  0.1008
13370W        W30217   3.178  14.176   3.251  0.1834  0.0864  0.2324
13371W        W30218   5.917   1.937   1.971 -0.0834  0.1202  0.1172
13372W        W30219  16.928  18.789   4.034 -0.1335 -0.1666  0.0212
13373W        W30220   9.381   8.220  15.189  0.4505 -0.0683 -0.0125
13374W        W30221  14.691   4.226   4.384  0.1813 -0.1145  0.1387
13375W        W30222   7.672   6.641  13.202  0.1156 -0.3014  0.1592
13376W        W30223  15.708   5.096   2.388 -0.0153  0.0435 -0.1454
13377W        W30224  15.206   2.494  14.123  0.0908  0.0097  0.0600
13378W        W30225  13.384   6.342   4.631  0.2171  0.4016  0.2640
13379W        W30226   0.336  16.737  13.499  0.1603  0.0639  0.1089
13380W        W30227   1.026   5.136   0.402 -0.0197  0.1522 -0.1846
13381W        W30228  18.276  18.202  10.803 -0.0988  0.0531  0.1551
13382W        W30229   9.204   0.678   3.631  0.2772  0.0551  0.0127
13383W        W30230   6.556   9.857  13.375 -0.0099  0.1323 -0.2493
13384W        W30231   5.922   1.459   1.684 -0.1764  0.0456  0.1128
13385W        W30232   1.350   9.692   4.068 -0.3716  0.3073 -0.2036
13386W        W30233  10.536   2.361  14.570  0.1512  0.0874  0.0648
13387W        W30234   2.446  16.073   4.689 -0.0859  0.0657  0.1424
13388W        W30235   5.515  10.278  13.223  0.0875 -0.1347 -0.3011
13389W        W30236   7.997   4.566  11.256  0.3617  0.1464  0.0462
13390W        W30237   2.810   9.964   2.479 -0.0630 -0.1827 -0.1300
13391W        W30238  13.256   5.498   4.441 -0.1760  0.1106  0.1012
13392W        W30239  15.242  15.353   3.529 -0.1012 -0.0323 -0.2024
13393W        W30240  10.447   5.424   0.365 -0.0591 -0.1632  0.2037
13394W        W30241  13.860  12.986  13.463  0.0007  0.0228  0.4264
13395W        W30242  18.509   0.757  14.923  0.2024 -0.0334 -0.1598
13396W        W30243  17.266   3.012   4.706  0.3153  0.0307  0.0550
13397W        W30244   2.060   0.003  11.648  0.1020  0.2122 -0.0381
13398W        W30245  12.428   2.884   4.565  0.0256 -0.1614  0.0097
13399W        W30246  17.976  11.360   2.828  0.0733  0.1107 -0.0517
13400W        W30247  12.530   9.820   4.133 -0.1556 -0.0566 -0.0900
13401W        W30248   0.152  10.786   2.322  0.2152 -0.3406 -0.0937
13402W        W30249   4.261  10.986   4.522 -0.4244 -0.0007  0.1847
13403W        W30250  10.234  10.922   3.136 -0.1518 -0.2443  0.3200
13404W        W30251  11.787  11.001   3.525 -0.0020 -0.1147  0.1045
13405W        W30252   7.347  15.867   1.825 -0.0361  0.0312 -0.1313
13406W        W30253  14.880   1.422   5.682 -0.0161 -0.2167 -0.0250
13407W        W30254   7.605   9.645  13.134 -0.3066  0.3332 -0.2001
13408W        W30255  16.725   9.078   1.679 -0.0177  0.2363 -0.1528
13409W        W30256   8.146  11.480   3.930  0.1485  0.0793  0.0432
13410W        W30257   2.395   8.564   1.378  0.3065 -0.0785 -0.0294
13411W        W30258  17.226   9.414  11.754 -0.0207  0.1117  0.3064
13412W        W30259   8.288   8.060   2.136  0.3075  0.0127 -0.3125
13413W        W30260  10.341  16.839   3.741 -0.2605 -0.0599  0.1996
13414W        W30261   5.599  16.349  13.335  0.1380  0.0859  0.0789
13415W        W30262  16.760  11.174  11.136 -0.0986 -0.0554 -0.1872
13416W        W30263   5.989  11.352   3.105 -0.2532 -0.0233 -0.0312
13417W        W30264  13.895  10.579   1.179 -0.2267 -0.1004  0.0670
13418W        W30265  11.615   0.535  13.034 -0.2007  0.1141 -0.0377
13419W        W30266  10.118  11.149   0.887 -0.3390  0.0528  0.1465
13420W        W30267  18.154  16.146   0.694  0.2687 -0.1294  0.1814
13421W        W30268   6.102   6.526  11.021 -0.1347  0.0504 -0.0705
13422W        W30269   9.277   2.708  11.749  0.3619 -0.3054 -0.2559
13423W        W30270  17.588   7.474  12.096 -0.0878 -0.1196 -0.0741
13424W        W30271  13.052  12.910   3.407  0.1241  0.0274  0.1526
13425W        W30272  11.129   3.673  14.691  0.0407 -0.0415  0.1927
13426W        W30273   6.517   4.832  13.242  0.0099  0.0809  0.1887
13427W        W30274  12.815  13.438  10.602 -0.4706 -0.1845 -0.2456
13428W        W30275  11.945  10.815   2.325 -0.1822  0.0910  0.2852
13429W        W30276  14.637  12.345  11.430  0.0763 -0.2087 -0.3596
13430W        W30277   2.842   0.282  12.662  0.1361 -0.0291 -0.1879
13431W        W30278   2.870   5.899  12.759 -0.3284 -0.0821 -0.1704
13432W        W30279  14.423   6.134   4.699 -0.3068  0.0570 -0.0525
13433W        W30280  10.846   8.320   3.007 -0.1683 -0.1175 -0.3091
13434W        W30281   9.197   6.421  12.198  0.2561  0.1490  0.3250
13435W        W30282  12.263   2.117   3.393 -0.1014  0.1716  0.1691
13436W        W30283  16.075  13.969  11.268  0.2646 -0.0219 -0.1529
13437W        W30284  11.508  11.831   0.125 -0.5552 -0.1466 -0.0289
13438W        W30285   1.066   5.198   1.268  0.0914 -0.3072 -0.0770
13439W        W30286   7.263   5.581  13.262 -0.4294  0.3436 -0.3393
13440W        W30287  17.087  18.641  13.240 -0.3565  0.1856  0.1415
13441W        W30288  18.100   0.930   0.514 -0.0141 -0.2081  0.1049
13442W        W30289   3.638   5.045  11.409 -0.2010  0.1679  0.0603
13443W        W30290   7.534  12.636  14.753 -0.0939 -0.1980 -0.0732
13444W        W30291   4.682  18.500  14.785 -0.1673  0.0441  0.0781
13445W        W30292   4.894   6.266  13.391 -0.0388  0.4533 -0.0116
13446W        W30293   7.581   1.951   3.004 -0.0745 -0.0775 -0.1885
13447W        W30294   1.224   1.300   1.356  0.2769  0.3351 -0.0810
13448W        W30295  14.579   7.256  13.891 -0.0360  0.3558 -0.2744
13449W        W30296   3.694  14.039  11.359 -0.1485  0.3067 -0.0260
13450W        W30297  18.095   8.137  13.842  0.1892 -0.0592 -0.1127
13451W        W30298  14.133   3.939   5.820  0.1252 -0.1081  0.1193
13452W        W30299   9.450   8.073  11.601  0.1701  0.3220 -0.0937
13453W        W30300  16.504   6.949   5.026  0.0697  0.1258 -0.2823
13454W        W30301  12.991  17.087   4.349 -0.1731  0.1880 -0.0155
13455W        W30302   7.002  11.722   0.287  0.0335 -0.0538  0.1643
13456W        W30303   3.957  11.638   4.094  0.0870  0.1341  0.1168
13457W        W30304   6.252  17.439   3.376 -0.0344  0.1019 -0.2438
13458W        W30305  11.836   3.338   5.218  0.0541 -0.2427 -0.0481
13459W        W30306  13.499   2.739  10.812  0.1143 -0.2652  0.0634
13460W        W30307   8.091   2.500  11.438 -0.3779  0.1081  0.0151
13461W        W30308  14.854  16.053   2.369  0.1910 -0.1546 -0.0406
13462W        W30309  14.122  12.331   4.489  0.1046  0.0630  0.0874
13463W        W30310  11.341   1.793   0.215  0.1749  0.1556 -0.0417
13464W        W30311   9.943   6.755   4.537 -0.0070  0.0662 -0.2684
13465W        W30312   9.253  13.327  13.126 -0.1565 -0.3798  0.0470
13466W        W30313   9.419   3.509   1.852  0.3018 -0.1207 -0.0360
13467W        W30314   7.460   2.752   5.490  0.1829 -0.0860 -0.1287
13468W        W30315  18.059   3.019   1.892  0.0988 -0.1247 -0.0689
13469W        W30316  13.334  17.960  14.471  0.1649 -0.1716  0.0687
13470W        W30317   4.934  12.244   1.325  0.1439  0.1761  0.0597
13471W        W30318   3.839   4.498   1.816  0.0571 -0.0570 -0.1512
13472W        W30319   4.902  16.322   3.376 -0.2610  0.2470 -0.1301
13473W        W30320   6.489  13.209   0.958  0.0241  0.0584 -0.0940
13474W        W30321   0.893  11.277   4.349 -0.0828 -0.1212  0.2150
13475W        W30322   8.933  10.061   1.955  0.5393 -0.0523 -0.1664
13476W        W30323  11.700  12.271   1.992  0.1612 -0.2277 -0.1284
13477W        W30324   8.911  13.186   2.382  0.2528 -0.4399 -0.0651
13478W        W30325   3.310  14.553   2.195  0.0279  0.2464 -0.1742
13479W        W30326   4.898   1.578   4.772  0.3035  0.1375  0.0789
13480W        W30327   5.994  17.703  14.370 -0.2643 -0.0978 -0.1386
13481W        W30328   5.677  10.403  13.660  0.0804 -0.2582  0.2330
13482W        W30329  13.868  17.569  13.201 -0.2418  0.0082 -0.0053
13483W        W30330   5.556   9.896  12.398 -0.3441  0.1758  0.0265
13484W        W30331  11.337   6.197   2.599  0.0532  0.1962 -0.1853
13485W        W30332   1.666   7.255   3.881 -0.1769 -0.1618 -0.1518
13486W        W30333  13.278  11.843  13.157 -0.1985 -0.0258 -0.0669
13487W        W30334  18.262   1.877   3.441 -0.0080  0.0230  0.0699
13488W        W30335   1.947  18.594   1.428 -0.4071 -0.0969  0.0144
13489W        W30336   3.389   7.587  14.928 -0.1131  0.3540 -0.0216
13490W        W30337   8.027   6.403  14.917  0.1758  0.0252 -0.1806
13491W        W30338   0.632   8.712   4.234 -0.0565 -0.1722  0.3678
13492W        W30339   0.821  13.721   2.959 -0.0276 -0.2985 -0.0437
13493W        W30340  16.140   7.997  15.379 -0.2043 -0.0621 -0.2321
13494W        W30341   9.539  18.192  12.791 -0.0250 -0.0315  0.1911
13495W        W30342  16.472   4.412  12.355  0.0207  0.3007 -0.2278
13496W        W30343   6.757   1.769   3.550  0.0163  0.3077  0.1652
13497W        W30344   7.573   1.101  11.585  0.1501  0.0629 -0.1076
13498W        W30345   7.527   4.220   0.410 -0.0252  0.1091  0.3469
13499W        W30346   6.205   1.640   0.461  0.2363 -0.0508  0.2854
13500W        W30347  13.761   2.145   0.822  0.1376  0.3454 -0.1545
13501W        W30348   2.491  16.943  10.331  0.0512 -0.0985  0.1193
13502W        W30349   0.631   9.256   0.010 -0.1318 -0.2954 -0.1120
13503W        W30350  13.228   0.278   0.823 -0.0737 -0.0878  0.0120
13504W        W30351   9.627  12.937  12.245  0.1120 -0.1772  0.0834
13505W        W30352   6.859  11.191   0.791 -0.0813 -0.1404  0.0952
13506W        W30353   5.349   0.607   2.430  0.1239 -0.0606 -0.1557
13507W        W30354   6.157  14.474   4.992 -0.3054  0.0144 -0.1688
13508W        W30355   3.432   6.250  14.435  0.3065  0.1930 -0.1868
13509W        W30356   2.492  10.906  13.565  0.3279  0.1160  0.0862
13510W        W30357   0.293  16.284   4.208  0.0897 -0.0874 -0.1045
13511W        W30358   2.065  18.371  13.234 -0.2437 -0.0173 -0.2182
13512W        W30359   7.323   8.526   2.222  0.1483  0.3120 -0.2039
13513W        W30360  18.443  14.915   2.892  0.1779  0.1716 -0.2547
13514W        W30361  11.324  13.337  11.362 -0.0729 -0.3460 -0.0052
13515W        W30362   7.459   6.023  13.296  0.1254 -0.2572  0.0023
13516W        W30363   3.167   4.066  10.779  0.1391  0.1052 -0.0000
13517W        W30364  14.181   7.498  11.469 -0.0450  0.0578  0.0146
13518W        W30365  15.749   6.327   2.920  0.1648  0.0123  0.1844
13519W        W30366  14.089   7.890   1.987  0.4873  0.1064 -0.2344
13520W        W30367   1.740  10.430   3.402 -0.0356  0.0266 -0.2246
13521W        W30368   6.355  18.426   4.783 -0.1072 -0.0139 -0.1120
13522W        W30369  16.241   6.056  11.309  0.0911 -0.1777  0.0606
13523W        W30370  17.340   5.040   2.062  0.1315 -0.1950 -0.1948
13524W        W30371   4.489  10.443  14.800  0.2097 -0.3710 -0.0810
13525W        W30372   3.065   9.648   2.911  0.0923 -0.0181 -0.1336
13526W        W30373   9.450   9.993   1.345  0.0662 -0.0897  0.3386
13527W        W30374   7.097  16.775   3.500  0.1917 -0.1132  0.3168
13528W        W30375   1.812   9.840  11.900  0.1292  0.2476  0.0964
13529W        W30376   1.333  11.010  11.119 -0.2107 -0.1155  0.0792
13530W        W30377  10.933   6.221   2.373 -0.3852 -0.3315 -0.1176
13531W        W30378   9.864   0.862   5.481 -0.0757 -0.0435  0.0850
13532W        W30379   9.916   8.599   0.934 -0.2033  0.1841 -0.0749
13533W        W30380  15.263   0.114   0.076 -0.2800 -0.2566 -0.0798
13534W        W30381  16.242   3.015  13.207 -0.0613 -0.1183  0.1795
13535W        W30382  13.400  17.510  13.277 -0.4996  0.1741 -0.2686
13536W        W30383   7.238   6.529  11.549  0.2170  0.0694 -0.0468
13537W        W30384   2.596   4.820   3.857  0.0305 -0.2270  0.1314
13538W        W30385  16.199  12.755   0.641  0.1722  0.2013  0.1081
13539W        W30386   5.850  18.498   1.325  0.1734 -0.1384 -0.0220
13540W        W30387   6.288  10.111   3.178 -0.3034 -0.4384  0.1768
13541W        W30388   2.189   6.231   1.452  0.0282  0.1043  0.3153
13542W        W30389   4.833  16.076  10.119 -0.0742 -0.1010 -0.4469
13543W        W30390  16.657   2.476  14.101 -0.0227 -0.1108 -0.4215
13544W        W30391  17.227  16.325   3.386  0.0822  0.0639 -0.1212
13545W        W30392  16.821  14.678  13.093 -0.0166  0.3028 -0.0397
13546W        W30393   4.191   6.916  13.254 -0.1769 -0.0040 -0.0434
13547W        W30394   1.989  18.381   0.038 -0.1839 -0.0458 -0.0300
13548W        W30395   9.134   9.368   2.722  0.0106  0.0097 -0.2551
13549W        W30396   2.807  16.804   1.774  0.2649  0.0661 -0.2962
13550W        W30397   4.615   7.837   3.982 -0.0332 -0.0201  0.0063
13551W        W30398  16.344  15.881  12.822 -0.2539 -0.1214  0.0075
13552W        W30399  16.974   5.186   1.199  0.2118  0.0345 -0.0865
13553W        W30400   4.966   8.549   2.050  0.3071  0.0695 -0.1604
13554W        W30401   3.707  12.399   3.097  0.0057  0.2943 -0.1963
13555W        W30402  18.494  10.187  14.355 -0.0191  0.0917  0.0002
13556W        W30403   2.395   5.007   0.585  0.3265  0.0628 -0.3629
13557W        W30404   2.495  14.456  13.849 -0.0855 -0.0478 -0.0760
13558W        W30405   9.265   3.909   4.457 -0.1213  0.1801 -0.2734
13559W        W30406  16.879   1.793   4.501  0.1014 -0.0910 -0.0405
13560W        W30407   2.547  15.191  14.331  0.1112 -0.1855 -0.0804
13561W        W30408   5.297  13.484  14.982  0.3474 -0.0895  0.0805
13562W        W30409   5.568  14.168  12.402 -0.1553  0.1626  0.0190
13563W        W30410   9.800   8.129  12.367  0.3253 -0.1239  0.2152
13564W        W30411  11.148   5.852  12.669  0.0120 -0.0723  0.1869
13565W        W30412  12.848   3.381   3.319  0.0578 -0.0584 -0.0347
13566W        W30413   9.446   4.465   4.485  0.1119 -0.2281  0.0769
13567W        W30414  16.132   6.770   4.736  0.4195 -0.0286  0.1705
13568W        W30415  15.064  17.052  11.207  0.2125  0.0268 -0.1042
13569W        W30416  11.530  14.863  12.896 -0.3509  0.0190  0.0290
13570W        W30417  18.123   1.149   1.819 -0.0359  0.0260  0.2993
13571W        W30418  12.775   3.682  12.645 -0.0446  0.0923 -0.0478
13572W        W30419   6.491   4.309   3.140 -0.1383 -0.1518 -0.0758
13573W        W30420   6.093   1.238   0.195 -0.0124  0.0092 -0.1024
13574W        W30421   1.036  17.048   1.775 -0.0270 -0.1347 -0.2095
13575W        W30422  15.269   3.330   0.529 -0.1263  0.4254  0.0741
13576W        W30423  18.396   3.958   3.373 -0.0642 -0.1964  0.0713
13577W        W30424  13.461  14.235   0.408  0.0266  0.1057 -0.0323
13578W        W30425  13.172  13.247   3.837 -0.0625  0.4176  0.2582
13579W        W30426   0.553  15.503  11.409 -0.0719  0.6151 -0.3898
13580W        W30427   2.751  10.542  15.076 -0.1531  0.2012  0.0524
13581W        W30428  11.165  12.573  11.627 -0.0896  0.0428 -0.2973
13582W        W30429   7.909  18.123   4.435  0.1404  0.3332 -0.0927
13583W        W30430   0.306   2.125  12.125 -0.0273 -0.0338  0.4648
13584W        W30431  17.054  17.188   0.546 -0.0442 -0.0805 -0.0657
13585W        W30432   6.953  18.269   1.908  0.1095 -0.0818  0.2028
13586W        W30433  17.514  15.466  15.070  0.1281 -0.1873  0.0135
13587W        W30434   5.296   8.842   4.129  0.2300  0.2252  0.1837
13588W        W30435  15.934   7.743   2.249 -0.0379  0.0939  0.0463
13589W        W30436   7.682   2.511   2.048  0.1210 -0.0688  0.0379
13590W        W30437  13.783  15.669   4.512 -0.3842  0.1418 -0.1687
13591W        W30438  10.315   5.501   1.930 -0.3046  0.0402  0.1252
13592W        W30439  18.529   9.145  14.075  0.1808  0.1727 -0.2498
13593W        W30440  15.493   1.962   3.359  0.0944  0.2521 -0.0602
13594W        W30441   3.206  18.529   3.318 -0.1309  0.0812 -0.2696
13595W        W30442  18.543   3.361   0.679 -0.0996  0.4731 -0.0482
13596W        W30443  10.572   5.020   4.498 -0.3688 -0.0031  0.1463
13597W        W30444   4.353  17.615   0.105  0.2108 -0.0466 -0.1711
13598W        W30445   1.197   9.793   0.322  0.2482  0.0726 -0.0415
13599W        W30446  14.314  14.641   0.344 -0.1747  0.1225 -0.0040
13600W        W30447  17.611   1.228  11.872  0.1679 -0.0758  0.1358
13601W        W30448   6.444  11.846   2.831  0.4523 -0.3270  0.0346
13602W        W30449   4.684   2.917   3.393  0.1646  0.0338  0.4151
13603W        W30450  14.355   8.511   2.721 -0.3572  0.1643 -0.1022
13604W        W30451  17.710  11.525  12.404  0.0491 -0.2441  0.1042
13605W        W30452   0.109  17.790  12.083 -0.1663  0.1859  0.0061
13606W        W30453   1.113   9.141  14.359  0.1691 -0.3034  0.1514
13607W        W30454  17.277   2.844   2.991  0.0361 -0.1285  0.2819
13608W        W30455  18.398  15.707  12.363 -0.0313 -0.0987 -0.0320
13609W        W30456  11.886  15.358  13.592  0.0082  0.1263  0.0267
13610W        W30457   6.440   5.912  11.747  0.0280  0.0338 -0.0238
13611W        W30458  11.385   1.653  12.763  0.2268  0.2470 -0.2040
13612W        W30459  16.175   8.178   2.208  0.1578 -0.1336 -0.3177
13613W        W30460   0.161  14.411  13.000 -0.0657  0.3253  0.0965
13614W        W30461  11.210   7.095  14.856 -0.0434  0.0212 -0.2318
13615W        W30462   1.550   2.603  10.851  0.0698 -0.1554  0.0596
13616W        W30463   8.567   1.251   0.838  0.0442  0.0957  0.0305
13617W        W30464  17.743  12.222   0.556  0.1291  0.0630  0.2425
13618W        W30465  17.993   1.339   1.391  0.1030  0.0060  0.3163
13619W        W30466   8.898   7.270   3.773  0.0963  0.0913  0.1231
13620W        W30467   6.660  11.999   4.064 -0.1021 -0.0578 -0.3757
13621W        W30468   5.187   7.335  14.506  0.2270  0.1446  0.0393
13622W        W30469   0.589  14.078  15.479 -0.0405  0.1502  0.1535
13623W        W30470  17.762  17.393   4.813  0.1530 -0.0759  0.1616
13624W        W30471  16.473  12.313  15.063 -0.0659 -0.2272  0.0918
13625W        W30472   9.814  11.355  11.734  0.0013 -0.0568  0.0931
13626W        W30473  17.243   8.636  15.525 -0.0849  0.1123 -0.0804
13627W        W30474   3.001  15.118  12.043 -0.1361 -0.1165 -0.1308
13628W        W30475  10.041  14.041   4.205  0.0195  0.1448  0.2720
13629W        W30476  16.987  10.108   0.321  0.0667  0.1671 -0.2409
13630W        W30477  18.391  13.147  14.250  0.2042  0.2147  0.0865
13631W        W30478   1.002   3.073  10.280 -0.2190  0.1128 -0.0902
13632W        W30479   9.649  14.763  14.452 -0.1069  0.0142  0.0515
13633W        W30480   4.407   2.178  14.288 -0.0203 -0.0819  0.0975
13634W        W30481   0.774   2.228  12.332 -0.1184 -0.1295 -0.0280
13635W        W30482  11.871  10.330  13.848  0.0009 -0.1941  0.0150
13636W        W30483   6.222   9.707  11.076  0.1265 -0.0687  0.0384
13637W        W30484   4.817  16.112   4.466  0.0844  0.0213 -0.1034
13638W        W30485   5.396  11.138  10.167  0.1195  0.1224 -0.3190
13639W        W30486  11.915   6.702  15.210 -0.0422 -0.0941 -0.0030
13640W        W30487   0.275  16.752   3.908 -0.3517  0.2877 -0.1289
13641W        W30488   9.358  10.117  13.143 -0.1274 -0.0796 -0.1010
13642W        W30489   2.496   1.840   0.195 -0.0845 -0.0769  0.2889
13643W        W30490  16.817   6.358  11.954  0.2133 -0.2455 -0.2231
13644W        W30491   7.092   5.056  13.982 -0.2804  0.1991 -0.0560
13645W        W30492   0.659   8.928   2.952  0.0550  0.1304  0.0252
13646W        W30493   4.202  18.329   1.675 -0.2852 -0.0403  0.1185
13647W        W30494  18.175   6.036   0.914 -0.2783 -0.3482 -0.2587
13648W        W30495   8.482   0.161  12.195 -0.0524 -0.1108  0.1922
13649W        W30496  15.500  18.341  11.799  0.3715 -0.3440  0.1480
13650W        W30497   8.735  13.685   3.759  0.0069 -0.1173  0.0548
13651W        W30498   0.782   1.980   1.784  0.0078  0.2203 -0.1733
13652W        W30499  13.427  10.090   2.300 -0.1798  0.1223  0.0009
13653W        W30500  10.679   0.748  13.032  0.1198 -0.1144  0.2094
13654W        W30501   0.431   3.064  12.788  0.1214 -0.2524  0.0711
13655W        W30502  17.790   9.851  12.266 -0.0110  0.0410 -0.0142
13656W        W30503   6.682  10.296  15.219 -0.1556 -0.0849 -0.1299
13657W        W30504  13.321   1.758  13.464  0.0379  0.2547 -0.0436
13658W        W30505   9.363  17.737  13.352  0.1716  0.1126 -0.2357
13659W        W30506   2.448  17.068   0.472  0.1299 -0.0469  0.1384
13660W        W30507  18.737   3.995  11.886  0.2882 -0.2145 -0.1785
13661W        W30508  16.472   6.890   2.688  0.1106  0.1096  0.1956
13662W        W30509   3.039   0.184  15.087  0.1341  0.0491 -0.2961
13663W        W30510   4.794  13.195   4.666 -0.1015  0.1375  0.3754
13664W        W30511   4.255   8.813  12.980 -0.1044  0.0117  0.2356
13665W        W30512   7.934   1.238   0.186  0.1718 -0.1901 -0.0808
13666W        W30513  13.375  11.810   4.112 -0.0733  0.0842  0.2351
13667W        W30514   7.686  11.765   3.111 -0.0144  0.2287  0.1544
13668W        W30515  16.388  17.560  14.906  0.2319 -0.1826 -0.3880
13669W        W30516  13.291  16.274  12.046  0.0345  0.2717  0.0340
13670W        W30517  10.123   4.878   5.175 -0.1871 -0.1081  0.1610
13671W        W30518   6.401   0.496   5.848 -0.1034  0.4541 -0.2733
13672W        W30519  16.658  16.798   4.851  0.1120  0.1046 -0.0698
13673W        W30520   0.905   4.469   4.620 -0.0366 -0.0275 -0.1390
13674W        W30521  14.560  13.683  11.950  0.1644 -0.1674 -0.0579
13675W        W30522  16.030   0.542  14.667  0.0769  0.2080 -0.1580
13676W        W30523  17.962   9.767   2.842  0.3363 -0.1535 -0.3126
13677W        W30524  16.867   3.818  10.846 -0.3167 -0.1845  0.4512
13678W        W30525   8.379   2.013  12.750 -0.3146 -0.1501 -0.1858
13679W        W30526   0.044   2.148   5.192  0.0490  0.1828 -0.0302
13680W        W30527  15.926  15.294   2.796 -0.2708  0.1443 -0.0193
13681W        W30528   4.176   8.740  11.632  0.1780 -0.2476  0.1399
13682W        W30529  15.778  16.933   4.233  0.1567  0.2225  0.0385
13683W        W30530   6.403  10.410  12.211  0.2440  0.1666 -0.1563
13684W        W30531   1.565   6.819   1.588  0.1208 -0.3144 -0.0063
13685W        W30532  11.420   2.850  13.450  0.1007  0.2077 -0.4734
13686W        W30533  15.824  15.017  13.881 -0.2196  0.0056  0.0640
13687W        W30534   1.601  11.496  13.876 -0.0339  0.1497  0.2173
13688W        W30535   4.707   1.583   2.357  0.3258 -0.0205  0.2022
13689W        W30536  16.083   3.257   3.942 -0.0241 -0.0224 -0.3346
13690W        W30537   9.017  14.022   0.604 -0.2239  0.3908 -0.0596
13691W        W30538   0.366   8.184   1.563 -0.2229 -0.0492  0.0464
13692W        W30539   7.007  11.146   4.899 -0.2844 -0.0864 -0.0803
13693W        W30540   7.964  13.175   4.024  0.1163 -0.0561 -0.2164
13694W        W30541   8.552  14.172   0.581 -0.0923  0.1716 -0.1709
13695W        W30542  16.765  12.080   1.678  0.1846 -0.0727 -0.2365
13696W        W30543  16.502  16.684  12.161 -0.0997  0.0039  0.2033
13697W        W30544  16.160  16.697   1.017 -0.1760 -0.3617 -0.4150
13698W        W30545   6.578   7.923   4.432  0.0037  0.1359 -0.0791
13699W        W30546   9.034  15.970  11.575 -0.2186 -0.0633 -0.1336
13700W        W30547   1.391  18.487  12.446 -0.3149  0.2014 -0.0873
13701W        W30548  15.228   2.653   0.061 -0.2097  0.2279 -0.1328
13702W        W30549   6.254   1.444  13.014  0.1768 -0.0297  0.5387
13703W        W30550  18.405   0.943   3.857  0.0978  0.0730 -0.1341
13704W        W30551   4.339   6.275  14.759 -0.1023 -0.1650 -0.0760
13705W        W30552   5.292   2.739   1.410 -0.2875 -0.0248  0.1288
13706W        W30553   8.795  13.998  11.075 -0.4267 -0.1730 -0.2320
13707W        W30554   4.685   2.002   1.295  0.0338 -0.1929 -0.3830
13708W        W30555   9.849  14.714  10.968  0.3024  0.2224  0.0130
13709W        W30556  13.024   2.923   4.672 -0.2326  0.2623 -0.0074
13710W        W30557   4.268  11.394  10.088  0.0857 -0.0901  0.1348
13711W        W30558  11.202  12.583   0.586 -0.0702 -0.2220 -0.2033
13712W        W30559  10.663  12.642  11.620 -0.1193 -0.1694 -0.1752
13713W        W30560  14.823  11.350   0.965 -0.1347 -0.2374  0.2130
13714W        W30561   7.593  11.210   0.449 -0.0595 -0.2688 -0.0962
13715W        W30562  16.863   2.955   4.989  0.1998 -0.2167 -0.0133
13716W        W30563  17.088   7.726  15.381 -0.0938 -0.1166  0.1602
13717W        W30564  11.479  16.722   5.483 -0.0424  0.2632 -0.0851
13718W        W30565  13.391   8.677  15.319 -0.2595  0.1582  0.3721
13719W        W30566   4.951  14.604   4.363  0.2201  0.0942 -0.4057
13720W        W30567  17.096  15.169  15.349  0.3305 -0.1375  0.0221
13721W        W30568  15.902  11.300  13.210 -0.0486  0.3222  0.0509
13722W        W30569  11.008   0.745  14.332  0.0148 -0.1420  0.0127
13723W        W30570   0.350   4.374   4.429  0.0731 -0.1979 -0.0404
13724W        W30571  16.169   1.931  14.157  0.4502  0.4381  0.1740
13725W        W30572   1.777   1.623   4.698 -0.1019  0.0424 -0.3021
13726W        W30573   3.641   0.013   3.258 -0.3650  0.0959  0.1761
13727W        W30574   5.829   3.734  13.362  0.2555  0.1047  0.1948
13728W        W30575  12.112   3.465  12.915  0.2544  0.2968 -0.3384
13729W        W30576   2.186   5.113  13.496  0.2908  0.0997  0.0874
13730W        W30577   8.746  15.632  15.376  0.3134 -0.1519 -0.0378
13731W        W30578   4.952   8.405  11.263  0.0738 -0.1232  0.2991
13732W        W30579  16.220   6.776  15.041  0.5385 -0.1684 -0.2331
13733W        W30580  18.416  15.151  11.007  0.3010  0.1341 -0.0927
13734W        W30581   1.384   9.675  12.474 -0.2780 -0.0707 -0.2666
13735W        W30582   5.033  12.990   4.237  0.0745  0.1515  0.2816
13736W        W30583  10.735  10.096  11.300 -0.0007 -0.2138  0.1013
13737W        W30584  14.858  17.039  15.296 -0.2492  0.2168 -0.1269
13738W        W30585  12.790  17.557  14.362  0.1687  0.0645  0.2619
13739W        W30586   9.165   8.229  11.205  0.0146 -0.0053 -0.0099
13740W        W30587   2.366   1.676  12.324 -0.0319 -0.2132 -0.0621
13741W        W30588  12.894   1.417   2.353  0.2476 -0.1512 -0.0675
13742W        W30589  17.716  11.430  11.928 -0.0673  0.0245  0.0483
13743W        W30590  11.480   1.686   3.473  0.1832  0.4009  0.1282
13744W        W30591   5.852   5.577  15.239  0.0311  0.3951 -0.1671
13745W        W30592  18.812   7.294  11.917 -0.1288  0.3796 -0.0570
13746W        W30593   6.643  11.396   5.722  0.1046  0.0504  0.2401
13747W        W30594   4.183   7.468  12.047  0.0342 -0.1378 -0.1040
13748W        W30595   3.914  17.642   4.176  0.1862  0.0378 -0.1696
13749W        W30596  11.314   0.865  13.246 -0.3104 -0.0166 -0.0779
13750W        W30597   1.905  16.131   1.413  0.1273  0.0108  0.0045
13751W        W30598  13.095   8.932   1.507 -0.0044  0.0105  0.3845
13752W        W30599   7.320   8.571   3.519 -0.1334  0.0616  0.1757
13753W        W30600  18.528   0.046   3.275 -0.0064 -0.1651  0.1188
13754W        W30601   2.003  10.526   1.167  0.2197  0.4703 -0.1658
13755W        W30602   4.775   2.547  14.495 -0.4080  0.0914 -0.1717
13756W        W30603   6.505  10.277  10.359 -0.1151  0.0501  0.0310
13757W        W30604   0.207  11.840  10.943  0.1290  0.0495  0.2807
13758W        W30605   4.988  18.608  14.072  0.4841  0.4318  0.0677
13759W        W30606  18.464  12.066   0.025  0.0528  0.2335 -0.1739
13760W        W30607   8.633   4.610   4.160  0.1145 -0.1213  0.0914
13761W        W30608  16.720  10.744   4.436 -0.1308  0.0834 -0.0341
13762W        W30609   3.964  17.754  12.374  0.1620  0.0578  0.0055
13763W        W30610   0.847   3.422   3.560 -0.5668 -0.1234  0.0686
13764W        W30611  11.978  10.732  12.954 -0.0319  0.0914 -0.2368
13765W        W30612   4.679   3.381  13.501 -0.1841 -0.0595 -0.0342
13766W        W30613   5.841   3.321   1.499 -0.1578 -0.2831 -0.2032
13767W        W30614  17.399   3.193   2.673  0.1319  0.0277  0.0796
13768W        W30615   1.790   2.922   5.473  0.0749 -0.0266  0.2637
13769W        W30616   3.869  11.888  10.968  0.2474  0.1827 -0.0578
13770W        W30617  15.154   8.015   0.732 -0.1444  0.0004  0.3577
13771W        W30618  14.478  16.431   0.268 -0.2367  0.3810  0.3816
13772W        W30619   6.837  12.805   1.090 -0.1164  0.0282 -0.0134
13773W        W30620   4.471   2.776  15.325  0.0271  0.1355  0.0696
13774W        W30621   7.671   6.749   4.653 -0.1399  0.4857  0.2331
13775W        W30622   6.498   8.353   4.260  0.1196  0.2474 -0.2322
13776W        W30623   4.166  13.834  15.089  0.1533 -0.0860  0.0201
13777W        W30624  13.242   0.135  12.068 -0.0827 -0.1562  0.2510
13778W        W30625  11.098   9.596   1.066  0.1584  0.2414 -0.3240
13779W        W30626   0.412   3.746  12.843 -0.1401  0.3593 -0.0156
13780W        W30627   2.137  10.232   4.336  0.1757 -0.0194 -0.0971
13781W        W30628  18.685   8.982  15.545 -0.2158  0.1437  0.2721
13782W        W30629   7.977   6.149   0.489 -0.0033  0.2641  0.0297
13783W        W30630  10.812   8.576   5.067 -0.0595  0.3753 -0.3501
13784W        W30631   9.428   7.537   0.249  0.2646 -0.0373  0.2368
13785W        W30632  10.610  17.726  12.271 -0.0218  0.4664 -0.0577
13786W        W30633   2.030  14.095  14.482  0.1668 -0.1935 -0.1507
13787W        W30634  11.967   9.006   0.157  0.0126  0.2584  0.1658
13788W        W30635   3.847  18.340  13.778  0.0148 -0.0744 -0.3012
13789W        W30636  14.571   0.593   3.149  0.0942 -0.3966 -0.3525
13790W        W30637  14.801   1.552   2.084 -0.0675 -0.1110 -0.2271
13791W        W30638  15.849   3.039   4.398  0.0778 -0.2418 -0.1163
13792W        W30639  17.054  18.498   0.334  0.0600 -0.2409  0.0627
13793W        W30640  18.097   6.377  13.415 -0.1221 -0.2278 -0.2157
13794W        W30641  10.090   5.116   0.219  0.0183  0.2339  0.0152
13795W        W30642   0.808  15.234  12.482 -0.0735 -0.0650 -0.1883
13796W        W30643   3.965   0.200  15.046 -0.2634  0.0902  0.1792
13797W        W30644   7.643   3.618   3.038 -0.2649 -0.0664  0.1699
13798W        W30645  10.211   7.974  12.028 -0.2476  0.1468 -0.5431
13799W        W30646   3.738  13.673  11.789 -0.1382 -0.2595  0.0174
13800W        W30647  10.428  10.211   4.508 -0.1476 -0.1068  0.0153
13801W        W30648  11.289   8.655   4.257  0.2083 -0.2189 -0.0601
13802W        W30649  14.420   3.993   0.778  0.0860 -0.1842 -0.2312
13803W        W30650  18.660  16.904  10.354 -0.1090  0.1519  0.0382
13804W        W30651   3.820   2.005  14.529 -0.0498  0.1088  0.0930
13805W        W30652   0.225  17.407  10.751 -0.0028 -0.1684 -0.0812
13806W        W30653  12.638  18.322   0.731  0.0789  0.3751  0.0371
13807W        W30654   9.429  12.245   3.241 -0.2018 -0.2163 -0.0096
13808W        W30655  17.293   3.375   1.369 -0.6877  0.1473 -0.2524
13809W        W30656   8.470   2.259   0.958  0.3415 -0.0098  0.0854
13810W        W30657   2.067   2.542  15.041  0.1320  0.2928 -0.3119
13811W        W30658   9.833   6.844   1.395 -0.1165  0.1045  0.0037
13812W        W30659  13.471  14.799   4.097  0.3686 -0.0567 -0.1433
13813W        W30660  15.047  16.821   0.848 -0.0029  0.2054 -0.0289
13814W        W30661   6.773   6.870  14.573 -0.2021  0.0742 -0.1040
13815W        W30662  14.134  10.841   0.473 -0.3918  0.0534  0.0856
13816W        W30663   7.101  13.756  11.236 -0.1059 -0.0185  0.1626
13817W        W30664  17.782   3.011   4.493  0.0525 -0.0412  0.0552
13818W        W30665   3.266   2.670   5.318 -0.3040  0.0603 -0.0372
13819W        W30666  18.243   0.405   1.370  0.1310 -0.1845 -0.2948
13820W        W30667   0.224   5.559  14.187  0.0222 -0.0466 -0.0778
13821W        W30668   5.615  13.299  12.391 -0.1805  0.0307 -0.0780
13822W        W30669  12.329  17.500  14.664  0.0703 -0.0961  0.3169
13823W        W30670  14.443  13.437  14.909 -0.1297 -0.1665  0.2053
13824W        W30671  15.310   3.081  12.239 -0.0906  0.0576 -0.1287
13825W        W30672   8.830  17.377   0.698 -0.0825  0.2103 -0.0968
13826W        W30673   5.301   8.852  13.271  0.2038 -0.2572 -0.0684
13827W        W30674  16.484  18.056   2.043  0.1893  0.0913 -0.0424
13828W        W30675   5.245   6.397   3.446  0.1259 -0.2171  0.0393
13829W        W30676   2.765   2.786   3.964  0.0540  0.2308 -0.1056
13830W        W30677   9.760  12.717  10.194  0.4363  0.4001 -0.2645
13831W        W30678   0.393   2.153  14.879  0.1613  0.2256  0.2750
13832W        W30679   1.293  14.360   1.799  0.0582 -0.0950  0.1838
13833W        W30680  11.078   1.504   2.666  0.1075  0.4468  0.0900
13834W        W30681   6.484  11.995   2.242 -0.0162 -0.2952 -0.1042
13835W        W30682  12.088  18.788  11.904  0.2478 -0.0376  0.0089
13836W        W30683  14.052   6.048  11.759  0.0584  0.0111 -0.1548
13837W        W30684   6.044  13.867   1.183 -0.1331 -0.2170  0.1019
13838W        W30685   2.096   6.954  15.205 -0.1783  0.2124  0.0049
13839W        W30686   8.627  13.401   1.139 -0.0473  0.0333 -0.0661
13840W        W30687  16.052  16.825   1.579  0.1675 -0.0251  0.2166
13841W        W30688  12.087   9.607   4.051  0.3789  0.0662 -0.2103
13842W        W30689  10.210  16.145  11.807  0.1130 -0.0547 -0.3618
13843W        W30690   4.720  18.145  11.759 -0.0145  0.0017  0.1764
13844W        W30691   7.215   4.350  14.556 -0.5308  0.0880 -0.0947
13845W        W30692   8.318  11.287   2.086 -0.0017  0.0151  0.2387
13846W        W30693  12.157  18.295  10.503 -0.0918  0.0040 -0.0134
13847W        W30694   5.312  16.524  15.349 -0.2297  0.1836  0.0129
13848W        W30695  11.721   3.893   1.418  0.0467 -0.1600  0.1511
13849W        W30696   6.640   0.411  13.704  0.1307 -0.1253 -0.5060
13850W        W30697  14.267   0.809   2.091 -0.0124  0.2468 -0.0148
13851W        W30698   2.972  14.513  13.711  0.1835  0.1320  0.0246
13852W        W30699   9.382   9.907  11.859  0.1662 -0.1610 -0.3073
13853W        W30700   0.072  17.560   1.429  0.2281  0.1876 -0.0255
13854W        W30701   1.637   7.498   3.298  0.0956  0.1201  0.0599
13855W        W30702   7.765   6.031   0.012 -0.2156  0.1582  0.0888
13856W        W30703  16.447   9.983  13.854  0.2688  0.0517  0.1559
13857W        W30704   3.627   1.165   2.960 -0.2243 -0.0935 -0.0145
13858W        W30705   1.971  13.371  11.518  0.2689  0.1989  0.0780
13859W        W30706   7.752   2.174  15.413 -0.2126 -0.0902 -0.4718
13860W        W30707  15.709   9.279   2.427  0.2592  0.0885  0.0907
13861W        W30708   9.596   9.770  12.359  0.0923  0.0024  0.3478
13862W        W30709  12.037   9.975  11.546  0.1240 -0.0976  0.0940
13863W        W30710  16.326   5.659  12.400 -0.2819 -0.1123 -0.0084
13864W        W30711   6.180   3.258  15.052 -0.0691  0.1390 -0.1223
13865W        W30712  18.606  13.338   2.149  0.1650  0.1016  0.1738
13866W        W30713   5.470   1.064   2.335  0.1854  0.0325 -0.2239
13867W        W30714  13.270  14.311   3.039  0.4692  0.0826  0.1143
13868W        W30715   4.560  16.933  11.629 -0.1420 -0.2820 -0.0976
13869W        W30716  10.470  11.723  14.577  0.1597  0.1759  0.0111
13870W        W30717   2.572  13.059   2.719  0.1357 -0.0583  0.0972
13871W        W30718  15.863  12.654  13.367  0.2358  0.3181 -0.1121
13872W        W30719  12.618  11.095   4.165 -0.2115  0.1367  0.0453
13873W        W30720   5.087  17.870   0.638 -0.1302  0.1019  0.0328
13874W        W30721   8.558   8.389  14.243 -0.2583  0.0495  0.1419
13875W        W30722  11.596  15.003   4.834 -0.0694 -0.1879 -0.0555
13876W        W30723  15.316  15.887  12.570  0.3755  0.0979 -0.1269
13877W        W30724   0.981  13.776  12.118  0.1754  0.3315  0.0269
13878W        W30725   4.793  14.055   0.590  0.1020  0.0662  0.2699
13879W        W30726   9.417   6.053  12.523  0.0667 -0.1689  0.0332
13880W        W30727  13.899  13.062   4.831 -0.0328 -0.0351 -0.0209
13881W        W30728  10.523   6.938   0.153  0.1147  0.0804 -0.0697
13882W        W30729   0.078   8.098   0.783  0.0610  0.0271 -0.0645
13883W        W30730   4.776  13.495   9.999  0.0201  0.2859 -0.3004
13884W        W30731  13.746   6.050   1.899 -0.2642 -0.0536 -0.0616
13885W        W30732  11.485  12.302  14.467 -0.0854  0.0294  0.2311
13886W        W30733   0.458   4.476   9.825 -0.1540  0.0024 -0.0604
13887W        W30734  12.643   1.649  15.521 -0.0886 -0.0689  0.0018
13888W        W30735   9.187  17.274  11.772  0.1112  0.1973 -0.3109
13889W        W30736  14.315   9.136   4.517 -0.1701  0.0623 -0.3610
13890W        W30737   7.662   2.669  12.837 -0.0867 -0.0001 -0.2217
13891W        W30738   1.174  17.674   4.732 -0.1211 -0.0734  0.0137
13892W        W30739  15.736   6.126  13.473 -0.3873  0.0331  0.4068
13893W        W30740  12.079   4.786  15.270  0.1034 -0.1440  0.1192
13894W        W30741  12.642  12.525  10.891 -0.2330  0.0695 -0.1950
13895W        W30742   3.154   1.912   2.846  0.0256 -0.0110  0.0636
13896W        W30743  16.358   7.032  11.014  0.0462  0.1706  0.2910
13897W        W30744   5.360   1.024  15.460 -0.1520 -0.0212 -0.0732
13898W        W30745   8.709  13.935   1.113  0.0141 -0.1370 -0.1225
13899W        W30746   1.560   5.454  14.751 -0.0985  0.0295  0.0645
13900W        W30747  10.477  12.949  14.895 -0.0080  0.2936 -0.2072
13901W        W30748  12.308   7.124   3.335 -0.1623 -0.2984  0.0687
13902W        W30749  12.956   9.708   6.301 -0.0024 -0.0736  0.1143
13903W        W30750   7.868  14.588   2.017  0.1513  0.0872 -0.0137
13904W        W30751   4.579   8.662  14.420 -0.0294 -0.1447 -0.3440
13905W        W30752   6.505   7.729  13.852  0.0795  0.2934  0.0566
13906W        W30753  17.392  15.138  14.128  0.2194  0.3611  0.0516
13907W        W30754   4.339  18.169   9.999 -0.1433 -0.2434  0.1199
13908W        W30755   8.852   7.181  12.569 -0.2085  0.0281 -0.1375
13909W        W30756  16.662  18.845   4.500 -0.1840 -0.1929 -0.0933
13910W        W30757   9.078  18.260  10.861 -0.0499 -0.2368  0.1372
13911W        W30758   4.216  14.793  12.667 -0.0254 -0.2934 -0.1991
13912W        W30759   6.715  16.628   0.850  0.1067 -0.1501 -0.1194
13913W        W30760   5.009   8.829  14.409  0.2545 -0.4543 -0.1366
13914W        W30761   1.556   1.600   3.500  0.0517  0.0441  0.0107
13915W        W30762   6.830   2.537   2.817 -0.1370  0.3298 -0.0297
13916W        W30763  13.030   6.259   3.030  0.0312  0.1512  0.1422
13917W        W30764  14.299  12.703  12.031 -0.0023 -0.1978 -0.0554
13918W        W30765   8.897   4.512  15.291  0.4345  0.0285 -0.0274
13919W        W30766   4.422  12.075   2.958  0.2702 -0.1882  0.1124
13920W        W30767   6.799   4.114   2.345  0.3244  0.1624  0.0877
13921W        W30768   9.773  14.515   4.231 -0.1450 -0.5415  0.2602
13922W        W30769  16.339   6.902  13.011  0.0136 -0.1167 -0.1683
13923W        W30770   7.224  11.981  11.642 -0.1276 -0.0452 -0.0878
13924W        W30771   9.319   6.027   0.440 -0.0790  0.1834 -0.0559
13925W        W30772   8.318   9.236  11.913 -0.1774  0.0236  0.0959
13926W        W30773   4.929  10.422   0.191  0.3187  0.1061  0.0435
13927W        W30774   4.657  11.850   1.422 -0.0557  0.2398 -0.4683
13928W        W30775   0.939   7.377  15.375 -0.0128 -0.1888  0.0111
13929W        W30776   7.349   8.293   3.971 -0.0296  0.0566 -0.1328
13930W        W30777   5.204  15.806  14.566 -0.2413 -0.1700 -0.2285
13931W        W30778   0.736   4.440  13.759  0.1695 -0.0826 -0.2227
13932W        W30779  16.595  18.364   0.639  0.0762  0.1356 -0.0713
13933W        W30780   7.019  17.777   5.178 -0.1867 -0.1805 -0.1314
13934W        W30781  17.504   4.052  12.233  0.2102  0.1110  0.2509
13935W        W30782   9.728   7.223   3.544 -0.1385 -0.0417  0.0851
13936W        W30783   7.532   6.898  11.416 -0.0690  0.2811  0.0909
13937W        W30784  18.287  11.578  15.533 -0.0814 -0.0600 -0.0956
13938W        W30785   3.465   4.278  13.202  0.0913  0.0658  0.0180
13939W        W30786  14.167  16.810  11.127  0.1333  0.1244  0.2375
13940W        W30787  14.482  12.942  13.451  0.2087  0.3048  0.3645
13941W        W30788   7.702   5.776   0.748 -0.0702 -0.0384  0.0597
13942W        W30789  17.853  11.997   3.684  0.1051  0.0790  0.0348
13943W        W30790   6.691   1.535   3.081 -0.1168  0.1248 -0.0270
13944W        W30791  15.876   5.921   5.214  0.1565 -0.0705 -0.0752
13945W        W30792   7.270  14.864   4.509 -0.1032  0.1879  0.0054
13946W        W30793   1.550  16.296   9.414  0.0197  0.1787  0.1693
13947W        W30794   3.558  12.432   4.197 -0.1465  0.2886  0.2659
13948W        W30795   7.477  14.531  11.528  0.3420  0.1083 -0.1115
13949W        W30796  11.755  17.118  14.781 -0.3419 -0.3097 -0.0093
13950W        W30797  16.327   2.112   1.728 -0.2764 -0.0490  0.3066
13951W        W30798  14.299  15.278  14.350  0.0397  0.1772  0.0841
13952W        W30799  16.923   2.064   0.899  0.1936 -0.0919  0.0248
13953W        W30800  15.370   9.830   0.718 -0.0763  0.2769 -0.0796
13954W        W30801  13.379   2.375  13.541  0.2318 -0.3102 -0.0349
13955W        W30802   2.450   8.781   0.104 -0.2001 -0.0398 -0.0713
13956W        W30803   5.359   3.632   0.294  0.0453 -0.1885 -0.1008
13957W        W30804   4.222  15.822  10.737  0.1547 -0.3286  0.0754
13958W        W30805   8.126  11.655  11.231 -0.3568 -0.3256 -0.0639
13959W        W30806   7.689  17.574  13.127 -0.0449  0.0055  0.2150
13960W        W30807   9.799  10.072  14.742  0.0760  0.5481 -0.0287
13961W        W30808   1.657  16.068   0.958 -0.0479  0.1368  0.1988
13962W        W30809   6.964   7.178  12.736 -0.2927  0.5176  0.0904
13963W        W30810  14.142   0.319  14.395  0.0163  0.1529  0.0615
13964W        W30811   3.438  16.970   1.179  0.1977  0.1707  0.0200
13965W        W30812  10.157   8.087  13.090  0.1549  0.1086 -0.0229
13966W        W30813  10.654  11.243   0.051 -0.4116 -0.2296  0.2381
13967W        W30814  15.161  13.964   4.994  0.1859  0.3479 -0.0519
13968W        W30815  11.524  16.063  12.288  0.3480  0.0460  0.0147
13969W        W30816   9.291  12.174  14.597  0.1229  0.2492  0.1858
13970W        W30817  15.445  14.384   2.889 -0.1352  0.2131  0.1938
13971W        W30818  12.723  14.706  12.423  0.5786 -0.0989 -0.2264
13972W        W30819   5.024   3.107   1.204  0.3072 -0.1803 -0.1838
13973W        W30820  18.272   3.042   0.386 -0.2781  0.1508  0.2099
13974W        W30821   9.984  14.863   1.041 -0.0460  0.0533 -0.1069
13975W        W30822  12.942   6.371  13.659  0.0134 -0.1849 -0.0040
13976W        W30823   6.670   0.351   2.168  0.2390  0.0965 -0.0661
13977W        W30824   7.921   3.283   4.023 -0.1388 -0.0523  0.3546
13978W        W30825   4.719   4.242   5.408 -0.1761 -0.0925  0.0834
13979W        W30826   9.587   9.363   2.916 -0.0581  0.3086  0.1316
13980W        W30827  15.308  10.552  12.248 -0.0061  0.1336 -0.1030
13981W        W30828  15.096   5.248  12.075 -0.0592 -0.0806 -0.1416
13982W        W30829  11.274  13.296   3.847 -0.2240 -0.1397  0.4371
13983W        W30830  16.568   3.043   3.719 -0.0704  0.0739  0.0256
13984W        W30831   3.270  11.093   4.004 -0.2211 -0.0100 -0.2444
13985W        W30832  17.785   4.734   2.771 -0.0539 -0.1780  0.1094
13986W        W30833  18.505  17.896   4.366  0.2055 -0.5324 -0.0501
13987W        W30834   1.604   1.531   2.128 -0.1548  0.2236  0.2916
13988W        W30835  17.343   6.560   4.238  0.0499 -0.0159 -0.0979
13989W        W30836  17.752   4.840  13.430 -0.1466 -0.0432  0.1090
13990W        W30837   3.818   1.069  14.295  0.2502  0.3187  0.1425
13991W        W30838   8.910  13.253   4.342 -0.0592  0.3348 -0.0814
13992W        W30839  18.794   4.928  12.149 -0.1746  0.1171  0.4864
13993W        W30840  10.035   7.315  13.239 -0.1134  0.2702 -0.1122
13994W        W30841   5.992   0.966  13.032  0.1241 -0.0221 -0.0383
13995W        W30842   5.112  17.955  10.712  0.3410  0.1407  0.1079
13996W        W30843  11.343   7.690  12.262 -0.1392  0.1191 -0.2219
13997W        W30844  12.226   1.572   5.417  0.2295 -0.0270 -0.0182
13998W        W30845   5.737  18.819   0.106  0.2134  0.0006  0.0239
13999W        W30846   1.480   8.920  11.374  0.1566 -0.1306 -0.0926
14000W        W30847  17.612   7.301  13.425  0.0085 -0.2327 -0.0466
14001W        W30848  17.998   2.782  14.630 -0.0303 -0.4565  0.1753
14002W        W30849   9.383  10.304  14.902 -0.0200 -0.0379 -0.1870
14003W        W30850  13.626  14.348  12.998 -0.1469 -0.2788  0.1636
14004W        W30851   8.013   6.210  11.047  0.2087 -0.3547 -0.0795
14005W        W30852   5.605  15.021   4.549  0.0905 -0.2378  0.1888
14006W        W30853   9.494   5.509  14.207  0.4363  0.4491  0.0128
14007W        W30854   0.069   7.688   5.837  0.0476  0.1675 -0.2393
14008W        W30855   4.939  18.163   2.209 -0.1311 -0.1227  0.1371
14009W        W30856  12.999  14.208  10.191 -0.1299 -0.1115  0.0464
14010W        W30857  14.190   9.461  12.198 -0.1865 -0.2862 -0.3412
14011W        W30858   7.226  10.060  10.962 -0.1884 -0.2916  0.1912
14012W        W30859  15.781  13.729  15.332  0.1410  0.2790  0.2549
14013W        W30860   9.259  15.373  14.441 -0.0824  0.0908 -0.0697
14014W        W30861   9.039  11.692  12.744 -0.0766  0.2272 -0.1621
14015W        W30862   3.833  17.128  11.156 -0.2361  0.0702 -0.0038
14016W        W30863   7.028   2.497   1.178  0.1592 -0.0593 -0.0107
14017W        W30864   9.208  18.488   0.809  0.0740 -0.0545  0.0807
14018W        W30865  15.098   6.331   0.251  0.2328  0.1037  0.2941
14019W        W30866   4.198   4.291   2.259  0.0418  0.1972  0.3821
14020W        W30867   2.364  16.669   2.046  0.0309 -0.2573  0.0546
14021W        W30868   0.671  18.586   1.423 -0.0979  0.1171 -0.0873
14022W        W30869   8.044   1.067  13.574  0.0284 -0.1181 -0.2959
14023W        W30870   4.385   9.290   1.994 -0.2657  0.2307  0.1590
14024W        W30871   5.212   4.620   3.594 -0.0618  0.0399 -0.2633
14025W        W30872   8.177  11.749   2.412  0.0892 -0.3353  0.0237
14026W        W30873   4.021  17.502  11.954  0.0139 -0.0765 -0.0355
14027W        W30874  10.471   8.806  11.834 -0.1014  0.1150  0.0886
14028W        W30875   9.815  15.224  13.567 -0.0975  0.1676 -0.2509
14029W        W30876  13.541  12.166   1.473 -0.3794  0.0066  0.0426
14030W        W30877  15.721   7.107  14.591  0.0485  0.3171 -0.0372
14031W        W30878   8.099  13.248  11.289 -0.0997  0.3015  0.1120
14032W        W30879  15.202   7.580  13.302 -0.0802 -0.4167 -0.3390
14033W        W30880  13.622  10.756   3.288  0.4435 -0.2671 -0.0326
14034W        W30881  14.394   5.495  10.756  0.0053 -0.0095  0.0614
14035W        W30882   0.810  12.080  15.422 -0.2129  0.0458  0.1476
14036W        W30883   3.424   4.391  15.045 -0.0024 -0.2117 -0.1240
14037W        W30884  15.263   4.447  13.259 -0.1654 -0.1645 -0.0899
14038W        W30885  11.482  16.238   0.232 -0.2451 -0.2208  0.0093
14039W        W30886  15.805  13.796   2.359  0.0610  0.2174  0.0757
14040W        W30887   5.659   2.547   1.120  0.1131 -0.3133  0.1426
14041W        W30888   3.075   5.228  15.344 -0.2399 -0.1106  0.0327
14042W        W30889   4.506  16.128  11.091 -0.0160  0.3996 -0.2724
14043W        W30890  10.994  13.566   1.255  0.1195 -0.0713 -0.0512
14044W        W30891   6.866  18.524   4.488 -0.0781 -0.1846  0.0075
14045W        W30892  14.699   2.723   1.218  0.2194 -0.0809 -0.2163
14046W        W30893  12.308  10.535   3.455  0.0654  0.0441 -0.1872
14047W        W30894   1.944   8.991  14.179 -0.0045  0.2051  0.0766
14048W        W30895  12.704   7.841  11.024 -0.4123  0.1734  0.0685
14049W        W30896   0.258   5.362  12.358  0.1933 -0.1842 -0.0302
14050W        W30897  18.260  14.684  13.885  0.2273 -0.1316  0.0066
14051W        W30898   5.273  13.159   1.566 -0.0408 -0.1562  0.2365
14052W        W30899   7.968  13.873  11.172  0.0196 -0.1144  0.1878
14053W        W30900  17.558   0.019   3.237 -0.2295 -0.3240 -0.1856
14054W        W30901   3.433   8.161  10.224  0.1806 -0.1791 -0.2747
14055W        W30902  12.955   8.464   4.963  0.2680 -0.3127  0.0256
14056W        W30903  16.563  12.840   4.545 -0.1685 -0.0704 -0.0147
14057W        W30904   9.609   0.658   3.940 -0.2353 -0.5016  0.2044
14058W        W30905   4.140  18.106   3.072 -0.0671 -0.2257  0.1743
14059W        W30906   7.845   6.246   4.558  0.0098 -0.1239 -0.0228
14060W        W30907  13.646  15.934  13.614 -0.0046 -0.1601  0.1475
14061W        W30908   2.885  13.680  13.503  0.2777  0.0659  0.1109
14062W        W30909   0.445  10.556  12.504 -0.0223 -0.1491 -0.2130
14063W        W30910  15.573   1.266  14.648 -0.3462 -0.1222  0.0526
14064W        W30911  15.913   5.004   5.434 -0.0363  0.0382 -0.1105
14065W        W30912   8.657   6.090  12.757 -0.2090  0.2168 -0.2548
14066W        W30913   5.229  16.005  12.420  0.1926 -0.0613  0.1408
14067W        W30914   6.344   2.578   1.853  0.2243  0.3903 -0.3368
14068W        W30915   0.634   1.287   5.438 -0.0679  0.1467  0.0417
14069W        W30916   8.579  10.602  15.209 -0.2150 -0.3929 -0.1216
14070W        W30917   8.813   5.465   1.922  0.0875 -0.1148  0.1956
14071W        W30918  14.062   8.960   1.686  0.1213 -0.2765 -0.0253
14072W        W30919  17.331  12.150  14.500 -0.2516 -0.2609  0.0305
14073W        W30920   8.638   3.111   4.440  0.0986 -0.2799 -0.0843
14074W        W30921  13.365   3.016  14.973 -0.1794 -0.1279  0.0691
14075W        W30922   6.719   2.749  12.605 -0.0548  0.1699  0.0628
14076W        W30923  10.512  10.043   3.075 -0.3022 -0.0273 -0.1938
14077W        W30924  16.747   5.072  14.831  0.0139 -0.0932  0.1396
14078W        W30925   4.960   5.525   2.364 -0.1405 -0.0395  0.2041
14079W        W30926  13.206   3.778   1.568 -0.1828 -0.0082 -0.1416
14080W        W30927   7.423   2.269  14.164  0.0254  0.1390  0.0792
14081W        W30928  12.978   8.847   2.159 -0.2999 -0.1950 -0.0387
14082W        W30929  18.403   3.887  12.331 -0.0807 -0.1032 -0.0600
14083W        W30930   4.523   7.091  13.965 -0.2093  0.3425 -0.1782
14084W        W30931  16.225  10.493  12.848 -0.2315 -0.1050  0.1705
14085W        W30932   8.950  10.960  15.486  0.1974  0.0927  0.2275
14086W        W30933   6.274   1.388  11.745  0.1012  0.0249  0.0634
14087W        W30934   8.893   4.166  11.154 -0.0073  0.2162  0.0446
14088W        W30935   2.942  14.399  11.302 -0.1189  0.0617 -0.2342
14089W        W30936   2.372  17.881   3.249  0.1425 -0.0721  0.4748
14090W        W30937   8.913  11.031  10.791 -0.2359 -0.1440  0.0007
14091W        W30938  11.809  10.825  12.256 -0.0046 -0.0920 -0.0119
14092W        W30939  11.083   5.795  14.477  0.0691 -0.0508  0.1869
14093W        W30940   1.524   7.954   3.551  0.0004  0.1722  0.1349
14094W        W30941  18.606   7.673  14.562 -0.1547 -0.0866 -0.0803
14095W        W30942   1.946   8.340   1.554  0.1674  0.2355  0.0582
14096W        W30943  12.589  16.277  10.636 -0.0066 -0.1179 -0.4330
14097W        W30944   1.088   8.261   3.440  0.0797 -0.2809 -0.0017
14098W        W30945  15.799  16.163  15.387 -0.1106  0.0906  0.0117
14099W        W30946  12.173  18.224   3.291  0.1003  0.0217  0.1268
14100W        W30947   3.076  12.323   4.439  0.1751 -0.2916 -0.1694
14101W        W30948   9.859   9.046  15.265 -0.1211 -0.0450 -0.0991
14102W        W30949   5.167   0.847  11.996 -0.3447 -0.1608  0.1508
14103W        W30950   5.237  14.277   3.159 -0.1483  0.0723 -0.2124
14104W        W30951   5.396   8.571  15.309  0.0856 -0.0658  0.0186
14105W        W30952   2.911  17.581  13.275 -0.0201 -0.2145 -0.1531
14106W        W30953  14.909   3.391  12.328  0.0535  0.1921  0.2323
14107W        W30954  13.766  10.940   0.138  0.1995 -0.1514 -0.0888
14108W        W30955   1.005   2.693  12.108 -0.3363  0.0403  0.0666
14109W        W30956  14.935   7.498   0.385  0.1684 -0.0419  0.3554
14110W        W30957  10.479   2.783  13.779  0.1450 -0.0562  0.0947
14111W        W30958   0.023   1.311   0.385 -0.0986 -0.3922 -0.0053
14112W        W30959  13.311   8.574   1.817  0.0174 -0.0210  0.0878
14113W        W30960  15.641  17.986   1.519 -0.0074 -0.4141  0.2788
14114W        W30961  10.884   4.881   1.178 -0.1183  0.0148  0.2840
14115W        W30962  13.635  18.266   3.114  0.0539 -0.1972 -0.2964
14116W        W30963  10.031  11.908   3.046 -0.1187  0.4078 -0.1258
14117W        W30964  14.353  17.928   9.923  0.2330  0.2193 -0.1346
14118W        W30965  12.766   2.392   1.844 -0.4350 -0.3537 -0.2875
14119W        W30966  16.131  16.612   4.100 -0.0353 -0.0649 -0.3031
14120W        W30967  14.355   7.094   3.340  0.2678 -0.1579  0.2929
14121W        W30968   3.803  12.293  13.153 -0.0180 -0.2328  0.0461
14122W        W30969  17.351   3.840   5.850  0.0973  0.0911 -0.1578
14123W        W30970   7.401  15.149   4.869  0.0219 -0.0129  0.3828
14124W        W30971   9.445  17.636  11.590  0.0037 -0.0321 -0.0501
14125W        W30972  11.566  11.777   4.727  0.2162 -0.3469 -0.1503
14126W        W30973   2.009   9.988  13.203  0.1418 -0.1957  0.0347
14127W        W30974  14.503   8.918  11.552  0.1139  0.0656  0.0524
14128W        W30975  17.237  11.332   3.334  0.0041 -0.2922 -0.0246
14129W        W30976  16.465   6.413   3.760  0.2264 -0.0137  0.2316
14130W        W30977   9.362  18.342  14.831  0.1846 -0.0386 -0.3328
14131W        W30978   8.387   7.726   2.609 -0.0583 -0.2104 -0.2115
14132W        W30979   0.730  17.769   1.854  0.0585 -0.0855  0.2649
14133W        W30980   4.466   4.154   4.823  0.0559  0.2460 -0.1504
14134W        W30981   6.929  12.714  15.301  0.1065  0.2364 -0.0381
14135W        W30982  10.533   6.602   2.541  0.0913 -0.2988 -0.2000
14136W        W30983  12.099   4.985  12.400 -0.0179 -0.3870  0.0754
14137W        W30984  11.439   1.872   1.343 -0.1465 -0.1680 -0.1770
14138W        W30985   4.319   4.325  13.450 -0.0992  0.1148  0.2143
14139W        W30986   9.106   4.516  12.235  0.0290  0.4871  0.0299
14140W        W30987  11.627  11.615  13.530  0.2105  0.2199  0.2719
14141W        W30988   8.051  18.105   1.573 -0.0322 -0.2778 -0.0951
14142W        W30989   7.448   3.411  12.218 -0.1588 -0.1339 -0.0744
14143W        W30990   9.866  13.160   4.175  0.0028 -0.0923 -0.0095
14144W        W30991  11.081   8.927  12.678 -0.0067  0.2453  0.0153
14145W        W30992  15.984  16.535  13.728  0.1217  0.2602  0.0990
14146W        W30993   4.136  13.648  12.149 -0.3151 -0.3972 -0.1176
14147W        W30994   0.333  17.918  10.982  0.0690  0.0922 -0.0904
14148W        W30995   5.931  16.733  13.446 -0.0020 -0.0596  0.1468
14149W        W30996  17.379  12.308  12.583  0.0064  0.0106  0.1788
14150W        W30997  11.863  17.631  11.204 -0.0524  0.0062  0.2337
14151W        W30998   2.938  11.074  13.373 -0.0718  0.4438  0.1734
14152W        W30999   0.415   4.701  13.417 -0.0292  0.0190 -0.1594
14153W        W31000   3.776  17.590  14.415  0.0493  0.0320 -0.2428
14154W        W31001  16.731   9.208  13.492 -0.3001  0.1473 -0.0277
14155W        W31002  15.612   7.570   4.337  0.1697 -0.0921  0.3186
14156W        W31003  16.421   4.800  13.735  0.0304 -0.0572  0.3061
14157W        W31004   0.090   1.386   4.735  0.3881  0.2008  0.2848
14158W        W31005  14.939   1.210   2.457 -0.1175  0.4941  0.1183
14159W        W31006  16.029   2.961  14.387  0.1829 -0.3205  0.2689
14160W        W31007   8.393  10.156  15.384 -0.1718 -0.0198  0.0015
14161W        W31008  18.763   7.503  13.509 -0.2263  0.1558 -0.0629
14162W        W31009  13.538   6.974  10.805  0.0051 -0.2229 -0.1108
14163W        W31010  14.575  14.890  14.284 -0.0493 -0.0503 -0.0031
14164W        W31011  17.293  11.829  14.933 -0.1654 -0.1254 -0.0754
14165W        W31012   5.545   0.582   0.219  0.0697  0.1908 -0.0849
14166W        W31013  10.914   7.503   2.636 -0.0189 -0.0533  0.1131
14167W        W31014  18.442  15.034  14.227  0.1115 -0.0641  0.2680
14168W        W31015  15.823   4.355  13.090 -0.3999 -0.2317 -0.0734
14169W        W31016   5.187   2.532  13.669 -0.0178  0.3483  0.2373
14170W        W31017   4.293   6.086   5.132 -0.4626 -0.0095  0.1020
14171W        W31018  10.363   3.055   1.943 -0.1358 -0.1133 -0.3442
14172W        W31019   2.349   0.654   4.790  0.3487  0.1505 -0.3582
14173W        W31020  10.486   7.068  10.318 -0.0321  0.2366  0.0415
14174W        W31021  12.043   0.699   5.088 -0.0443 -0.3088 -0.1980
14175W        W31022   6.778  14.942  11.141 -0.2224 -0.0605 -0.0218
14176W        W31023  13.269   2.550   3.031 -0.3295  0.1673  0.1818
14177W        W31024  18.706   4.668   0.013  0.0022 -0.3539  0.1743
14178W        W31025   5.190   1.653  14.318  0.0051 -0.5230  0.0072
14179W        W31026   7.241   3.060   5.920  0.0153 -0.0496 -0.2418
14180W        W31027   5.062  18.561  12.012 -0.1179 -0.0648 -0.0186
14181W        W31028  16.679   4.612  13.341 -0.0302  0.2895 -0.0230
14182W        W31029   3.884  14.655   4.571  0.0419 -0.1750 -0.1246
14183W        W31030   0.682  17.102  15.006 -0.1383 -0.2565 -0.0665
14184W        W31031   6.066   3.954   5.023  0.3807  0.1292  0.1448
14185W        W31032  17.602   3.814   0.690 -0.2875 -0.3459  0.1226
14186W        W31033  13.154  14.710   2.099  0.2135  0.2971  0.4391
14187W        W31034  10.353   4.675   3.047 -0.1284  0.2335  0.0812
14188W        W31035   5.578   0.989  11.055  0.1840  0.0819 -0.0890
14189W        W31036  17.028   3.701  15.270 -0.1317  0.0609 -0.5337
14190W        W31037  14.464  15.190  10.714 -0.0126 -0.2128  0.2897
14191W        W31038   8.913  18.417  13.610 -0.5550 -0.0879  0.1441
14192W        W31039   4.407   5.764  14.082  0.1165  0.0436 -0.0548
14193W        W31040  18.567   6.781   2.689 -0.2228 -0.0181  0.5186
14194W        W31041  14.349   7.002   2.502  0.1035  0.0240  0.0573
14195W        W31042   2.599   5.036   3.284  0.1299 -0.1380  0.0973
14196W        W31043  15.598  13.298   4.524  0.1270 -0.3210 -0.1317
14197W        W31044   6.678   7.850  11.777 -0.3012  0.0853 -0.0694
14198W        W31045   2.085  15.433  12.904 -0.0317 -0.3213 -0.1886
14199W        W31046  18.290  15.675   1.978  0.1845 -0.1509  0.3010
14200W        W31047   2.604   4.146  12.965 -0.0884  0.0448 -0.1119
14201W        W31048   8.232   3.140  11.771  0.2005 -0.1684  0.1203
14202W        W31049  18.047  14.208   3.288  0.2432  0.0101  0.1262
14203W        W31050   0.368  11.038   2.636  0.5073  0.0973  0.0950
14204W        W31051  10.010   7.452   9.975 -0.1772 -0.0192 -0.0753
14205W        W31052  17.769   2.074   4.205  0.1928 -0.1643 -0.1525
14206W        W31053  17.303  10.238   1.267 -0.0187 -0.3523  0.1444
14207W        W31054  13.364   7.081   1.077  0.0838 -0.0600 -0.1581
14208W        W31055   7.748  14.501   4.503 -0.1424 -0.3288 -0.1733
14209W        W31056   4.266   5.830   2.815 -0.0707 -0.0675  0.0020
14210W        W31057   3.767  14.798   3.093 -0.0814 -0.0941  0.0030
14211W        W31058   6.928  12.689   5.199 -0.2192 -0.0844 -0.0797
14212W        W31059   7.379  10.483  14.012 -0.1190  0.0153  0.1145
14213W        W31060  17.769   3.738  12.460 -0.0379  0.1598 -0.1768
14214W        W31061   5.181   5.201  11.176  0.3467 -0.0005 -0.1043
14215W        W31062   6.894  12.468  11.541  0.1031  0.1188 -0.0915
14216W        W31063   8.806   2.581   1.582 -0.1042  0.5193  0.1181
14217W        W31064   3.557   6.922  13.950 -0.0592 -0.2546 -0.1015
14218W        W31065  13.554  16.897  10.913  0.1320  0.3144 -0.0512
14219W        W31066  11.075  12.360  13.011 -0.1216  0.0891  0.1947
14220W        W31067  11.319   9.076  15.139 -0.1774 -0.0866 -0.0574
14221W        W31068   7.679   8.880  15.396 -0.0578 -0.1096  0.1537
14222W        W31069  18.240  13.526  14.916  0.2488  0.3442 -0.0379
14223W        W31070  16.319   2.911   4.302 -0.1999 -0.0265  0.0347
14224W        W31071  16.773   5.776  12.230 -0.0250  0.4107 -0.0234
14225W        W31072   1.708   3.878  12.228 -0.0502 -0.1445  0.1823
14226W        W31073   4.721   3.819   3.919 -0.0020  0.1336  0.0009
14227W        W31074  14.530   4.016   3.523 -0.1395 -0.0926 -0.0657
14228W        W31075   0.544  14.092  10.762  0.0541 -0.0133  0.2681
14229W        W31076   4.301   4.574   5.428 -0.0558  0.0094  0.1968
14230W        W31077   0.151   2.558   0.169 -0.3212 -0.1049  0.2834
14231W        W31078  18.595  11.994   4.913 -0.1576 -0.4104  0.1125
14232W        W31079  12.093  17.258  13.755 -0.1574  0.0707 -0.2439
14233W        W31080   8.719   0.016   3.938 -0.0563  0.0886  0.1363
14234W        W31081   6.058   6.221  11.575  0.1366  0.0118 -0.0608
14235W        W31082  14.774   3.729   4.302 -0.0015 -0.1812 -0.0120
14236W        W31083  12.795   8.589  14.486  0.0054 -0.1563  0.0777
14237W        W31084   1.204  11.205   2.844  0.1623  0.0733  0.1944
14238W        W31085  10.041  15.131  12.416 -0.0837 -0.1433  0.1396
14239W        W31086  12.052  12.032   2.655 -0.1862 -0.0964  0.1279
14240W        W31087  14.142  15.838  12.109  0.3377 -0.1833  0.1276
14241W        W31088  14.039  12.175   2.866 -0.2195 -0.4630 -0.1099
14242W        W31089   4.791   7.729   1.750  0.0042 -0.1376 -0.0967
14243W        W31090  12.836  14.551   0.040  0.0111 -0.0952 -0.0432
14244W        W31091   4.737   9.092   2.809  0.1354 -0.5083 -0.4019
14245W        W31092   0.577  15.954  12.188 -0.1074 -0.0108  0.1768
14246W        W31093   4.241   4.800   3.051  0.1705 -0.0331  0.0619
14247W        W31094  13.607   2.521   2.077 -0.1568  0.1328  0.0384
14248W        W31095  12.698  15.514  14.519  0.0243  0.1318  0.1069
14249W        W31096  16.245   8.063   0.333  0.0601 -0.0219 -0.4080
14250W        W31097   3.626   2.156   2.925  0.0291 -0.0916 -0.1386
14251W        W31098   0.084   3.215  13.801 -0.0810 -0.0176  0.2151
14252W        W31099  17.486   7.351   3.871  0.1141 -0.0075  0.1086
14253W        W31100  13.092   0.042   1.257 -0.1648  0.2602  0.1459
14254W        W31101   0.957   7.326  13.076 -0.0674  0.3216  0.4718
14255W        W31102   7.314  18.332  12.824 -0.4144  0.0565 -0.1790
14256W        W31103  10.866  14.184   4.178 -0.1122 -0.0002  0.1958
14257W        W31104  14.553  13.043   2.482 -0.1016  0.0586  0.0118
14258W        W31105  18.836   0.789   4.019 -0.0415 -0.0722  0.0192
14259W        W31106   4.389  10.911  10.159 -0.1411 -0.2597 -0.1043
14260W        W31107   3.406   3.528   0.985 -0.1754 -0.2171 -0.0374
14261W        W31108   0.900   4.975  15.049 -0.0852  0.1932  0.2488
14262W        W31109   4.947  17.882   3.709 -0.3218 -0.1325  0.3348
14263W        W31110  11.898  18.251  13.247 -0.0203 -0.0044 -0.0102
14264W        W31111  15.889   5.643   2.064 -0.0354  0.1064  0.1440
14265W        W31112  17.488  15.655  15.547  0.1844 -0.0287 -0.0335
14266W        W31113   0.049  17.179  14.313 -0.0976 -0.1571  0.1396
14267W        W31114   5.998  12.432  12.534 -0.1595 -0.1190  0.0791
14268W        W31115  14.317   4.639   0.618 -0.1187  0.2166 -0.0466
14269W        W31116  12.623  16.588  14.632 -0.0598  0.3553 -0.0349
14270W        W31117   5.517   8.317  12.886  0.2870 -0.1668  0.1712
14271W        W31118   9.572   3.027  12.534  0.0137 -0.2465 -0.1066
14272W        W31119  15.553   2.136  13.245 -0.0162 -0.3686  0.1690
14273W        W31120   7.921   3.692  14.404 -0.3730 -0.1867 -0.0141
14274W        W31121  15.382   9.004  11.582  0.0697  0.2168  0.0893
14275W        W31122  18.240   7.471   4.591 -0.0555 -0.1549  0.2104
14276W        W31123  12.400   1.192   0.402 -0.0870  0.0640  0.0617
14277W        W31124  18.096   2.101  13.973 -0.7022  0.2444 -0.1954
14278W        W31125   2.480   2.684  10.921  0.0871  0.3802 -0.0776
14279W        W31126   8.832  16.454  11.306 -0.0438 -0.0789  0.3027
14280W        W31127   9.667   1.176   4.359  0.2079  0.0503 -0.1342
14281W        W31128   7.612   1.528  10.734  0.0500  0.1411 -0.0453
14282W        W31129  13.666   3.886   1.764  0.1323 -0.0691  0.0180
14283W        W31130  13.245   8.047   4.983  0.2063  0.2238  0.0764
14284W        W31131   0.581  18.166   2.840  0.0216  0.2675  0.1505
14285W        W31132   0.543   2.643  11.967 -0.2074 -0.1600 -0.2604
14286W        W31133  10.056   1.812   3.457  0.0781 -0.0280 -0.2444
14287W        W31134  11.169  16.013  12.682  0.0356 -0.1208  0.1882
14288W        W31135   3.423   6.429   4.832 -0.2005 -0.1554  0.0864
14289W        W31136  16.479  16.609  11.624 -0.1099  0.0082 -0.1688
14290W        W31137  10.785   1.064   3.485  0.0267 -0.0127  0.3316
14291W        W31138   6.167   6.181   0.582  0.2502  0.1643 -0.0439
14292W        W31139  15.313  10.727   4.081 -0.1465 -0.2343 -0.1017
14293W        W31140  12.148  13.271   2.898 -0.1149  0.0175 -0.0549
14294W        W31141   0.805   1.005   1.519  0.2247  0.3213 -0.5364
14295W        W31142  10.097  16.230   1.155 -0.3678 -0.5074  0.0337
14296W        W31143   9.690   5.456   4.352  0.0088  0.2010 -0.3091
14297W        W31144   0.469   7.291   0.102 -0.3686 -0.0346 -0.2163
14298W        W31145  14.986  17.640   0.737  0.0662  0.3883 -0.0800
14299W        W31146   0.781   6.197   1.581  0.2657  0.0267 -0.0923
14300W        W31147  11.078   3.474  15.181  0.0292  0.0202 -0.1274
14301W        W31148  14.757   4.757  11.896 -0.1287 -0.4093 -0.0411
14302W        W31149   8.948  12.917   0.237  0.1480  0.1151  0.1562
14303W        W31150   7.850  14.963  12.193  0.1443  0.1002 -0.0291
14304W        W31151  13.458   9.385   1.450  0.1300 -0.0138 -0.1610
14305W        W31152   9.735  13.595  13.789  0.0638  0.0482  0.1095
14306W        W31153   3.226   1.333   1.313  0.3955  0.0142  0.0232
14307W        W31154   2.691  12.631  14.328 -0.1499  0.0423 -0.0311
14308W        W31155   6.864  13.913   1.137  0.1968  0.0229 -0.1169
14309W        W31156   0.902   8.861  15.250 -0.2329 -0.2303 -0.2962
14310W        W31157   8.761   8.401   4.372 -0.0790  0.0043 -0.1267
14311W        W31158  13.761  15.041  10.276 -0.1628 -0.1710 -0.0784
14312W        W31159  11.139  12.215   5.320 -0.2105 -0.3662  0.0893
14313W        W31160   0.131   5.213   3.236  0.0523 -0.2328  0.3347
14314W        W31161   1.639   3.828   2.288 -0.3083 -0.1513 -0.1726
14315W        W31162  10.507  13.283   5.133  0.0511 -0.1605 -0.3010
14316W        W31163   0.682   5.318  10.910  0.1389  0.0033 -0.0031
14317W        W31164   7.477   0.442  13.820  0.0158  0.0601  0.1200
14318W        W31165   3.242   5.215   1.655 -0.0171  0.1383  0.0412
14319W        W31166  15.541   8.981   4.957  0.1212  0.2534  0.1385
14320W        W31167  14.355  18.599   0.280  0.0494  0.0987  0.0777
14321W        W31168   7.835   0.111   1.092  0.0746  0.0123 -0.2453
14322W        W31169   1.084  14.303   1.158 -0.2576 -0.2845  0.1729
14323W        W31170   8.409   9.399   0.367  0.1228 -0.1398 -0.0596
14324W        W31171   6.545   9.422  13.590  0.0770  0.0975  0.4416
14325W        W31172   2.291  16.013   2.812 -0.0733 -0.0070 -0.0714
14326W        W31173   0.369   0.934   5.126  0.0290 -0.2271  0.1420
14327W        W31174  10.211  16.877  11.059 -0.2665  0.1902 -0.0918
14328W        W31175  12.462  14.849  12.901  0.0541 -0.1015 -0.1831
14329W        W31176  11.754   6.759  13.195 -0.0791  0.1408 -0.1979
14330W        W31177   7.624   0.705   3.243 -0.3095  0.1612  0.1916
14331W        W31178   0.013   5.479   1.911 -0.0287  0.0514  0.1168
14332W        W31179   9.001   2.881  13.723 -0.1155  0.3406  0.0236
14333W        W31180  13.924   0.701   1.221  0.4440 -0.0461 -0.1161
14334W        W31181  18.729   4.010   1.689  0.0905  0.1771 -0.0706
14335W        W31182  11.153   1.810   3.078 -0.0035  0.5298  0.1208
14336W        W31183   2.500  16.008  10.466  0.1055  0.0514  0.0078
14337W        W31184   4.422   2.294   4.499 -0.0330 -0.1928 -0.0686
14338W        W31185   2.219  14.957  13.844  0.1064  0.1515  0.1743
14339W        W31186  15.894  18.165  11.415 -0.1678 -0.0290  0.2731
14340W        W31187   5.948  17.144   1.024  0.3508  0.1030  0.0880
14341W        W31188   2.730   0.012  10.939  0.0519 -0.1718 -0.0606
14342W        W31189  10.464   0.535  15.110  0.3494  0.1798  0.0019
14343W        W31190   5.321   6.074  14.117  0.3287 -0.0806 -0.1261
14344W        W31191  12.632   9.162   3.424 -0.0629 -0.1269 -0.2471
14345W        W31192   4.707   7.915   0.209 -0.0151 -0.0568 -0.3631
14346W        W31193  13.634   7.247   1.413 -0.2335 -0.4356 -0.0304
14347W        W31194  16.477  13.628   0.109 -0.1496 -0.1191  0.1741
14348W        W31195  11.600  18.579   3.803 -0.1073  0.0736 -0.0563
14349W        W31196  12.024   1.760   1.201  0.0593 -0.0369  0.2325
14350W        W31197   0.348  17.792   1.067 -0.0906 -0.1941  0.2834
14351W        W31198   6.169   5.701   3.213 -0.1826 -0.5056  0.1678
14352W        W31199   5.009  13.910  11.010 -0.0052  0.1364 -0.0432
14353W        W31200  13.593   0.322   1.418 -0.3722 -0.3295  0.0511
14354W        W31201  13.730  12.640   2.254  0.0819 -0.1448 -0.1803
14355W        W31202   4.178   2.846   2.536 -0.0161  0.2470  0.2422
14356W        W31203   7.740  17.487   3.709 -0.1808 -0.1440 -0.2406
14357W        W31204  14.428  11.727  15.513  0.0208 -0.1863 -0.1242
14358W        W31205   9.132  17.068   0.290 -0.0701 -0.4043 -0.1640
14359W        W31206  17.613  12.403  12.170  0.4143 -0.3378  0.2222
14360W        W31207   1.325   4.591  11.674 -0.1186 -0.1844 -0.0326
14361W        W31208  18.353  18.693  11.005 -0.2012 -0.0712 -0.2695
14362W        W31209   7.771   8.498  13.015 -0.0508  0.0585 -0.2040
14363W        W31210  10.229  15.927  13.403 -0.1033  0.0042 -0.1871
14364W        W31211   8.715  13.714   4.328  0.2195 -0.2058  0.0996
14365W        W31212   3.874   0.049   4.918  0.2904  0.0412 -0.1991
14366W        W31213   1.764   3.511  12.672  0.1614 -0.0982  0.0420
14367W        W31214  15.476  11.458  12.888  0.0518 -0.0071  0.0943
14368W        W31215  17.403   9.794   3.905 -0.1510 -0.0597  0.1136
14369W        W31216   0.659  18.078  12.001  0.1592 -0.1706  0.1449
14370W        W31217  13.104  11.868  15.342  0.1530 -0.0476  0.1883
14371W        W31218   4.327   6.652  12.876  0.1860  0.1734 -0.0362
14372W        W31219   2.961   8.128   0.407  0.2889 -0.0326  0.0920
14373W        W31220  11.523   2.176   1.906  0.0345  0.2229  0.2705
14374W        W31221  12.790  14.168   4.300  0.0329  0.0832  0.0338
14375W        W31222   7.704   8.741   4.128  0.0328 -0.1977 -0.0622
14376W        W31223  15.028  12.087  13.519  0.1756 -0.0318 -0.2907
14377W        W31224   1.349  15.289  13.260  0.2881 -0.1707  0.1351
14378W        W31225  17.639  10.844  13.170 -0.1083  0.2022 -0.1208
14379W        W31226  17.170   2.614  12.687  0.0024 -0.1104 -0.2743
14380W        W31227   3.401   4.889  10.751 -0.0037  0.2172  0.3842
14381W        W31228   7.920   3.493   4.952  0.2048 -0.3170  0.3354
14382W        W31229  15.720  17.362  14.361 -0.3395 -0.2300  0.2443
14383W        W31230   8.851   8.110  12.306 -0.1245 -0.1487  0.2022
14384W        W31231  10.319  16.052   1.604  0.0546 -0.0901  0.1290
14385W        W31232   7.716   4.601   5.258  0.0520 -0.4116  0.2272
14386W        W31233   3.544  17.186  14.513 -0.1156  0.3834 -0.0845
14387W        W31234   3.748   7.824  15.204  0.1316  0.1359 -0.0000
14388W        W31235  14.220   3.374   3.018  0.0567  0.1059 -0.0805
14389W        W31236  12.816  11.330  13.516 -0.0852 -0.2483 -0.2211
14390W        W31237  11.661   3.787  11.837 -0.0523 -0.0714  0.1522
14391W        W31238  12.248  16.086   0.546 -0.1814  0.2611  0.2675
14392W        W31239   4.703  10.059   3.709 -0.0020 -0.0241 -0.0423
14393W        W31240   2.111   0.228   1.504 -0.1688  0.0892  0.2976
14394W        W31241   7.822   8.358  10.688  0.1250  0.1014  0.0788
14395W        W31242   2.935  12.578   0.072 -0.1422  0.0592  0.1456
14396W        W31243  17.397   6.585  10.333 -0.0779  0.1211 -0.0130
14397W        W31244  12.628  14.458   9.184  0.0729 -0.1136 -0.2407
14398W        W31245   1.899  10.746   1.626 -0.0822 -0.1422  0.2364
14399W        W31246   2.860  12.792   3.099 -0.0424  0.0189 -0.0553
14400W        W31247   6.021   8.660   4.803  0.2250 -0.2828  0.0572
14401W        W31248   2.673   4.685  14.923  0.2849  0.2051 -0.2455
14402W        W31249   1.971   8.816  15.059  0.1294 -0.1370  0.0537
14403W        W31250   2.444   4.649  13.044  0.0246 -0.1486  0.2259
14404W        W31251  11.764   7.841   2.590  0.2776 -0.0213  0.1270
14405W        W31252   5.529  10.931   1.489 -0.2072 -0.0629  0.2829
14406W        W31253   5.147  18.566   2.924 -0.1741 -0.1265 -0.2140
14407W        W31254  18.476   8.835  11.833  0.3029 -0.0118 -0.1365
14408W        W31255  12.261   0.374  10.476 -0.1693 -0.2667  0.1182
14409W        W31256   6.895   8.581  13.020  0.3520  0.2826  0.1991
14410W        W31257   0.665   5.617  12.671  0.1446  0.2714  0.0112
14411W        W31258   2.245   5.838  11.032 -0.1740  0.0416  0.2508
14412W        W31259   9.335  15.704   1.242  0.0609  0.0059 -0.0183
14413W        W31260   5.249   7.592  12.360 -0.3618  0.0079  0.0349
14414W        W31261   8.139   8.563   3.274  0.0339 -0.4069 -0.1719
14415W        W31262   3.278  11.842   5.560 -0.0387 -0.0111  0.0637
14416W        W31263  16.956   9.430   2.202  0.0777 -0.0185  0.1735
14417W        W31264   5.503  15.519   2.422  0.1489  0.0898 -0.1821
14418W        W31265   3.289   6.491   4.038  0.2905  0.1494 -0.0484
14419W        W31266  14.327   3.036  14.492 -0.0987  0.3001  0.2151
14420W        W31267  17.745   5.453  13.916  0.3725 -0.1998  0.1416
14421W        W31268  13.127   6.353  14.733 -0.2364 -0.1572  0.1951
14422W        W31269   7.925  16.611   1.587  0.1285  0.0806  0.3306
14423W        W31270  10.912   5.498   1.965 -0.0598  0.4338 -0.0080
14424W        W31271   7.284  11.474   0.686 -0.0109  0.0682 -0.0479
14425W        W31272  11.060   2.867  14.597 -0.2027  0.3313 -0.3645
14426W        W31273   8.226   0.427   4.814 -0.1337  0.2402 -0.1494
14427W        W31274  10.405  15.548   0.449  0.1064  0.0866 -0.2153
14428W        W31275   1.580   1.270   4.439  0.1063 -0.1359  0.1446
14429W        W31276  10.202   3.990   3.583  0.1095  0.2632 -0.0222
14430W        W31277  17.914  10.020   0.583  0.2248 -0.4027 -0.0419
14431W        W31278   3.568   7.705   1.798  0.1682 -0.2070  0.0013
14432W        W31279   6.902  15.391  11.017  0.2586  0.1735 -0.1081
14433W        W31280   3.096  16.713   5.264  0.0607 -0.0145  0.0440
14434W        W31281   1.357  11.119  13.227 -0.2519 -0.1168  0.0217
14435W        W31282  15.526   0.162   1.443  0.3053 -0.4036  0.2958
14436W        W31283  15.061  10.611  11.403  0.3967  0.2846 -0.0402
14437W        W31284   2.299  10.403   5.034  0.2346  0.1403  0.1162
14438W        W31285  15.531  16.234   4.629 -0.0962 -0.0222  0.1548
14439W        W31286  15.470   1.821   0.873 -0.3584 -0.0727  0.0194
14440W        W31287  14.706   1.606  14.329  0.0092 -0.0295 -0.2275
14441W        W31288  12.248  13.171  14.095 -0.2403 -0.2003  0.0158
14442W        W31289  10.383   1.036  15.162  0.0858 -0.0470  0.1317
14443W        W31290   6.239  11.756   3.993  0.2232 -0.0116  0.2807
14444W        W31291  16.250  17.227  13.313  0.0948 -0.0733 -0.2708
14445W        W31292  14.947   6.839   4.934  0.1551 -0.0929  0.2486
14446W        W31293   4.964   5.886  11.920 -0.2613 -0.0282 -0.0487
14447W        W31294   6.192   3.579  12.362 -0.2291  0.2859 -0.3286
14448W        W31295   9.157  14.794  13.714 -0.3725  0.0007  0.0686
14449W        W31296   5.472  11.376   5.064  0.3952 -0.0825 -0.0174
14450W        W31297   6.165  17.664   0.196 -0.0699  0.0503  0.2852
14451W        W31298   5.570  11.775  13.006  0.1422 -0.1481  0.0792
14452W        W31299   6.010  10.058   1.119  0.2579  0.0231 -0.0212
14453W        W31300   6.895   3.513   0.052  0.2984 -0.0522 -0.2049
14454W        W31301   3.734   1.528   1.328 -0.1747  0.3667  0.1818
14455W        W31302  14.008  15.014  14.972  0.0068 -0.0864 -0.1455
14456W        W31303  18.661   3.279  11.499 -0.0656  0.1490 -0.0904
14457W        W31304  11.642   1.379   0.045  0.0429 -0.2306 -0.0972
14458W        W31305   0.671   7.601   5.107 -0.4403  0.2071 -0.3366
14459W        W31306   0.839  17.758  11.035  0.0287  0.0481  0.2805
14460W        W31307  15.229  11.483  14.847 -0.2273 -0.2741  0.1339
14461W        W31308  18.712   1.083  11.882  0.3902  0.1163  0.1809
14462W        W31309   3.753   0.641  10.987 -0.3843  0.1545 -0.3091
14463W        W31310  17.703   8.347   1.772  0.0187 -0.1962 -0.0186
14464W        W31311  11.311  14.877  10.949 -0.2677  0.2946  0.3185
14465W        W31312  10.905  14.817  11.211  0.1227 -0.0487  0.1813
14466W        W31313  10.710   7.773   4.940 -0.1472  0.1746  0.0835
14467W        W31314   2.481  15.351  13.742  0.0407  0.0716  0.0940
14468W        W31315   8.000   7.105   0.079 -0.1010 -0.1636  0.1040
14469W        W31316   1.521   9.981   1.752  0.1707  0.0224 -0.0112
14470W        W31317  15.750   5.189   4.958  0.0745 -0.1987 -0.0015
14471W        W31318   9.713   2.146  12.942  0.0477 -0.2025 -0.2082
14472W        W31319  10.569  12.795   6.058 -0.0895  0.0871 -0.0456
14473W        W31320   7.716   0.690  15.094 -0.0121 -0.3219 -0.1130
14474W        W31321   9.183   8.479  12.439  0.1426  0.3047  0.0002
14475W        W31322   8.115  10.041  11.414  0.0356 -0.2521 -0.1154
14476W        W31323  16.568  14.582  15.427  0.0780 -0.1111  0.0729
14477W        W31324   8.818   9.171  11.977 -0.2232 -0.0839  0.0558
14478W        W31325  18.097  17.494   0.330 -0.0139  0.0165  0.2296
14479W        W31326  13.810   5.543   9.869 -0.1336 -0.1386  0.3563
14480W        W31327  16.762  10.931   2.270  0.0847 -0.0519 -0.3034
14481W        W31328   2.068   8.307   0.273  0.0902 -0.2699 -0.1044
14482W        W31329  11.143   4.174  14.774  0.3512 -0.1655 -0.4706
14483W        W31330   2.597   7.502  11.799 -0.0103 -0.0637  0.1444
14484W        W31331   2.502   0.725   3.595 -0.1970  0.0147  0.1676
14485W        W31332  14.848  16.181  12.772 -0.1198 -0.1467  0.2675
14486W        W31333  13.798  15.688   3.306  0.6082 -0.0839  0.0019
14487W        W31334  13.758   7.388  11.702  0.3614 -0.1342  0.0399
14488W        W31335   9.221  14.440  14.078 -0.2819 -0.0971  0.1428
14489W        W31336   4.231   9.367  12.172  0.0790  0.1067 -0.2374
14490W        W31337  16.469   0.098  12.779 -0.0949 -0.2423 -0.2507
14491W        W31338   5.957   2.436   2.527  0.0808  0.1016  0.0571
14492W        W31339  13.968  16.905   3.919  0.3556 -0.3418 -0.0798
14493W        W31340  12.775  18.722   4.098 -0.1827  0.0967 -0.2773
14494W        W31341   2.077  18.080  11.631  0.0096  0.1236  0.1632
14495W        W31342   2.673   0.543  10.806  0.0401  0.0576 -0.0214
14496W        W31343  15.471  10.425   5.005 -0.2683  0.0340  0.1421
14497W        W31344   6.710  14.884  13.090  0.2018  0.2138  0.1031
14498W        W31345  14.863  18.203  15.311 -0.3416  0.0647  0.2814
14499W        W31346  16.229  15.915  13.783  0.1454  0.1492  0.2616
14500W        W31347   7.853   4.362  12.558 -0.0016  0.0265 -0.1633
14501W        W31348   1.554  16.455  10.699  0.1150  0.1616  0.2562
14502W        W31349  11.709  16.478   3.223  0.1115  0.0124 -0.0695
14503W        W31350  12.519  14.484  10.388  0.2861 -0.0464  0.1594
14504W        W31351  17.069  15.234  13.775 -0.2084 -0.2078  0.2174
14505W        W31352   7.905   4.155   0.722 -0.4022 -0.0493 -0.1889
14506W        W31353  14.061   1.831  15.506  0.1308 -0.3839  0.1366
14507W        W31354   5.777  15.379  13.757  0.1221  0.3379 -0.1339
14508W        W31355   4.254   3.359   4.656 -0.2628  0.0474 -0.1790
14509W        W31356   7.387  16.144   2.674 -0.1232 -0.0169  0.0584
14510W        W31357   3.466  15.552  10.710  0.1083 -0.0101  0.1909
14511W        W31358  17.914   3.976   1.157  0.2077 -0.0765 -0.2708
14512W        W31359  13.336   7.610   0.005 -0.1549  0.0552  0.0984
14513W        W31360  18.710   2.044   1.749  0.0319 -0.1549  0.1225
14514W        W31361  10.038  11.473  13.093  0.1467  0.0824 -0.0812
14515W        W31362  17.766  13.816  12.748 -0.2328  0.1902  0.2685
14516W        W31363   0.824   6.711  11.641 -0.0609 -0.1214 -0.4186
14517W        W31364   2.544   4.375  15.365 -0.2670 -0.0478  0.1760
14518W        W31365   4.272  12.800  11.533 -0.2080  0.0054 -0.4310
14519W        W31366   9.188  15.807   1.784 -0.2612  0.1259 -0.1347
14520W        W31367  12.688   9.290   2.880  0.2171  0.0754  0.1048
14521W        W31368   5.077  15.685  13.384 -0.0693  0.2118  0.0497
14522W        W31369  10.182   7.089  14.424 -0.0254 -0.0918 -0.4385
14523W        W31370   6.255   7.899  13.408  0.2423  0.2772  0.0049
14524W        W31371  12.250   0.730   3.388  0.0805  0.0498 -0.1869
14525W        W31372   2.656   2.394  11.531  0.0643  0.0596  0.2658
14526W        W31373   6.742  17.143   4.937 -0.0087  0.2142 -0.2572
14527W        W31374   5.103   0.362   0.560 -0.2520  0.0004 -0.3336
14528W        W31375  13.430   0.289   4.754  0.1034 -0.0490  0.0457
14529W        W31376   5.325   6.131   4.413 -0.3277  0.5562 -0.2275
14530W        W31377   0.003  13.285   3.909 -0.1118 -0.0322 -0.0492
14531W        W31378   4.568   6.994   1.213 -0.1822 -0.2521  0.0073
14532W        W31379   2.733  17.849  14.733 -0.4319  0.0387  0.0209
14533W        W31380  11.799  17.948  13.641 -0.0835 -0.1320 -0.4158
14534W        W31381  10.727   6.339   4.298 -0.0558 -0.1327  0.0929
14535W        W31382   9.617  14.119   1.475  0.1313  0.0112 -0.1110
14536W        W31383   0.332   2.538  11.528 -0.2967  0.0743 -0.2483
14537W        W31384  18.425   3.791  14.546 -0.0820 -0.1369 -0.3410
14538W        W31385  14.929   0.648   1.111  0.1051 -0.0077  0.1096
14539W        W31386   2.505  13.987   2.741 -0.0386  0.1354 -0.1454
14540W        W31387  11.851   7.968   1.485 -0.0685  0.0449 -0.2820
14541W        W31388   7.092   2.311  11.812 -0.0652  0.1055 -0.1066
14542W        W31389   9.899  16.454   0.329 -0.2294 -0.2931 -0.1488
14543W        W31390  10.894  17.868   4.067 -0.0450 -0.1354 -0.1686
14544W        W31391  11.940  15.947   0.212  0.0889 -0.0548  0.0534
14545W        W31392  12.111  14.783  13.801  0.2205  0.0602 -0.4256
14546W        W31393  12.416   6.213  13.794  0.2013 -0.2533 -0.1595
14547W        W31394  17.962   6.768   4.493 -0.0570 -0.0631 -0.1110
14548W        W31395   1.947   8.369  12.770  0.2327 -0.0581  0.1243
14549W        W31396  18.328  12.630   1.368 -0.2662 -0.1096 -0.0219
14550W        W31397   5.470   4.093   0.487  0.1453  0.1453 -0.0497
14551W        W31398  15.561  15.303  14.690 -0.2965 -0.2886 -0.0505
14552W        W31399   4.284   7.596   2.548 -0.2004 -0.2646 -0.4258
14553W        W31400   6.369   4.137  15.087  0.0717  0.0465 -0.0133
14554W        W31401   1.921  15.649   1.238 -0.0855  0.1292  0.0433
14555W        W31402  16.909  11.416   4.649 -0.2185  0.2294 -0.0619
14556W        W31403  12.239  17.336  11.587 -0.1647  0.0336 -0.1962
14557W        W31404   6.158   1.040   5.364 -0.0237  0.0931  0.3636
14558W        W31405   1.052  14.244  10.807  0.1043 -0.1932 -0.2186
14559W        W31406  15.157  12.383  11.487 -0.2419 -0.1558 -0.5523
14560W        W31407  18.637  15.032   1.305 -0.0844  0.0945 -0.1441
14561W        W31408  10.164   8.789   0.522 -0.2433  0.3508  0.0838
14562W        W31409   9.057   6.960   4.737  0.2804  0.2181  0.1782
14563W        W31410   0.280  17.579  14.493 -0.0648  0.0679 -0.2633
14564W        W31411  11.629  13.321   0.006  0.0008  0.2963 -0.0684
14565W        W31412   0.315   4.948  15.141 -0.0989 -0.1620  0.0402
14566W        W31413   3.616   4.372   5.235 -0.0149 -0.0921 -0.3392
14567W        W31414  15.632   7.694   3.397 -0.1172  0.0863  0.0616
14568W        W31415   9.722   3.889   4.680 -0.2045 -0.0683  0.4296
14569W        W31416  18.620   9.341  14.817 -0.0815  0.1151  0.2229
14570W        W31417  16.264  13.622   1.132  0.2902 -0.1003  0.0238
14571W        W31418   5.656   8.059   1.188  0.1276 -0.2799  0.1792
14572W        W31419   1.325  16.178   0.389 -0.2336  0.1229  0.3752
14573W        W31420  18.772   6.414   2.334 -0.1835  0.1556 -0.0979
14574W        W31421   8.237   7.535   4.454  0.0739 -0.2662  0.1640
14575W        W31422   0.987   6.697   3.793  0.2980 -0.0091 -0.1144
14576W        W31423  17.790  14.065   2.884 -0.0960 -0.0723  0.2139
14577W        W31424  15.835   0.790  10.515  0.2502 -0.1810  0.4008
14578W        W31425  13.404   0.588   1.895  0.1263  0.2627 -0.3278
14579W        W31426   8.953   3.805  13.375 -0.1324 -0.1744  0.1176
14580W        W31427  16.787   9.487   0.067 -0.0219  0.0821  0.1183
14581W        W31428   5.084   8.850   1.632  0.0215 -0.0071  0.0385
14582W        W31429  11.816   8.037  14.054  0.1653  0.0853  0.2743
14583W        W31430   2.228   7.470  14.028 -0.3234 -0.3290  0.2719
14584W        W31431   3.200   4.632   0.525  0.1036  0.2274  0.0831
14585W        W31432   0.557   7.733   1.827  0.2308  0.1712  0.1031
14586W        W31433  18.198   2.073  13.409  0.0801 -0.2291 -0.2581
14587W        W31434   8.266   0.326   2.465  0.0138 -0.0515  0.3020
14588W        W31435  13.630  14.683   2.362 -0.2407  0.1983 -0.2412
14589W        W31436  14.095   0.356  14.918  0.0903  0.3235  0.0621
14590W        W31437   8.786   1.125   1.271  0.2125  0.0799 -0.2172
14591W        W31438   3.391   2.251  15.029  0.0616 -0.0673 -0.0068
14592W        W31439   1.643  11.435   0.596 -0.1634 -0.2540 -0.0200
14593W        W31440   6.552   5.946  12.220  0.0397  0.0767  0.0635
14594W        W31441   6.079  10.798   3.770  0.2575 -0.0063  0.1295
14595W        W31442  14.140  10.671   3.392  0.2195  0.3079 -0.1405
14596W        W31443   7.674  14.975   3.457  0.2136  0.1889 -0.0593
14597W        W31444   4.902  15.882  13.857 -0.5081 -0.0298 -0.1563
14598W        W31445   2.500  10.247   0.345  0.1839 -0.2994  0.0411
14599W        W31446  16.346  13.137   2.757 -0.0199  0.1227 -0.3222
14600W        W31447   8.321  12.248  14.993 -0.0695  0.0296 -0.0978
14601W        W31448  15.675   0.941  11.001 -0.0737 -0.3231  0.2494
14602W        W31449  12.897  10.260   4.178  0.1926 -0.1023  0.2661
14603W        W31450  13.127  17.205   2.761 -0.0633 -0.2713  0.0279
14604W        W31451  17.948  14.053   0.388  0.1330 -0.1596 -0.2839
14605W        W31452  15.219   4.759   4.705 -0.0569  0.0193  0.0682
14606W        W31453  13.907  16.271   0.464 -0.0364 -0.0082  0.0704
14607W        W31454   6.449  16.995  11.968 -0.2467  0.1550  0.1442
14608W        W31455  10.077   7.972   3.995 -0.1916 -0.4093 -0.1287
14609W        W31456  13.200   1.162   4.955 -0.2577  0.1792 -0.0875
14610W        W31457   9.532  11.099   1.995  0.3466  0.0891 -0.2406
14611W        W31458  15.685  13.754   4.784  0.3812 -0.0438 -0.0684
14612W        W31459   2.030  15.102  14.284  0.1172 -0.0084 -0.0596
14613W        W31460  11.831  11.212  12.857  0.1079 -0.1516 -0.3052
14614W        W31461  18.033  12.690   3.610 -0.0077  0.0391  0.1957
14615W        W31462   0.752  10.247   0.527 -0.1580  0.1239  0.1650
14616W        W31463   3.372   7.569  12.362  0.1595  0.0525 -0.0651
14617W        W31464  11.986  15.273  13.102  0.3267 -0.1758  0.2053
14618W        W31465  13.896   6.897   2.302  0.1926 -0.0876 -0.0259
14619W        W31466  14.633   0.342   2.594  0.2464 -0.0583 -0.0572
14620W        W31467   9.751   8.243   1.244 -0.2478 -0.0452  0.2059
14621W        W31468  13.993  18.091   2.001 -0.1670 -0.0032 -0.3402
14622W        W31469  15.609   8.272  12.153  0.1948  0.0812 -0.1547
14623W        W31470  11.709   3.261   3.489 -0.0749  0.1084 -0.4643
14624W        W31471  11.239   5.350  13.444  0.1168  0.3208 -0.1089
14625W        W31472   5.056   8.684  11.631  0.0080  0.0292  0.0048
14626W        W31473   5.791  11.616  13.904 -0.0850 -0.0067 -0.2953
14627W        W31474   9.912   4.496   2.460 -0.0458 -0.2134  0.3102
14628W        W31475   0.670  11.377   2.890 -0.3348 -0.2820  0.1723
14629W        W31476  15.381  18.206  12.355 -0.1127  0.0250 -0.0828
14630W        W31477   1.573   4.527   5.145 -0.2197 -0.1729 -0.1296
14631W        W31478   8.680  13.802  14.216 -0.3877  0.0366  0.2305
14632W        W31479   5.441   1.890   3.554  0.3500  0.2061 -0.1045
14633W        W31480  16.082   5.791   1.245 -0.0850  0.0131  0.0978
14634W        W31481   3.361   1.444   2.294 -0.2082  0.1906 -0.1559
14635W        W31482   1.870   3.399   3.231  0.0252  0.4705 -0.1011
14636W        W31483  15.250   7.984  14.983 -0.3956 -0.0042 -0.2799
14637W        W31484  17.572   8.232  11.565 -0.0499  0.1007  0.0572
14638W        W31485   4.019  16.630   3.531 -0.0432  0.0156 -0.4545
14639W        W31486   8.144   7.613  15.356 -0.1824  0.1035  0.1501
14640W        W31487   9.752  17.442   3.577 -0.0156  0.0436 -0.0439
14641W        W31488   7.110   3.195  13.220 -0.2832  0.0657  0.1191
14642W        W31489   6.353   8.964  10.611  0.3572  0.0880  0.1455
14643W        W31490   5.418  14.940  14.658  0.0582  0.1822 -0.1271
14644W        W31491  15.578   5.426  14.082  0.1207 -0.1432  0.1117
14645W        W31492  12.502  18.756  10.545 -0.0853  0.0221  0.0724
14646W        W31493   5.675  10.474   4.447  0.2763  0.2325  0.1376
14647W        W31494  13.468   2.056  14.313 -0.2175 -0.1452  0.1272
14648W        W31495   0.118   7.322  14.294  0.0067 -0.0337  0.5382
14649W        W31496  10.741   2.660   4.663  0.0633 -0.1142  0.2126
14650W        W31497  15.399  18.470   0.215  0.2609  0.1718 -0.0835
14651W        W31498  12.460   6.103   4.657 -0.3971 -0.3161  0.0781
14652W        W31499  12.780   4.120  15.475 -0.0574  0.0211  0.1171
14653W        W31500  10.412  11.125   4.451  0.1578  0.1732 -0.2048
14654W        W31501  17.689  10.280  12.561 -0.0797 -0.1485  0.0159
14655W        W31502   2.948  15.906   2.885  0.2719  0.1351 -0.1035
14656W        W31503  12.483   4.410  11.784  0.0525  0.0275 -0.0548
14657W        W31504   1.573  16.312  13.593  0.1395  0.2286 -0.0461
14658W        W31505  14.640   4.236   2.426  0.0048 -0.0335 -0.1526
14659W        W31506  16.285   8.929  11.116  0.0181  0.0160 -0.0654
14660W        W31507  11.997   7.044   4.355 -0.0303  0.2351 -0.0131
14661W        W31508   2.915  17.742  12.239 -0.0410  0.0109 -0.3457
14662W        W31509  18.575  17.368  10.671 -0.2147  0.2234  0.2394
14663W        W31510  13.305  15.885   3.404 -0.1041 -0.1877  0.0989
14664W        W31511   8.369  16.421  14.813  0.0821  0.0663  0.1167
14665W        W31512  10.604   6.364  15.412 -0.0604 -0.4729 -0.0645
14666W        W31513   5.335   0.502   3.036  0.1221  0.0511  0.0680
14667W        W31514  17.343   8.130   6.080 -0.1182 -0.0056  0.2594
14668W        W31515   8.471  18.631  13.478  0.2207 -0.1329 -0.2595
14669W        W31516   7.854  12.466   0.791 -0.0809 -0.1166 -0.2500
14670W        W31517  16.054  17.208  13.995 -0.0047  0.0574  0.0423
14671W        W31518  12.952   5.225   1.747 -0.1189  0.0441  0.2171
14672W        W31519   5.874   0.817  10.563 -0.0229  0.0212  0.3485
14673W        W31520  13.256  13.704  15.132  0.0725 -0.3321 -0.1518
14674W        W31521  12.220   7.438   0.091 -0.0917 -0.4024  0.1195
14675W        W31522  17.625  10.277   4.610  0.0367 -0.1858  0.0789
14676W        W31523  13.829  14.672  14.631  0.3645 -0.1261  0.1165
14677W        W31524   8.557   4.496  14.110 -0.0108 -0.1052  0.0833
14678W        W31525   8.675  16.528   4.421  0.0946 -0.1575 -0.1139
14679W        W31526   1.351  11.934  11.924  0.1551  0.1497 -0.0103
14680W        W31527   8.506   2.166   2.414 -0.1848  0.0815  0.1767
14681W        W31528  17.411   2.334  10.114  0.0575 -0.2216  0.1386
14682W        W31529   9.279   6.505  11.658  0.0138 -0.1534 -0.0851
14683W        W31530  16.727  16.342   3.273 -0.1163 -0.1619 -0.1272
14684W        W31531  15.111   2.378   6.224  0.0336  0.0929  0.0241
14685W        W31532   3.606   0.669  12.496 -0.1354 -0.1096 -0.2560
14686W        W31533   5.846  17.993   1.634  0.0411 -0.0552  0.2360
14687W        W31534   6.104   6.796   2.279 -0.2636 -0.0183 -0.0949
14688W        W31535   7.857   0.647  14.581  0.0546  0.1440 -0.1157
14689W        W31536  17.160   5.973  13.378  0.0052  0.0901  0.2518
14690W        W31537  15.005  12.615  13.392 -0.0693 -0.1046  0.1551
14691W        W31538   6.276   0.615   1.921  0.3041 -0.1355 -0.2198
14692W        W31539   8.531  16.452  13.896  0.1789 -0.1297  0.4359
14693W        W31540   2.983   5.761  12.272 -0.0569  0.2817  0.1625
14694W        W31541  14.187   5.865  11.059 -0.0701 -0.0184  0.1200
14695W        W31542  12.878  11.941  12.837 -0.0140  0.0123 -0.0622
14696W        W31543  12.631   3.737   0.846 -0.2211  0.0489 -0.1573
14697W        W31544   2.626  12.570   5.458  0.0122 -0.0486  0.2304
14698W        W31545  11.646   9.312  11.115 -0.1118 -0.0533 -0.0796
14699W        W31546  10.559   7.735   2.176  0.1137  0.0203 -0.0815
14700W        W31547  10.840  16.367   0.665  0.0031  0.0769 -0.0617
14701W        W31548  17.227  12.700   2.309  0.1707 -0.0837  0.4183
14702W        W31549   4.268  14.588   3.351  0.0567 -0.0198 -0.0609
14703W        W31550   9.113   3.560   1.451  0.1395 -0.2290 -0.1197
14704W        W31551   4.424   4.098   4.345  0.1080  0.2815  0.2484
14705W        W31552  13.353  12.672   0.140  0.0560  0.1475  0.1265
14706W        W31553   6.602   4.599  11.201  0.0239 -0.1396 -0.1648
14707W        W31554  10.271   8.700   2.104 -0.0675 -0.1072  0.3402
14708W        W31555   7.220   0.638  12.214 -0.0139 -0.3954  0.0393
14709W        W31556  18.129  17.602  11.250  0.1198  0.1759  0.0768
14710W        W31557   0.097   5.096  13.893  0.3660 -0.0883  0.3530
14711W        W31558  11.293  14.835  10.382 -0.0414 -0.0556  0.0172
14712W        W31559  18.501   4.042   2.703  0.1753 -0.0259  0.0825
14713W        W31560   8.800   1.342   2.112 -0.2800  0.0645  0.1647
14714W        W31561  16.104  17.982   4.710 -0.2392 -0.0836  0.2089
14715W        W31562  11.437   7.611  12.751  0.1081  0.1566  0.1538
14716W        W31563   3.938   3.704  14.563  0.0565  0.2125 -0.0451
14717W        W31564   4.822  15.503   4.580 -0.0976  0.0511 -0.3054
14718W        W31565   0.548  14.980   0.653 -0.2180  0.0713 -0.1526
14719W        W31566  15.147  14.543   4.152 -0.1646  0.2117  0.1334
14720W        W31567   0.460  11.330  13.005 -0.0925  0.0097  0.1107
14721W        W31568  10.542   8.758   1.041 -0.1030  0.1391  0.0295
14722W        W31569  10.518   7.350  12.939 -0.2442  0.1227 -0.1736
14723W        W31570  13.839  11.206   0.763  0.0916  0.1375  0.0425
14724W        W31571   1.547   4.403  11.300 -0.1084  0.1733 -0.1855
14725W        W31572  15.980   9.437  14.399  0.0494  0.1730  0.3268
14726W        W31573   0.839  16.488  15.066  0.0153 -0.4409 -0.2417
14727W        W31574  15.224  12.129   4.523  0.2542  0.0597 -0.0592
14728W        W31575   7.823  14.039   4.578 -0.1156 -0.1081  0.1587
14729W        W31576  17.390   9.902  12.706  0.1272 -0.1234 -0.0116
14730W        W31577  14.638  11.868  11.493  0.3816  0.0235 -0.0056
14731W        W31578  17.857   6.394   0.586 -0.0123 -0.0747 -0.0663
14732W        W31579   2.962   8.389  10.455  0.0157  0.4088  0.0030
14733W        W31580   1.186   8.810   1.639 -0.1201  0.0335  0.1613
14734W        W31581  18.294  12.031  11.565  0.0308  0.1469 -0.0545
14735W        W31582  15.726   0.806   4.059  0.2084 -0.2142  0.1579
14736W        W31583  15.113  10.920  14.606 -0.0754 -0.0483 -0.1161
14737W        W31584  15.008   6.781   4.055  0.2746 -0.0907  0.2505
14738W        W31585  12.100   7.568  11.887 -0.0871 -0.1871 -0.1180
14739W        W31586   7.133   3.867  11.500 -0.0636  0.1496 -0.2456
14740W        W31587   2.978  13.205   3.397  0.4628  0.1486 -0.0875
14741W        W31588   4.504   5.070   5.318 -0.0813 -0.1015 -0.0806
14742W        W31589  12.868  10.802   3.915  0.0096 -0.0019  0.2270
14743W        W31590  11.360  13.196   2.314  0.0759  0.2660  0.0773
14744W        W31591   0.125   4.580  14.741  0.3000  0.0541  0.2292
14745W        W31592  16.140  18.497   4.925 -0.1666 -0.0038 -0.2832
14746W        W31593   4.995   0.050   4.276 -0.0629  0.0344 -0.0079
14747W        W31594  16.958   0.436   0.769 -0.2658  0.1603 -0.2762
14748W        W31595  18.062  14.686  11.010 -0.2507  0.1283 -0.0448
14749W        W31596  13.092   6.669  11.970 -0.3068  0.0893 -0.1430
14750W        W31597  12.119  12.194  11.760  0.0909 -0.1299  0.3470
14751W        W31598   3.959  10.274   3.647  0.0071 -0.0424  0.1432
14752W        W31599  14.604  12.231   1.244 -0.0017 -0.1095  0.1177
14753W        W31600   6.018   1.947   2.746 -0.1190  0.0802  0.2030
14754W        W31601   1.484  11.007   0.628 -0.3957  0.0709 -0.0801
14755W        W31602  11.334   4.364   0.008  0.1817 -0.0820 -0.1789
14756W        W31603  11.806   2.630   1.727 -0.0026 -0.0657 -0.2964
14757W        W31604  13.913   5.141   2.792  0.2139 -0.0158 -0.4211
14758W        W31605   2.118  16.217   3.725  0.2000  0.0938 -0.4584
14759W        W31606   8.571   1.906   5.751  0.1340 -0.1783 -0.1141
14760W        W31607  14.630  16.521  14.323  0.1859  0.2185 -0.1403
14761W        W31608   0.960  11.585  12.016  0.0660  0.0367  0.3837
14762W        W31609  14.800   3.959  10.967 -0.4919  0.1373 -0.0112
14763W        W31610  15.648  14.838   5.193 -0.1632 -0.0453  0.0267
14764W        W31611   6.541  17.529   5.235 -0.2032 -0.2595 -0.0151
14765W        W31612  14.445  17.891  13.250  0.0400 -0.1925  0.2067
14766W        W31613   4.727  14.504   3.470  0.2549 -0.0097  0.3662
14767W        W31614   6.395  14.414   4.516  0.1651 -0.2467 -0.0818
14768W        W31615   2.274   1.087  12.175 -0.2683  0.2088 -0.1570
14769W        W31616  10.139  14.128   2.806 -0.2320  0.0275 -0.2409
14770W        W31617   2.908  11.840   1.580 -0.4215  0.1574 -0.0709
14771W        W31618  12.071   8.535  10.979  0.0639 -0.0558 -0.2124
14772W        W31619   2.709   2.948  13.198 -0.0917  0.0526 -0.0191
14773W        W31620  17.675  17.447  10.997  0.1482  0.1315 -0.0102
14774W        W31621  14.245   0.079   1.627  0.1213  0.2211 -0.1783
14775W        W31622   8.994   8.991  11.463 -0.1191 -0.0858 -0.2744
14776W        W31623  11.240  11.022   1.882  0.1680  0.0894  0.1110
14777W        W31624  11.103  14.565   2.689  0.1475 -0.2874 -0.2554
14778W        W31625   3.720  17.821   2.942  0.0839 -0.1209  0.1873
14779W        W31626   1.584   8.854   4.024  0.0410 -0.1048 -0.1107
14780W        W31627   5.075   8.852   0.932  0.2536  0.1241  0.3760
14781W        W31628  15.418   1.529   1.920  0.1818 -0.0681  0.2503
14782W        W31629   3.162  14.862   9.776  0.0032 -0.1305  0.1444
14783W        W31630  13.404   2.822  13.261 -0.0839 -0.1413 -0.0877
14784W        W31631   5.474   8.294   4.127  0.0702  0.0445  0.2653
14785W        W31632   4.641   6.019  12.515  0.1307  0.0720 -0.0545
14786W        W31633  12.946  16.402   2.550 -0.1115  0.0288  0.1020
14787W        W31634   1.702   1.026   2.134 -0.1388  0.1743  0.0604
14788W        W31635  17.698   4.624   0.646 -0.1580 -0.1625 -0.0304
14789W        W31636  16.231   7.566   5.781  0.1795  0.0156  0.3348
14790W        W31637  17.075   1.532  10.587 -0.0457  0.2061 -0.2323
14791W        W31638  14.004   3.845  15.468 -0.1068 -0.0523  0.0636
14792W        W31639  16.756   3.176  15.241 -0.3932 -0.0070 -0.2033
14793W        W31640   3.467   5.522  13.914  0.0456  0.0626 -0.1385
14794W        W31641  10.375   5.678  13.326  0.0368 -0.1638 -0.2151
14795W        W31642   8.767   6.780  14.576  0.3415  0.1853 -0.0099
14796W        W31643   0.536  14.427  15.059  0.1042 -0.0019 -0.0161
14797W        W31644   5.062  12.934   2.971  0.2096 -0.2388  0.1146
14798W        W31645  11.062  11.281  15.274 -0.1933 -0.3127  0.0695
14799W        W31646  17.269   8.521   4.784 -0.4195  0.0771  0.1666
14800W        W31647  16.751  18.807  13.668  0.3222  0.1966  0.0177
14801W        W31648   6.659   0.082  10.844  0.0077 -0.0286 -0.1590
14802W        W31649  12.387   7.797  13.069 -0.1034  0.1289  0.1193
14803W        W31650  14.528   5.818   3.711  0.2872  0.0408 -0.2617
14804W        W31651   8.003  13.677  11.658  0.1097  0.0884 -0.1333
14805W        W31652   7.632   5.009  14.129  0.0339  0.0707  0.0196
14806W        W31653  13.105  11.197   4.987  0.0167  0.0511  0.0401
14807W        W31654  15.767  14.140   3.820  0.0889 -0.0424  0.1672
14808W        W31655  10.370  15.247  13.951 -0.1659 -0.0471 -0.3468
14809W        W31656   3.618   3.262  11.056 -0.2899  0.1221 -0.2139
14810W        W31657   4.983   5.347  14.785  0.1884  0.1234 -0.1253
14811W        W31658  14.314   3.537   4.894 -0.0610 -0.1485 -0.0320
14812W        W31659  18.094  15.240   3.161 -0.1638  0.1773 -0.2248
14813W        W31660   7.351   8.507   4.476 -0.1598  0.2561 -0.0015
14814W        W31661   7.653   8.196   1.408  0.0119 -0.1515 -0.2070
14815W        W31662  14.039   5.274   0.196  0.0846  0.2823 -0.1404
14816W        W31663  11.122  11.052   0.169 -0.2603 -0.1929 -0.5565
14817W        W31664  16.841  14.844  13.998 -0.0782 -0.0466  0.0188
14818W        W31665  12.221   3.787  11.900 -0.1031  0.0948  0.0314
14819W        W31666  12.971  15.629  10.964 -0.1550  0.3570 -0.0172
14820W        W31667   4.830   6.613   3.720 -0.1429 -0.2737  0.1090
14821W        W31668  18.017   7.858  11.423  0.0010  0.0209  0.1027
14822W        W31669   7.165   3.034   0.005 -0.1069 -0.2288 -0.3028
14823W        W31670  18.532  18.615  13.563 -0.1672 -0.0396 -0.1072
14824W        W31671   7.856  18.152   0.583 -0.3139 -0.0278 -0.0497
14825W        W31672   6.411  12.693   3.534  0.2084 -0.0745  0.2137
14826W        W31673  18.648   3.405   5.469 -0.0228 -0.1455  0.3179
14827W        W31674  14.677  10.019  13.884  0.0251  0.2441 -0.0291
14828W        W31675   8.238   0.783  11.213  0.0146  0.0618  0.0217
14829W        W31676  14.721   8.899   0.210  0.0507 -0.2362 -0.0668
14830W        W31677   3.525  10.803  14.010  0.1821 -0.1842  0.1376
14831W        W31678  12.720  17.077  11.228  0.3370 -0.0297 -0.0878
14832W        W31679   5.001  15.060  15.549  0.0666  0.1554  0.0475
14833W        W31680   2.360  15.979  13.900  0.1048 -0.3975 -0.0138
14834W        W31681   4.773  10.885  13.662 -0.0647  0.0443  0.1776
14835W        W31682   5.958   9.353  15.532  0.0390  0.0693 -0.0506
14836W        W31683   7.726   5.256   0.674  0.2701 -0.1224 -0.1768
14837W        W31684  12.984   0.681   4.728 -0.1933  0.1691 -0.0664
14838W        W31685   8.197  15.465   2.331  0.6617 -0.0245  0.3692
14839W        W31686  17.575  11.763  15.299 -0.1193 -0.1967 -0.3965
14840W        W31687   9.610   6.216   0.068  0.2164  0.2101  0.0306
14841W        W31688  16.272   3.510  14.761  0.1637  0.0514 -0.0289
14842W        W31689   5.906   0.036  13.817  0.0574  0.0295 -0.0568
14843W        W31690   2.860  17.734   4.553 -0.0288  0.2070 -0.1345
14844W        W31691  10.490   2.774   4.120 -0.1169 -0.0209 -0.1941
14845W        W31692   6.307   8.213   1.440 -0.1481 -0.1763  0.1484
14846W        W31693  12.403  12.350   2.858 -0.3047  0.1443 -0.0258
14847W        W31694   5.137  17.528  14.909 -0.4330 -0.0836 -0.0799
14848W        W31695  10.148  17.283   9.785  0.1696  0.1502 -0.2918
14849W        W31696   9.545   2.728  14.306 -0.0719 -0.2945  0.0375
14850W        W31697   2.781   9.177   0.013  0.0179 -0.0687 -0.0639
14851W        W31698   2.248  17.428   4.521 -0.3669  0.0569  0.1075
14852W        W31699  14.850   8.353   1.726 -0.0918  0.0467  0.0086
14853W        W31700   4.300  13.468   3.944  0.0316  0.3131 -0.2341
14854W        W31701  14.594  17.904  14.264  0.0774 -0.2931  0.0234
14855W        W31702  14.714   9.977  15.222  0.3658  0.0976 -0.0486
14856W        W31703   7.415  10.509   2.194  0.1952 -0.1440 -0.1166
14857W        W31704   5.499  14.662  15.074  0.0464 -0.1923  0.2136
14858W        W31705  18.827   4.197  15.336 -0.1383 -0.0662  0.1461
14859W        W31706  16.242  16.300  13.306  0.0856  0.3825 -0.0303
14860W        W31707   7.607  13.367   2.815  0.0915  0.2287  0.0201
14861W        W31708   2.186  11.383   1.798 -0.2901  0.2373 -0.4376
14862W        W31709   3.054   1.691   1.003 -0.1140 -0.0292  0.0388
14863W        W31710   7.186  12.670   0.153  0.0501  0.3307  0.1247
14864W        W31711   9.039   2.762  15.056  0.0843 -0.1143  0.0955
14865W        W31712   4.443  16.214   4.925  0.1291 -0.1049 -0.0299
14866W        W31713  14.368   6.972  12.501  0.0839  0.1811 -0.0297
14867W        W31714   6.207  12.218   3.074 -0.1841  0.2357 -0.3223
14868W        W31715   7.207  13.328  13.271 -0.1518 -0.3154 -0.0223
14869W        W31716   4.711   5.410  13.769  0.2347  0.3304 -0.1351
14870W        W31717   8.483  15.486  13.857 -0.0887 -0.0480  0.0147
14871W        W31718   0.027  13.174  13.590 -0.3796  0.0392 -0.2111
14872W        W31719  14.014   6.292  11.304  0.2509 -0.0686  0.1444
14873W        W31720   9.523  17.219   3.154 -0.1473  0.0732  0.1803
14874W        W31721   1.005   2.175   2.552 -0.1445  0.1374 -0.0191
14875W        W31722   9.327   3.993  14.955  0.0088 -0.0573 -0.1554
14876W        W31723   8.023   4.691   4.305 -0.0134 -0.1537 -0.0383
14877W        W31724   9.799   2.778   0.599 -0.2547 -0.1633 -0.1759
14878W        W31725   6.181  18.772   3.848  0.2676  0.1039  0.2130
14879W        W31726  13.767  11.873   1.929 -0.2599  0.0013  0.2272
14880W        W31727   1.732   4.132   4.922 -0.1945  0.0999  0.2263
14881W        W31728  14.988  18.775   4.172 -0.0106  0.1363  0.2087
14882W        W31729   6.060  13.063   3.646 -0.0588  0.1702 -0.0803
14883W        W31730  15.932  12.904   0.129 -0.1070 -0.0764  0.0146
14884W        W31731   4.133  11.830  14.437  0.2801 -0.0946  0.0951
14885W        W31732   5.251   6.148   4.950  0.0685  0.1348  0.0761
14886W        W31733   1.465  10.331  11.664 -0.0083  0.2353 -0.2538
14887W        W31734   4.780  12.853  11.319 -0.1436  0.0828 -0.1650
14888W        W31735   0.362  17.862   9.471 -0.1814 -0.1768 -0.1066
14889W        W31736   5.828   7.811   4.213  0.2319  0.1193  0.0040
14890W        W31737   7.513   9.874   2.818 -0.1284  0.0257 -0.2137
14891W        W31738   1.351   5.134  11.712 -0.0962  0.4609 -0.2798
14892W        W31739  18.669  16.279  11.293  0.1478 -0.3495  0.1816
14893W        W31740  17.344   4.889   5.039 -0.2903 -0.1786  0.1388
14894W        W31741  18.262   6.395  15.127  0.0750 -0.4369 -0.1044
14895W        W31742  17.071  17.227  12.550 -0.0624  0.0214 -0.1136
14896W        W31743  18.726   6.699   3.169  0.3828 -0.0589 -0.4177
14897W        W31744   7.272   3.399   2.786  0.0363  0.1617 -0.0650
14898W        W31745   3.601  18.220  10.810 -0.0228 -0.0123  0.0014
14899W        W31746   1.997  13.442   1.321 -0.0287  0.1197  0.1066
14900W        W31747   1.322  18.112  14.821 -0.2572 -0.2376  0.1945
14901W        W31748   7.648   3.098   0.935 -0.1145  0.0847  0.1504
14902W        W31749   4.281  18.598  13.101 -0.0103  0.2456 -0.1346
14903W        W31750  15.246   7.150   0.313  0.0603 -0.1595 -0.0398
14904W        W31751   0.155  18.630   1.205 -0.3121 -0.1153 -0.0711
14905W        W31752   3.868  15.282  11.322 -0.2541  0.1192 -0.1454
14906W        W31753   3.027   0.851   3.604  0.0151  0.2005  0.2715
14907W        W31754  16.201   0.874   3.861 -0.0541  0.2243 -0.1255
14908W        W31755  15.754   4.956   3.246  0.0030  0.1001  0.0707
14909W        W31756  17.968  14.966   4.109 -0.1825  0.1805 -0.0737
14910W        W31757  12.667  18.679  14.483  0.1417  0.0622 -0.3135
14911W        W31758   4.227  13.322   3.390 -0.0074  0.0053 -0.3231
14912W        W31759  13.237   3.400   0.294  0.0936 -0.0041  0.5119
14913W        W31760  11.352  14.006   3.812  0.0035 -0.1866 -0.3546
14914W        W31761   0.009  12.182  13.899  0.4193 -0.0868  0.1333
14915W        W31762   8.036  17.586   4.240  0.2424 -0.0061  0.0464
14916W        W31763  17.069  15.852   3.396  0.1148 -0.1269  0.2887
14917W        W31764   0.536   2.680   3.639  0.1159  0.0783 -0.1933
14918W        W31765  10.583  12.803  14.286 -0.3240 -0.3583  0.1337
14919W        W31766   1.398   9.374  11.087 -0.0975  0.0756  0.0502
14920W        W31767  10.920   9.147   0.910  0.1252 -0.3332  0.0268
14921W        W31768  14.873  17.678   3.314  0.0442  0.0571  0.0678
14922W        W31769   5.516   5.072  13.545 -0.0136 -0.0757  0.2118
14923W        W31770  15.089  13.631  12.891  0.0007  0.2317 -0.0687
14924W        W31771   1.656   9.383  12.101  0.0663  0.0433 -0.1651
14925W        W31772   9.944  13.726  15.217  0.0405  0.1465  0.0924
14926W        W31773   4.165   5.762  12.417 -0.0001 -0.1741  0.0319
14927W        W31774  15.378  16.721   9.792  0.0349 -0.4066 -0.2206
14928W        W31775   9.042  14.546   4.900  0.2623  0.0091 -0.1291
14929W        W31776   5.504  10.925   3.835  0.2262  0.1921 -0.1514
14930W        W31777  14.899   2.927  11.947 -0.0244 -0.3158 -0.1174
14931W        W31778   6.532   3.992   1.380 -0.1440 -0.1751 -0.4345
14932W        W31779  10.880  13.148  12.281  0.4400  0.1935 -0.1491
14933W        W31780   2.374   4.281  14.856 -0.0694 -0.0068 -0.2189
14934W        W31781  12.245   0.942   0.793 -0.0238 -0.0948 -0.2751
14935W        W31782  10.143   6.202  14.529  0.0377  0.0962 -0.1359
14936W        W31783  11.351   5.515   5.409  0.2538 -0.4160 -0.2674
14937W        W31784  13.488  13.741  12.820  0.5751 -0.0636 -0.2464
14938W        W31785   1.072   5.594  12.353 -0.0686 -0.1630  0.0605
14939W        W31786   0.410   8.620   5.504 -0.2455 -0.0139 -0.0738
14940W        W31787  18.622  17.233   2.791 -0.2859  0.0474  0.1663
14941W        W31788  12.126  13.154   0.144 -0.0745 -0.2684  0.0919
14942W        W31789   2.964   3.748   2.769 -0.0036 -0.0743  0.2255
14943W        W31790   2.690  16.929  15.021  0.0413  0.1384  0.0679
14944W        W31791   2.613   4.485   3.285 -0.1508 -0.1495 -0.0274
14945W        W31792   3.911  17.264  14.045  0.1875  0.1128  0.0103
14946W        W31793  17.296  10.946   4.117 -0.0300  0.0483 -0.1391
14947W        W31794  16.594   7.932  15.294 -0.0788  0.1252  0.0476
14948W        W31795   7.459  13.223   0.593  0.1032  0.2654 -0.0515
14949W        W31796   1.876  10.436   1.988 -0.1978 -0.2207  0.3450
14950W        W31797   5.497  17.316   5.672 -0.1748  0.0876 -0.1680
14951W        W31798   2.672   3.992   3.129 -0.2633 -0.0950  0.1478
14952W        W31799   5.806   4.865   1.148 -0.2503 -0.3150  0.0844
14953W        W31800  15.800   9.766   2.468 -0.2037 -0.1568 -0.0344
14954W        W31801   9.057   4.354   2.016 -0.1656  0.2246 -0.1858
14955W        W31802   5.771   6.571  15.423 -0.2793 -0.1483 -0.2592
14956W        W31803  15.667   3.257   0.937 -0.0404  0.4254  0.2857
14957W        W31804  11.036   8.142  11.241  0.2426  0.0716 -0.1179
14958W        W31805  17.045   6.410   2.101 -0.0387  0.1224  0.0785
14959W        W31806   8.941   8.042   6.114  0.1932 -0.0087  0.2426
14960W        W31807   2.327   1.741  15.137  0.1954 -0.4485 -0.0426
14961W        W31808   2.201  18.032  14.691  0.0317  0.1517  0.0330
14962W        W31809   3.643  13.316   1.624  0.4101 -0.0710  0.1603
14963W        W31810   0.846   5.823  15.350 -0.2459  0.0968  0.0081
14964W        W31811   1.650   0.467  10.932  0.0509 -0.1834  0.3908
14965W        W31812  13.853   3.523   3.650  0.0860  0.1337  0.3666
14966W        W31813  12.148   2.686  15.228 -0.0053 -0.4191 -0.2341
14967W        W31814   8.084  12.734  14.934  0.0908  0.1266 -0.1935
14968W        W31815  11.770  11.736   1.870  0.2643 -0.1706  0.3604
14969W        W31816  12.031  14.505   2.980 -0.0198 -0.0249  0.2646
14970W        W31817  14.893   7.442   5.792 -0.0586  0.0205 -0.1061
14971W        W31818  12.470   5.078  15.523 -0.3861 -0.0871 -0.3308
14972W        W31819   3.033  16.865   4.672 -0.2413 -0.4594 -0.2416
14973W        W31820  10.029   2.338   2.684  0.1786  0.0575 -0.0057
14974W        W31821  13.263   1.324  14.716 -0.0196 -0.0037 -0.1894
14975W        W31822  12.475   4.093  14.299 -0.0896 -0.2900  0.0929
14976W        W31823  14.490  13.476   0.099  0.1266  0.0132  0.1643
14977W        W31824   0.799  17.772  10.458  0.3307  0.0510  0.1320
14978W        W31825  15.382  13.960  11.652  0.0755 -0.1363  0.0670
14979W        W31826  14.867   6.842  15.160 -0.2877 -0.1656 -0.3210
14980W        W31827   1.503   9.065  13.948 -0.0599  0.0391 -0.2398
14981W        W31828  16.088  13.942   0.171  0.2571 -0.4576  0.2254
14982W        W31829   1.916   3.208  10.012  0.1827 -0.3365  0.0670
14983W        W31830  16.920  15.035   4.126  0.1568  0.1374  0.1384
14984W        W31831  15.486   1.230   0.897 -0.3057  0.1475  0.0431
14985W        W31832  18.094   9.428   5.889 -0.1037 -0.2781  0.2893
14986W        W31833   2.006   8.563   3.334  0.0551  0.0710  0.1206
14987W        W31834  14.755  13.778  12.412 -0.1251 -0.1044 -0.2603
14988W        W31835   4.147   8.899  12.102  0.0210  0.3390 -0.1983
14989W        W31836  14.585  16.281   5.645 -0.4176  0.0019  0.0967
14990W        W31837   5.785  15.646  14.222 -0.2642  0.1903  0.0132
14991W        W31838   2.781  16.807  14.444 -0.2930  0.1578 -0.3757
14992W        W31839   1.945  15.449   2.169 -0.2512  0.2040  0.0173
14993W        W31840   2.387   6.961   3.273 -0.1310 -0.0238 -0.4018
14994W        W31841   4.931  16.578   1.683 -0.0945 -0.1988 -0.2832
14995W        W31842   8.873   2.654  11.354  0.0069  0.1048 -0.1938
14996W        W31843  11.728   2.983   2.203 -0.1756 -0.0012 -0.2275
14997W        W31844  11.743   1.437   4.570  0.0803 -0.1184  0.2709
14998W        W31845   4.357   0.135  11.119 -0.0538  0.2312  0.0383
14999W        W31846   2.616   5.941   2.854 -0.2279  0.0538 -0.0961
15000W        W31847   5.103  17.115  10.675  0.1454 -0.1897  0.0525
15001W        W31848   1.436  10.646   3.027 -0.0495  0.0501  0.0311
15002W        W31849  12.248  13.978   4.548  0.0356  0.0394 -0.1092
15003W        W31850  13.550   1.212   2.091 -0.2374  0.2267  0.0233
15004W        W31851   3.652   4.162  14.306  0.1431 -0.1443 -0.0263
15005W        W31852  18.246   3.213   4.430 -0.2614  0.1128 -0.1212
15006W        W31853   7.342   8.702   2.713 -0.0575 -0.1035 -0.1596
15007W        W31854   1.925   7.162   1.882  0.1136  0.0941 -0.2024
15008W        W31855   3.004   2.264  12.733 -0.2777 -0.1706 -0.1254
15009W        W31856   8.700  10.485  11.929 -0.0603  0.0534  0.1842
15010W        W31857  10.942   8.328  12.489 -0.3027 -0.0071 -0.0432
15011W        W31858   8.932  11.615   3.373 -0.0881 -0.0953  0.0218
15012W        W31859   3.347  15.238  13.071  0.1075  0.2559  0.3314
15013W        W31860  15.697  12.641   3.904  0.1627 -0.1881  0.2265
15014W        W31861   8.936   8.157   3.273 -0.0276  0.2258  0.0681
15015W        W31862  15.182   4.481   0.156  0.0148  0.2890  0.6201
15016W        W31863  15.274   2.779   5.213 -0.5255  0.2291  0.2420
15017W        W31864  18.041   7.285  10.416  0.2718 -0.0454 -0.0149
15018W        W31865  15.436   5.010  15.483 -0.1213 -0.3172 -0.1388
15019W        W31866  18.358   3.131  13.631  0.0649 -0.1607  0.3597
15020W        W31867   0.421  12.200  11.646  0.1601 -0.0460 -0.0730
15021W        W31868  17.404   0.240   4.064 -0.1650  0.4059 -0.1046
15022W        W31869  12.167  11.048   2.845  0.2146  0.1310  0.1995
15023W        W31870  10.387  18.077  12.546 -0.0379 -0.0005 -0.0380
15024W        W31871   1.194   3.736  15.488  0.0361  0.0363 -0.3153
15025W        W31872   5.990  13.970  14.357  0.0709 -0.0588 -0.1679
15026W        W31873   9.170  17.836  12.910 -0.0484 -0.1015  0.1029
15027W        W31874   1.504   5.310  14.210  0.0968 -0.3086 -0.0378
15028W        W31875  11.332   5.092   5.677  0.2463 -0.0831  0.1638
15029W        W31876  10.043   3.493   4.523  0.0147 -0.1422  0.0877
15030W        W31877  11.239   1.335   1.552 -0.1619  0.0292 -0.1310
15031W        W31878   4.319   6.302  14.268  0.2801 -0.2088  0.3905
15032W        W31879  12.041   3.755   4.816  0.0962 -0.2030 -0.1426
15033W        W31880  16.915  12.737  13.167  0.2220 -0.1222  0.0119
15034W        W31881  14.847   9.196   4.298 -0.1054 -0.2697  0.0666
15035W        W31882   7.263   2.998   3.574 -0.1089  0.1328 -0.0507
15036W        W31883   5.078  11.188  12.382 -0.3081  0.3010 -0.0046
15037W        W31884   9.507   3.966  14.235  0.0053  0.0876 -0.1284
15038W        W31885   8.879   6.321  15.180  0.1409  0.0773 -0.0647
15039W        W31886   5.747   2.471   4.652 -0.1784  0.1250 -0.1780
15040W        W31887  15.156  16.464  14.406  0.0475  0.0083 -0.2183
15041W        W31888  17.123   8.466  10.492 -0.0071  0.0858  0.3453
15042W        W31889   3.228  17.873   3.031 -0.1722 -0.1331 -0.0480
15043W        W31890   8.211   9.048   0.068 -0.0603  0.0384 -0.0099
15044W        W31891   4.959  14.248   4.025  0.1006  0.0972 -0.0612
15045W        W31892  10.616  17.058   5.097  0.1988  0.3141 -0.0698
15046W        W31893   2.903   1.978  11.235  0.0482 -0.0761  0.1155
15047W        W31894  12.530  13.837  14.597  0.0667  0.1451  0.2295
15048W        W31895  12.918  10.158  11.455  0.1410 -0.2691 -0.2898
15049W        W31896  14.383   8.153  13.063 -0.1577 -0.1275 -0.0152
15050W        W31897  15.705   5.979  13.961  0.0283  0.4129  0.0595
15051W        W31898   6.171  16.921  12.434 -0.2170 -0.0915 -0.3038
15052W        W31899   0.654   5.738  11.800  0.1168  0.0286 -0.2005
15053W        W31900   5.315  10.817   4.494 -0.1784  0.2444  0.0163
15054W        W31901   8.741  15.592   4.447 -0.2234  0.2336 -0.0406
15055W        W31902   6.960  15.329   4.663  0.1023  0.1720  0.0839
15056W        W31903  14.952   8.171   5.054  0.4338  0.1238 -0.2494
15057W        W31904  12.177   6.286   0.480 -0.1735 -0.0818  0.0723
15058W        W31905   3.163   0.540  10.886  0.2295  0.1732  0.3108
15059W        W31906   0.070  16.647   0.030 -0.1233 -0.2781  0.2277
15060W        W31907  13.939   7.515   2.493 -0.0834  0.2340 -0.0866
15061W        W31908  11.528   1.003   1.846  0.2088  0.2421 -0.0147
15062W        W31909   6.445   3.575   4.371 -0.0943 -0.0141  0.4871
15063W        W31910   4.286  13.212   0.824  0.3014 -0.1084 -0.0905
15064W        W31911   7.740   4.271   2.453 -0.0034 -0.1875 -0.0921
15065W        W31912   9.310  15.956   2.795 -0.0627 -0.1866 -0.1234
15066W        W31913  10.915  13.297  14.907  0.2396 -0.1313 -0.4901
15067W        W31914  11.462   3.375   1.295 -0.0850  0.0356  0.1379
15068W        W31915  12.955  17.217  13.363 -0.2620  0.1448  0.0312
15069W        W31916   5.764   7.630   0.983 -0.1140 -0.1107  0.3672
15070W        W31917   1.816   2.229  14.732 -0.4475 -0.0378  0.1184
15071W        W31918   6.044   8.264   2.263 -0.1917 -0.0529  0.0628
15072W        W31919   1.518   2.086  10.905  0.0134  0.0987 -0.0400
15073W        W31920  10.034  18.672  14.762  0.1259  0.0851 -0.1574
15074W        W31921   5.950  17.613   0.859 -0.0185  0.1158  0.1632
15075W        W31922   8.137  11.838   4.837 -0.2619  0.1560  0.0764
15076W        W31923  16.093  12.432   4.639 -0.1404  0.3154 -0.3121
15077W        W31924  14.661  13.942  13.671  0.0078 -0.0789 -0.2586
15078W        W31925  11.644  15.332  12.757  0.1305  0.1065  0.0043
15079W        W31926   1.979   7.212   4.563  0.4225 -0.1936  0.0311
15080W        W31927   9.964   1.255   2.122  0.0230 -0.1080 -0.2011
15081W        W31928  10.543  15.397  14.665  0.0292 -0.0871  0.3895
15082W        W31929   1.295   9.296  11.731 -0.1941  0.0051  0.0185
15083W        W31930   4.731  18.238  14.335 -0.2954 -0.0281  0.3619
15084W        W31931   8.095  10.441  12.454 -0.1559  0.3570 -0.2077
15085W        W31932  11.332   5.331  11.851  0.1618 -0.1443  0.1135
15086W        W31933   2.724   8.141  10.904 -0.4231  0.3792 -0.1039
15087W        W31934  13.616   6.138   2.360 -0.0914 -0.0865 -0.3092
15088W        W31935  10.363   5.655   3.742  0.1879  0.1672  0.2176
15089W        W31936  18.690  16.958  13.139 -0.2522 -0.0978  0.1451
15090W        W31937   7.302   0.293   3.320  0.4017 -0.0037 -0.2271
15091W        W31938  12.119  18.644   2.410  0.0453  0.1130  0.2796
15092W        W31939  11.191   3.023   4.379  0.3258 -0.1398 -0.0881
15093W        W31940  12.510   1.658  12.963  0.4419  0.0901  0.1329
15094W        W31941   8.937   0.344  12.005 -0.0014 -0.0459 -0.0525
15095W        W31942   7.494  17.638   2.447 -0.0811 -0.1976 -0.1002
15096W        W31943  10.010   3.591   5.101 -0.1282  0.0835  0.0076
15097W        W31944  15.330   5.924   2.385 -0.1544 -0.0632 -0.3947
15098W        W31945   6.517   1.012   5.034 -0.2228 -0.3546  0.0994
15099W        W31946  11.197  11.416   2.267 -0.3667 -0.1630 -0.4087
15100W        W31947  15.404   1.490  13.435 -0.1979 -0.1131 -0.2320
15101W        W31948   4.873   9.415   0.178 -0.1886 -0.0165  0.1195
15102W        W31949  12.069  13.763   3.090 -0.3746  0.0686  0.1627
15103W        W31950   7.332   5.912  12.833  0.1073  0.1975  0.0773
15104W        W31951  16.992   4.194  13.431 -0.0267 -0.1983 -0.1225
15105W        W31952   3.229   7.659   4.992  0.3497 -0.1750 -0.0170
15106W        W31953  11.572  11.075   0.407  0.0248 -0.0450  0.0477
15107W        W31954   9.568  10.904  14.179  0.3621 -0.2146  0.4583
15108W        W31955   5.817  14.478  11.171  0.0131 -0.0646 -0.0554
15109W        W31956  14.339  17.643  11.148  0.0537  0.1272  0.0353
15110W        W31957   9.060  16.101   1.343  0.0065  0.2587 -0.0044
15111W        W31958  16.788  14.149   1.853  0.2419 -0.0913  0.0401
15112W        W31959   6.384   5.524   2.805 -0.1661 -0.3511 -0.0197
15113W        W31960   8.232   6.548   2.230 -0.0564 -0.0169 -0.4003
15114W        W31961   2.272   3.492   3.580  0.0373 -0.0704  0.0952
15115W        W31962  18.341  17.177  11.531 -0.0816 -0.0353  0.0943
15116W        W31963  14.457   6.513   2.412  0.0248  0.5280 -0.1193
15117W        W31964   7.977   6.595  11.488  0.1681  0.2356 -0.1884
15118W        W31965   8.397   1.362  11.884  0.0937 -0.0067 -0.1970
15119W        W31966  14.893   0.434   4.466 -0.2051  0.2360 -0.4242
15120W        W31967  13.287  18.651  11.732  0.1036  0.0379 -0.1704
15121W        W31968   6.502   5.066   2.548  0.1830 -0.2034 -0.1396
15122W        W31969  18.339   3.889  15.147 -0.1372 -0.0007 -0.0654
15123W        W31970  10.815  16.964   2.431  0.1776 -0.0032  0.0926
15124W        W31971  14.572  17.359   3.625  0.2288  0.0032 -0.0271
15125W        W31972   1.775  13.958  15.155 -0.2303  0.1808 -0.1111
15126W        W31973  17.319   1.049  14.054  0.1984 -0.2830  0.2543
15127W        W31974   4.842   2.501  15.545  0.0194  0.1392 -0.1823
15128W        W31975  11.749   9.767   0.774 -0.0958 -0.1644 -0.1158
15129W        W31976  16.713  10.093   2.781  0.0589 -0.1011 -0.1705
15130W        W31977  17.116   7.049   4.247  0.0850  0.2009 -0.2488
15131W        W31978  14.795   5.879  11.587  0.0629  0.1229  0.0621
15132W        W31979   3.781  10.320   2.702  0.0680  0.4713 -0.1414
15133W        W31980  14.201  10.278   2.977 -0.2148  0.0510 -0.0072
15134W        W31981  13.868   3.319   1.103  0.2251 -0.1446 -0.2492
15135W        W31982  14.654  16.570   4.839 -0.1212 -0.0649 -0.1195
15136W        W31983   8.807   0.097   1.461  0.2581  0.1286  0.0930
15137W        W31984   5.059  10.705   2.672  0.0566  0.0542 -0.2449
15138W        W31985  10.756   5.441   4.343 -0.1389  0.0638  0.3431
15139W        W31986   7.054  15.645  14.003  0.0087  0.0690 -0.0583
15140W        W31987  15.192   8.600  15.129 -0.1195 -0.1799  0.0273
15141W        W31988   3.306   8.677   2.815  0.2585  0.1547 -0.4442
15142W        W31989  13.602  11.932   2.820  0.0462  0.1651 -0.1010
15143W        W31990  17.558   9.158  14.035 -0.0285 -0.0818  0.0480
15144W        W31991  14.325  10.989  13.515  0.3490 -0.2368 -0.1205
15145W        W31992   6.258   9.728  12.885  0.0611  0.2232  0.1421
15146W        W31993   4.437  17.081  14.517  0.1318 -0.0438  0.0144
15147W        W31994  10.212   0.626   4.078 -0.1815 -0.0166  0.1344
15148W        W31995   0.610   6.318  13.332 -0.1230 -0.1332  0.1610
15149W        W31996  17.736   8.273   2.249 -0.2548 -0.1096 -0.2449
15150W        W31997   9.457  15.738   3.219 -0.4071  0.1178  0.1113
15151W        W31998   5.452   4.140  13.222  0.1919 -0.0427  0.0143
15152W        W31999   5.987   1.577   2.379  0.0906  0.1433  0.3011
15153W        W32000  10.769   1.322  12.055 -0.1762  0.0278 -0.0346
15154W        W32001   6.624  17.385  13.371 -0.1409  0.4119  0.0743
15155W        W32002   6.040   2.155  12.912  0.2585 -0.1661 -0.0745
15156W        W32003  10.461  13.527   3.682 -0.0920  0.1022  0.1817
15157W        W32004   1.214  14.348  13.725  0.1115 -0.0338  0.1156
15158W        W32005  16.131  14.875  15.522 -0.3217  0.2676  0.1553
15159W        W32006  10.198   1.900   0.603 -0.0304  0.0884  0.0019
15160W        W32007  15.430   5.642  13.404  0.2135  0.2423 -0.0739
15161W        W32008  12.384   2.946  10.165 -0.2386 -0.1572 -0.0081
15162W        W32009   3.339  12.992   3.146 -0.0386  0.2152 -0.0743
15163W        W32010  16.512  11.631   4.296  0.2742  0.2859  0.4709
15164W        W32011   3.050  15.123   4.980  0.0056 -0.0017 -0.0681
15165W        W32012   9.588   1.114  13.745 -0.0741  0.3501  0.2386
15166W        W32013  10.983  17.822   3.546  0.1107 -0.3722 -0.1209
15167W        W32014   5.145  11.043   3.488 -0.1420 -0.1682  0.0641
15168W        W32015   5.565   9.489  13.893 -0.0619  0.0983  0.0718
15169W        W32016   3.180   2.750  13.407 -0.0810  0.0567  0.3059
15170W        W32017  12.897  16.206   3.487 -0.1610 -0.0178  0.0208
15171W        W32018  11.089   0.380  15.307 -0.0247 -0.0826  0.1239
15172W        W32019   8.996  17.975   1.235 -0.1528  0.1769 -0.1352
15173W        W32020   2.993  10.148  14.345 -0.0514 -0.0165 -0.1936
15174W        W32021  16.764  10.262  12.222 -0.1185  0.0911 -0.2382
15175W        W32022  15.685  14.264  13.519  0.1800  0.1069 -0.0586
15176W        W32023   7.631  17.114   4.511 -0.0599 -0.2795  0.0215
15177W        W32024  10.394   4.206  15.177 -0.1639  0.2403  0.1428
15178W        W32025  12.301  12.226  13.984 -0.0191  0.0016 -0.0487
15179W        W32026  11.381   1.084   4.420  0.3301  0.1384 -0.0798
15180W        W32027   3.398   6.454   2.868  0.3047 -0.0288  0.0453
15181W        W32028   5.389   7.534  13.293 -0.0098 -0.3112 -0.0941
15182W        W32029  11.393   8.325   1.222  0.3994  0.0259 -0.1155
15183W        W32030   4.306   1.576   4.188 -0.2309  0.1039 -0.2205
15184W        W32031  14.373   4.579   1.520  0.0880  0.0886  0.1426
15185W        W32032   4.888   5.371   4.037  0.1311 -0.2241 -0.0333
15186W        W32033  18.483  10.922   1.166  0.2508  0.0118 -0.0992
15187W        W32034   5.909  15.874   0.790 -0.0347 -0.3532  0.2861
15188W        W32035   6.728   6.935   0.017 -0.3750  0.3881  0.0834
15189W        W32036   0.711   9.123   0.897  0.3228  0.0671  0.1764
15190W        W32037   5.427  17.853   4.952 -0.2284  0.1183  0.2524
15191W        W32038   1.213   8.278  13.436 -0.1230 -0.0886 -0.1931
15192W        W32039   8.200  16.760   1.111  0.0652  0.1994 -0.1775
15193W        W32040   5.308   6.762   3.855 -0.0864  0.0308 -0.2247
15194W        W32041   5.800  17.322  12.268  0.2761 -0.1016 -0.2528
15195W        W32042   9.662   7.304  11.968  0.1221  0.3146  0.1941
15196W        W32043   7.357   9.624  10.627 -0.0138 -0.0284  0.1766
15197W        W32044  12.498   5.010  12.939  0.1129 -0.0670  0.2343
15198W        W32045   1.447   1.078   9.375  0.1177  0.0314  0.0590
15199W        W32046  11.491   0.084  15.531 -0.0505  0.0442  0.0055
15200W        W32047  14.617  12.477   3.209 -0.0023  0.0618 -0.1418
15201W        W32048  10.544   1.097   4.923  0.0218  0.0453  0.1364
15202W        W32049   1.052  11.464  14.718 -0.1000  0.0120 -0.1530
15203W        W32050   4.109   6.699   4.225 -0.1440 -0.0474  0.0098
15204W        W32051  12.010   5.050   2.029  0.0525 -0.4057  0.1246
15205W        W32052  15.639  17.244   5.147 -0.0901 -0.2364  0.2629
15206W        W32053   0.759  17.268  10.823  0.0299 -0.2883 -0.2869
15207W        W32054   6.101   6.633  11.998  0.1664  0.0114 -0.0374
15208W        W32055   6.190   0.849  14.772  0.3771  0.1756 -0.1311
15209W        W32056  15.946  14.102  14.066 -0.2089  0.0788  0.0931
15210W        W32057   5.092   3.801  12.510 -0.0113 -0.2233  0.0396
15211W        W32058  16.519  16.362  13.766 -0.1438 -0.1453 -0.1910
15212W        W32059   6.775  18.389   3.873 -0.0339 -0.5377  0.0201
15213W        W32060   3.093  13.555   1.373  0.2390  0.2328  0.0945
15214W        W32061  13.205  17.151  14.480  0.0818 -0.1271 -0.0460
15215W        W32062   4.109   2.668   4.594 -0.0127 -0.0434  0.1059
15216W        W32063  14.415   1.245  12.413  0.0389 -0.2497  0.1346
15217W        W32064   9.899  13.027  12.890 -0.1836 -0.1624  0.0418
15218W        W32065  13.645   5.893  14.894 -0.0196  0.0283 -0.2538
15219W        W32066   7.532   0.891   1.636 -0.0784  0.1031  0.1455
15220W        W32067  18.546   0.077   5.578 -0.1053  0.3290 -0.4450
15221W        W32068  18.389  11.900   2.042  0.1432 -0.0858  0.1644
15222W        W32069  10.182  18.001  12.060  0.0350 -0.1518  0.0788
15223W        W32070   4.319   9.528   1.560 -0.0545 -0.1299 -0.1607
15224W        W32071  18.421   4.642  11.206  0.1873  0.0123 -0.2415
15225W        W32072   1.944  15.576   4.688  0.0563 -0.3397  0.1141
15226W        W32073  18.646   2.808   2.929  0.0314  0.2380  0.3803
15227W        W32074   7.338   8.472  13.954 -0.1452 -0.0173 -0.0255
15228W        W32075   9.319   6.201   1.744 -0.3349  0.5085 -0.0332
15229W        W32076   8.981   2.762   3.596 -0.0525 -0.2471  0.1383
15230W        W32077   9.599   9.381   5.005  0.1181 -0.0082 -0.4172
15231W        W32078  13.818  13.755  11.369 -0.0611  0.1440 -0.0707
15232W        W32079  12.175  13.219  10.739 -0.0520  0.3326 -0.2858
15233W        W32080   3.495  10.206   2.318  0.3817  0.2038 -0.2358
15234W        W32081  16.162   4.713   1.989 -0.3562 -0.0050  0.4327
15235W        W32082   7.940  16.894  12.662  0.1591  0.1765  0.1907
15236W        W32083  13.267  12.461   2.371 -0.3053  0.3110 -0.1955
15237W        W32084  18.335   7.263   0.813  0.0063  0.3976 -0.1682
15238W        W32085  18.775   3.509   4.534 -0.0507 -0.0479  0.2577
15239W        W32086   9.419   4.346  14.604 -0.1555  0.1864  0.3376
15240W        W32087  10.955  15.218  13.887  0.1266 -0.0843 -0.1455
15241W        W32088  10.110  14.925  11.905 -0.2246 -0.1100  0.1522
15242W        W32089   6.496   2.273   4.608  0.0511 -0.0171  0.1151
15243W        W32090  13.290  12.737  12.477  0.1100  0.0496 -0.1261
15244W        W32091  16.591  14.593   0.384 -0.0656 -0.1179 -0.1232
15245W        W32092   8.000  16.827   2.468 -0.4404 -0.1152  0.3179
15246W        W32093  17.635   8.374   0.181  0.0266  0.1173 -0.1630
15247W        W32094  12.288  14.953   1.856 -0.2118 -0.1283 -0.1390
15248W        W32095  12.231   7.091  12.141  0.1962  0.0370  0.1330
15249W        W32096  14.816   0.786  15.129 -0.1306 -0.2375  0.0247
15250W        W32097   2.431   1.187  14.308 -0.1892  0.0817 -0.4333
15251W        W32098  18.445   7.126   3.131  0.2585 -0.2577 -0.0575
15252W        W32099  14.969  14.223  11.689 -0.1639 -0.2106 -0.0853
15253W        W32100   3.889  15.628  14.092 -0.1296  0.2564 -0.2925
15254W        W32101  17.288  10.174  12.277 -0.1025 -0.2432 -0.0040
15255W        W32102   2.172   3.663  12.312 -0.1725 -0.1028 -0.1706
15256W        W32103  14.106  15.559   0.472 -0.0702  0.1798  0.3445
15257W        W32104   0.683  10.981   3.603  0.0247  0.0466  0.1839
15258W        W32105  15.365   1.199  15.458 -0.2900  0.0363  0.1174
15259W        W32106  16.669   1.285  12.174 -0.0496 -0.3456  0.1832
15260W        W32107  11.072   1.200  14.548 -0.2157  0.1013  0.0482
15261W        W32108  14.998  12.737  14.348  0.1964 -0.0669 -0.0052
15262W        W32109   4.269  18.074  12.982  0.1011 -0.1411  0.0108
15263W        W32110  14.177  18.121   1.004  0.2340  0.0845 -0.0461
15264W        W32111  11.726   6.291  14.325 -0.0415  0.2087  0.0716
15265W        W32112   7.549  10.742   1.737 -0.0603  0.0799  0.2021
15266W        W32113   5.797  15.002  11.994  0.1449  0.2236 -0.1502
15267W        W32114   1.655   5.993   0.764  0.1360  0.0916 -0.3532
15268W        W32115  18.568  10.814   5.508  0.1776  0.2476  0.2224
15269W        W32116  12.028  11.302  11.318  0.0741 -0.4120 -0.0623
15270W        W32117  16.915   1.626  12.512 -0.0397  0.0979  0.0770
15271W        W32118   4.080  17.151   0.254 -0.1508 -0.0741 -0.0438
15272W        W32119  18.439  17.763  10.355  0.0307 -0.5255  0.1220
15273W        W32120  17.456  12.090   0.117 -0.1673 -0.1350  0.0990
15274W        W32121   8.228  17.211   5.128  0.1546  0.2577 -0.0419
15275W        W32122  12.670   1.489   6.249 -0.2737  0.0446 -0.0375
15276W        W32123  17.471  15.861   2.709 -0.0011  0.2412 -0.0321
15277W        W32124  13.157   5.946  13.919  0.0692  0.0334 -0.3323
15278W        W32125  10.721  18.321  15.515 -0.2345 -0.1275  0.0711
15279W        W32126   1.722  15.868   0.414  0.2532  0.0206  0.0558
15280W        W32127   4.559   7.227  13.491 -0.2048  0.2220  0.0815
15281W        W32128   4.961  12.464   3.367 -0.1321  0.1990  0.1789
15282W        W32129   5.238   3.732  14.096 -0.0370  0.1081  0.2519
15283W        W32130   8.988   1.530  13.450  0.0095 -0.1790 -0.0995
15284W        W32131   2.023   5.433   3.201 -0.2137 -0.0800 -0.0796
15285W        W32132  10.177  12.143   3.553 -0.0040 -0.0215  0.2843
15286W        W32133  10.162  18.422  14.293 -0.0509 -0.0861  0.1770
15287W        W32134  10.801   2.802   1.946  0.3223  0.0537 -0.1652
15288W        W32135  11.320  12.165   4.461 -0.2099  0.1914  0.2957
15289W        W32136   3.316   5.111   2.866 -0.0120  0.2343 -0.3206
15290W        W32137   5.977   8.857  10.315  0.2706 -0.1427  0.2526
15291W        W32138   8.885  18.751  11.665 -0.1118 -0.0472  0.0646
15292W        W32139  12.190   8.880   1.808 -0.2602 -0.2482  0.1284
15293W        W32140   0.073  14.321   1.052  0.0528 -0.1455 -0.3468
15294W        W32141   3.253  12.133   3.859  0.0763 -0.2277  0.0588
15295W        W32142   9.672  17.544   4.982 -0.0260 -0.1841  0.0818
15296W        W32143   3.635   1.000  10.366 -0.2638 -0.1213  0.3582
15297W        W32144   0.849   7.692   4.174 -0.0124 -0.0804 -0.0032
15298W        W32145   0.209  12.968  12.700 -0.2460  0.0090  0.1583
15299W        W32146   4.461  12.599  13.059 -0.4140  0.1969  0.0421
15300W        W32147  11.361  10.903  15.235  0.0540 -0.4772 -0.0637
15301W        W32148  10.548   4.427   1.264 -0.2896 -0.0004  0.1763
15302W        W32149   4.775   5.584   3.614  0.3088 -0.0734 -0.0713
15303W        W32150  17.497   3.638  14.551  0.0412  0.2415 -0.0616
15304W        W32151  10.300   6.993  14.904  0.0625  0.0343 -0.1413
15305W        W32152  14.739  14.855   3.964 -0.1435  0.1015 -0.1475
15306W        W32153   6.504  12.775   2.588 -0.0350  0.3000 -0.0868
15307W        W32154  16.714   4.847   6.273  0.3620  0.2638 -0.3536
15308W        W32155   0.777   5.767   4.680 -0.1300  0.1326 -0.0807
15309W        W32156   1.636  14.587   3.384 -0.0476  0.1942  0.2091
15310W        W32157   7.879  17.734   0.955 -0.1011 -0.3478 -0.1770
15311W        W32158  17.120   9.083  13.782 -0.1695 -0.0095 -0.2469
15312W        W32159   4.003  10.638  12.324 -0.0182  0.0719  0.0457
15313W        W32160  18.535   5.103   1.366  0.0300 -0.1452 -0.2592
15314W        W32161  16.193  14.630  14.985  0.1470 -0.1883 -0.0178
15315W        W32162  12.699  11.711  10.732 -0.0623  0.0983 -0.1972
15316W        W32163  12.437   8.866  10.711  0.1453 -0.1674  0.1059
15317W        W32164  14.937  11.325   4.772 -0.3014  0.3140 -0.1714
15318W        W32165   8.396   0.490   5.322 -0.2946  0.0446 -0.0410
15319W        W32166  14.188   7.903   5.038  0.2336 -0.1196  0.1214
15320W        W32167  14.419   6.132  15.424  0.1192  0.2007 -0.1424
15321W        W32168  13.947  16.283   2.576  0.0058  0.2661 -0.0229
15322W        W32169  13.255  18.727   3.832 -0.0476  0.1986 -0.2868
15323W        W32170  10.549  14.805  15.186 -0.0638  0.3264  0.1164
15324W        W32171   4.365  15.149  11.587  0.0868 -0.3807  0.2672
15325W        W32172   5.833   3.342  10.375  0.0211  0.2855  0.2870
15326W        W32173   3.290  10.371   1.426 -0.2781 -0.0139 -0.0493
15327W        W32174  16.351   6.010   4.013  0.0827 -0.0877 -0.0330
15328W        W32175  10.392  11.135   1.724 -0.0233  0.0628 -0.0612
15329W        W32176   3.775   5.566   4.073  0.0592  0.3678  0.0313
15330W        W32177   1.986  17.171   1.349  0.3263 -0.0603 -0.2383
15331W        W32178   3.411  14.386  15.275 -0.0518 -0.0738  0.2957
15332W        W32179  17.241  12.900   0.608  0.0353 -0.3250 -0.1738
15333W        W32180   3.098   2.933   4.346  0.0887 -0.0224  0.1218
15334W        W32181   9.511  16.929  11.558  0.0748 -0.5072 -0.1844
15335W        W32182   7.122   7.826   5.106 -0.0618 -0.0580  0.0449
15336W        W32183   5.452   4.501   4.050 -0.1614 -0.1818  0.3176
15337W        W32184   4.081  14.863   1.949 -0.0587 -0.0487  0.1094
15338W        W32185   7.643  11.052  11.346 -0.1777 -0.2347  0.2515
15339W        W32186  10.500   3.563   4.910 -0.0155  0.0405  0.1343
15340W        W32187   3.600   8.962  14.326  0.1944  0.5065  0.0693
15341W        W32188   1.387   3.399  14.187 -0.1285  0.0504  0.3073
15342W        W32189  11.921  16.958  14.125 -0.1614 -0.2255 -0.1101
15343W        W32190  13.820  17.158   0.578 -0.0566 -0.1363  0.1234
15344W        W32191   4.730   5.444  11.788  0.0123  0.2251  0.0075
15345W        W32192  13.053  12.257  12.089  0.1067  0.1598 -0.1028
15346W        W32193  13.642  15.100  15.412 -0.0148  0.0778 -0.0336
15347W        W32194  18.534   9.244  13.170  0.1470  0.2672  0.4157
15348W        W32195  17.609  18.394  11.191 -0.1742 -0.0428 -0.0535
15349W        W32196   9.462   5.089   0.853  0.3285  0.0606 -0.3017
15350W        W32197  10.135  16.310  12.511  0.2511 -0.0061  0.0287
15351W        W32198   6.026  16.465  11.576  0.0996 -0.0981 -0.2118
15352W        W32199   1.261   1.053   1.804 -0.1563  0.3342  0.3032
15353W        W32200  12.578   4.752   1.062 -0.2037 -0.1643 -0.1276
15354W        W32201  17.525  12.018  14.005  0.3075 -0.3165  0.2866
15355W        W32202   4.380   4.350   1.775  0.1968 -0.1682 -0.4121
15356W        W32203  12.889   1.366  13.029  0.0500  0.2329  0.0684
15357W        W32204  17.559   3.633   2.463  0.1863  0.3022  0.3647
15358W        W32205   5.320   7.702  11.387 -0.3761  0.3159 -0.0211
15359W        W32206   8.124   9.038   4.148  0.0339  0.0599  0.1558
15360W        W32207   3.061   0.224  11.219 -0.2316  0.0956 -0.1393
15361W        W32208  11.759  10.925  15.520  0.0419 -0.1809 -0.0135
15362W        W32209  13.469   3.439  11.887 -0.1245 -0.2786 -0.0933
15363W        W32210  17.425   4.727  14.196  0.3048  0.1501 -0.3541
15364W        W32211  11.794   9.126   1.408 -0.1355  0.1001 -0.1538
15365W        W32212   1.827   0.019   5.047  0.1684  0.0482  0.4092
15366W        W32213   0.253  12.583  15.491 -0.0478  0.1166 -0.4834
15367W        W32214  11.068  17.369  11.755  0.0905 -0.0463  0.0171
15368W        W32215  16.190  15.433  14.057  0.0603 -0.1606  0.2297
15369W        W32216   6.822  12.015   9.879  0.4014 -0.0087 -0.1716
15370W        W32217  14.884   4.040   1.038  0.1738  0.0836  0.2748
15371W        W32218  14.077   3.925  12.901 -0.0951  0.0103 -0.1288
15372W        W32219  10.611  15.382   3.599 -0.0637 -0.2899 -0.0586
15373W        W32220   8.378   1.003   4.139 -0.0824 -0.0252  0.0323
15374W        W32221  11.517  18.438  12.973 -0.2205 -0.1894  0.1136
15375W        W32222  12.514   8.275  15.122 -0.3229 -0.2195 -0.1777
15376W        W32223   3.638  16.062   1.804 -0.3278 -0.0734  0.0769
15377W        W32224   3.795  12.995   0.943 -0.1957  0.2095 -0.2424
15378W        W32225  13.761   8.351   2.140  0.2031 -0.1988  0.3018
15379W        W32226   0.759  13.218  15.104 -0.1035 -0.1951  0.0753
15380W        W32227  13.838   7.887   4.073  0.2224  0.0357 -0.2726
15381W        W32228  14.015   1.183   2.381 -0.0049  0.1268  0.0464
15382W        W32229   1.676   4.483   0.699  0.1167  0.1938  0.0079
15383W        W32230  17.329   8.360  12.614 -0.0308 -0.1853  0.0638
15384W        W32231  15.769  14.881  14.756  0.1111 -0.0662 -0.3479
15385W        W32232   7.933   7.388   1.752 -0.0492  0.1941 -0.1238
15386W        W32233   8.075  10.876   2.231 -0.0936  0.0053  0.2757
15387W        W32234  10.247  12.342  11.825  0.1577  0.0010  0.0049
15388W        W32235  16.885   0.803   3.481 -0.1658  0.0652  0.0032
15389W        W32236   5.614  12.501  10.768  0.2102 -0.3004 -0.0872
15390W        W32237  12.908   3.480   1.306 -0.1926  0.1676  0.2506
15391W        W32238  17.296   0.204   2.209  0.0051  0.2871  0.3653
15392W        W32239  16.917  10.453   1.702 -0.0003  0.2030  0.1092
15393W        W32240   9.765  18.575   2.965 -0.3435  0.2775  0.3660
15394W        W32241  15.047  18.500   1.577 -0.1149 -0.1734  0.2891
15395W        W32242   5.846  13.710   3.946  0.0987 -0.2119 -0.1338
15396W        W32243  14.815   6.222  13.805  0.0203 -0.0996 -0.1712
15397W        W32244   4.699   8.873   1.290 -0.1632  0.1340  0.2752
15398W        W32245   3.837   8.343   4.358  0.1212 -0.1724 -0.2167
15399W        W32246   8.271   3.038   1.391 -0.0602 -0.0513  0.0040
15400W        W32247  16.520  15.900  14.862  0.0057  0.1133  0.0264
15401W        W32248   9.887  10.526  14.909 -0.1054  0.1613 -0.1318
15402W        W32249  13.453   4.411  12.202 -0.1376 -0.0661 -0.4462
15403W        W32250   9.774  18.697  12.590 -0.0417 -0.6723 -0.1888
15404W        W32251   5.016   5.244   1.952  0.0913 -0.2353  0.0049
15405W        W32252   2.717  16.638   0.285  0.1352 -0.2662  0.0178
15406W        W32253  11.241  11.940   5.776 -0.1000 -0.0228  0.1687
15407W        W32254  16.800  13.571   2.603  0.1234 -0.0503 -0.0723
15408W        W32255   7.511  16.175  15.152  0.1901  0.0974 -0.0451
15409W        W32256  16.643   5.473  11.573  0.1642 -0.0545 -0.0933
15410W        W32257   0.476  10.359  11.591  0.2844  0.0197  0.0272
15411W        W32258   9.350  10.126   5.494  0.0351  0.2374 -0.0402
15412W        W32259   8.176   8.778   4.970  0.2873  0.1457 -0.1480
15413W        W32260   1.060  14.560  12.780 -0.0347  0.3174 -0.0343
15414W        W32261   1.510  18.171   0.106  0.3178  0.0740 -0.2928
15415W        W32262  18.797  16.411   3.808  0.2126  0.0047 -0.0354
15416W        W32263  11.702   4.084   3.380  0.5047 -0.0438  0.0498
15417W        W32264  18.335   2.664  12.683  0.1953 -0.0451  0.4961
15418W        W32265  15.213   9.954   2.752 -0.1887 -0.1042  0.2537
15419W        W32266  10.483   1.832   3.924 -0.1572 -0.2893 -0.0069
15420W        W32267  10.451   6.755   4.371  0.0416  0.0981  0.0638
15421W        W32268  17.167   1.882  14.319  0.2375  0.2087 -0.0356
15422W        W32269   9.316   5.551  12.391  0.0953 -0.0784  0.1258
15423W        W32270   7.225  13.329   4.898 -0.2927 -0.1726  0.1084
15424W        W32271   6.812  15.542   2.455 -0.0959 -0.1502  0.0721
15425W        W32272   5.117   6.515   5.262 -0.0536 -0.0978 -0.3114
15426W        W32273  11.965   4.249   4.858  0.0980  0.1605  0.0312
15427W        W32274   7.814   6.750   1.849  0.2338 -0.0671  0.2039
15428W        W32275  12.682   7.225  11.228 -0.0206  0.2726 -0.0138
15429W        W32276   4.828   0.214  11.933 -0.2886  0.0766  0.1882
15430W        W32277   1.979   3.529  10.393 -0.0393 -0.3351  0.2351
15431W        W32278  13.699  17.702   3.445  0.2074  0.3842 -0.1334
15432W        W32279   5.805   5.981   3.409  0.0556  0.1126  0.1651
15433W        W32280  14.779   2.587   0.712  0.0239 -0.1942 -0.1067
15434W        W32281   6.879   5.347   2.863 -0.0321 -0.3711 -0.2223
15435W        W32282   0.573  14.282  12.698  0.0099  0.0481 -0.1924
15436W        W32283  17.733   1.379  13.153  0.2822 -0.0100 -0.3264
15437W        W32284   7.390   6.868  10.761  0.1096  0.2691  0.1118
15438W        W32285   0.435  18.596   3.258  0.1437  0.3421 -0.0977
15439W        W32286  10.048   0.960  12.470  0.0011  0.1924 -0.1714
15440W        W32287   9.765   5.319  12.392  0.1003 -0.1649 -0.0466
15441W        W32288  18.049  14.705   9.722 -0.0791  0.0069 -0.0926
15442W        W32289  16.876  16.620   5.278 -0.2989 -0.1592 -0.3220
15443W        W32290  13.606   0.954  12.817  0.1311 -0.0350  0.0297
15444W        W32291  12.213   1.567   1.640 -0.2989  0.0742 -0.0977
15445W        W32292  17.386   5.700  10.699  0.1306 -0.3417  0.0668
15446W        W32293  14.922  11.091   5.222 -0.2184  0.1577 -0.0938
15447W        W32294   1.081  13.950  14.468  0.0294  0.0192 -0.0348
15448W        W32295  16.206   1.725  10.222  0.2189  0.0764 -0.1624
15449W        W32296   6.286  10.510   2.830  0.2309 -0.0308 -0.0328
15450W        W32297  17.723   8.904   1.679  0.3139  0.0676 -0.1369
15451W        W32298  12.511   2.617   2.675  0.1860  0.0448 -0.0823
15452W        W32299   5.025  11.256   1.631 -0.1381 -0.2227 -0.1947
15453W        W32300   3.616  16.742   4.868  0.2578  0.2629  0.0807
15454W        W32301  17.521  18.673   4.898  0.0811  0.0993 -0.2934
15455W        W32302  14.225   8.971   3.540 -0.1658 -0.2803  0.0727
15456W        W32303  18.805  14.938  10.762 -0.1199 -0.2448  0.0851
15457W        W32304   1.252  13.410   3.954 -0.0133 -0.1928  0.1656
15458W        W32305   5.990  16.249   1.439 -0.4651  0.1449 -0.3062
15459W        W32306  17.816  13.718  15.098  0.1484 -0.2343  0.3225
15460W        W32307   2.069   9.876   2.020 -0.0029  0.1382 -0.2141
15461W        W32308  15.918   7.901  14.918  0.1836 -0.1900 -0.0692
15462W        W32309   8.951   8.195  13.476  0.0315 -0.5978 -0.0181
15463W        W32310   3.162   8.516   4.367 -0.1734  0.1638  0.1572
15464W        W32311   9.170   4.412   1.288  0.2224 -0.2562 -0.0370
15465W        W32312  10.519  18.109   4.206 -0.0339  0.0330  0.0591
15466W        W32313  16.283   1.703   5.218  0.2635 -0.2563  0.0930
15467W        W32314  13.985   5.756   1.413  0.1947 -0.1049 -0.1635
15468W        W32315  11.209   6.695  13.505 -0.1848  0.0593 -0.1412
15469W        W32316   5.894  10.452   5.196 -0.0101 -0.0915 -0.1197
15470W        W32317  11.070  18.016  11.581 -0.1060  0.0212 -0.1275
15471W        W32318  18.040  15.356  12.715  0.1521  0.1630  0.1045
15472W        W32319  12.830   0.327   4.963 -0.1192  0.1916  0.1867
15473W        W32320  17.995  12.091  14.297 -0.0979 -0.1335 -0.2131
15474W        W32321   7.379  10.311  11.839 -0.2022  0.0805 -0.1041
15475W        W32322  12.727  14.298  11.195  0.0530 -0.2022 -0.2499
15476W        W32323   6.986  12.493   4.227  0.0764  0.2472  0.4371
15477W        W32324  10.075  13.193  12.363 -0.0986  0.1955 -0.1670
15478W        W32325  18.566  18.580   1.994 -0.1572  0.0688 -0.4042
15479W        W32326  11.189  16.367   1.822  0.4433  0.3493 -0.3348
15480W        W32327   5.535  12.262   3.856 -0.1187 -0.0319 -0.1416
15481W        W32328   7.393  13.600   4.536 -0.0133  0.4807  0.0062
15482W        W32329   4.735   6.706   2.634 -0.2284  0.0354 -0.0827
15483W        W32330  14.963   2.286   0.338  0.3467  0.0234 -0.0107
15484W        W32331  13.261   5.175   5.736  0.2399  0.0427 -0.0377
15485W        W32332   4.615  11.357  11.179  0.0146 -0.3302  0.0037
15486W        W32333   1.361  13.389  12.075  0.3011  0.2875 -0.1047
15487W        W32334  16.971  13.480   4.929 -0.1306 -0.1938 -0.1874
15488W        W32335  12.978  13.198  12.535  0.0237  0.2150  0.1782
15489W        W32336  16.259   3.302   3.481  0.0721 -0.1925  0.1363
15490W        W32337  16.823   9.941   3.744  0.4128  0.0935  0.0269
15491W        W32338  11.311   8.290   2.800  0.2291  0.0573  0.0728
15492W        W32339   9.082   2.120   1.763 -0.2340 -0.0469  0.1715
15493W        W32340   5.135   4.748  12.499  0.0659  0.2767  0.2122
15494W        W32341  18.331  16.419   2.622 -0.1129  0.0471  0.0891
15495W        W32342   8.191  12.437   3.376  0.0108  0.2652 -0.1713
15496W        W32343  10.981   9.486  14.982  0.3367  0.0932  0.0160
15497W        W32344  16.875  11.332  15.371  0.0049 -0.1958 -0.2398
15498W        W32345   6.532  15.510   3.547 -0.1302  0.3362 -0.2051
15499W        W32346  17.237   2.420  12.248  0.1053 -0.0270 -0.0187
15500W        W32347   1.046   9.411  12.142 -0.2733 -0.0148  0.0515
15501W        W32348  12.886   4.826   3.586  0.3046 -0.3119  0.1621
15502W        W32349   8.615  18.423  10.912 -0.0756  0.0003 -0.1388
15503W        W32350  13.536  17.903   2.165  0.0280  0.1641  0.0220
15504W        W32351   0.572  15.380   3.355  0.2157 -0.3742  0.1008
15505W        W32352   7.700  15.106   2.058  0.0793  0.0273  0.0492
15506W        W32353   8.890   0.897   0.342 -0.5593  0.0050  0.1189
15507W        W32354  11.476  12.616   9.907 -0.0512 -0.3009 -0.1079
15508W        W32355   6.920   7.258  14.832  0.1195 -0.0143  0.0386
15509W        W32356  18.049   4.818   4.366 -0.5512  0.0848 -0.0205
15510W        W32357   8.821  12.184   0.869 -0.0782 -0.2093  0.2562
15511W        W32358   3.054  18.402  11.652  0.5281 -0.2807 -0.1029
15512W        W32359   6.615   7.891   1.250  0.3203  0.1754 -0.3590
15513W        W32360   4.495  10.915  13.261 -0.3000 -0.1912  0.1376
15514W        W32361   3.736   6.310   0.484 -0.3799 -0.1979 -0.1647
15515W        W32362  12.346  16.820  11.521  0.0321  0.1696 -0.0719
15516W        W32363  10.786   3.070  12.993 -0.1064  0.0227 -0.2104
15517W        W32364   1.801   0.577  12.160  0.2377 -0.1161  0.0384
15518W        W32365  12.372  14.277   3.449 -0.0440 -0.1850 -0.0553
15519W        W32366   8.123   7.510  13.475 -0.0301 -0.0878  0.0105
15520W        W32367   3.672  17.090  12.858  0.1599 -0.1079 -0.0238
15521W        W32368  18.185  13.232   1.857 -0.2651  0.2244 -0.1148
15522W        W32369  10.572   6.534  12.296 -0.0634 -0.0385  0.0166
15523W        W32370  15.122  14.045   0.239  0.0040  0.1315  0.0922
15524W        W32371   1.645   6.452   2.980  0.0885  0.0149 -0.0723
15525W        W32372  12.497   6.409   1.096  0.1739 -0.0823  0.2437
15526W        W32373  10.693   7.375  15.086 -0.3321 -0.1719  0.1574
15527W        W32374   3.259   5.092  14.381 -0.1593 -0.0809  0.0396
15528W        W32375   3.604   0.658  14.153  0.0669 -0.1767  0.0196
15529W        W32376   1.310   6.578  15.470  0.0723  0.0217 -0.2189
15530W        W32377  18.762   1.492   0.884  0.0021  0.0850  0.0697
15531W        W32378  14.680   4.421   5.424  0.1568 -0.2401 -0.3614
15532W        W32379  12.542   1.245  14.567 -0.0261  0.0918 -0.2655
15533W        W32380  15.225  10.329   3.110  0.1911  0.0157 -0.0881
15534W        W32381   7.698   8.719  11.714 -0.1271 -0.2188  0.0687
15535W        W32382  12.424   8.473  12.522  0.1952 -0.1151 -0.1238
15536W        W32383   2.263   0.437   2.666 -0.0433 -0.2404  0.0824
15537W        W32384   6.631  10.166  14.720 -0.0043 -0.3603 -0.0627
15538W        W32385   2.574   2.686   1.692  0.1092 -0.1957  0.2467
15539W        W32386   3.944  11.537   4.571 -0.0257  0.0693  0.2170
15540W        W32387  16.785  18.649  15.491  0.0050  0.0601 -0.0028
15541W        W32388  10.008  15.458  15.053  0.0008 -0.0651  0.2433
15542W        W32389  14.558  16.541  12.968 -0.0075  0.1828  0.1707
15543W        W32390   6.020  11.256  14.285  0.0839 -0.0729  0.1998
15544W        W32391   1.495  13.187   2.317  0.2770 -0.0103  0.1672
15545W        W32392  17.498  17.824   5.093  0.0052  0.0822 -0.0920
15546W        W32393   8.845  14.152  13.872  0.0516  0.2360  0.0282
15547W        W32394   2.317   1.566   3.400 -0.1244 -0.3124 -0.1338
15548W        W32395  18.379   7.626  13.224  0.2312  0.1312  0.0313
15549W        W32396  11.263  16.925  12.250 -0.1166  0.2299  0.2179
15550W        W32397   7.043   5.647   1.097 -0.2626 -0.1909  0.1416
15551W        W32398  10.725   1.574   1.866 -0.1514  0.0438 -0.4028
15552W        W32399  11.473  14.653   2.085  0.1927 -0.0841 -0.5601
15553W        W32400   0.409  11.373   3.337  0.0641  0.2788  0.0271
15554W        W32401  16.156   1.916  11.685 -0.1688 -0.0947 -0.1727
15555W        W32402  13.471   3.064  12.463 -0.1782  0.1121  0.0228
15556W        W32403   1.945  16.883   1.881 -0.1163 -0.3079  0.1680
15557W        W32404   3.721   5.692   5.841  0.1228 -0.1939  0.1023
15558W        W32405   1.695  14.792   1.344  0.1139 -0.0101 -0.4292
15559W        W32406   6.868  13.398  12.091  0.0182 -0.3521 -0.1554
15560W        W32407   4.106  13.114   1.321 -0.2589  0.0425  0.2099
15561W        W32408   6.841   6.159  11.665 -0.3191 -0.1033 -0.1574
15562W        W32409   8.188  18.510   3.872  0.1605 -0.0382 -0.1172
15563W        W32410   7.776  16.081  12.820 -0.1256 -0.2280  0.4084
15564W        W32411   8.610   7.158  14.317 -0.0826  0.2239 -0.0502
15565W        W32412  14.511   0.815   4.217 -0.0992  0.0887 -0.2654
15566W        W32413  14.352  14.222   4.382 -0.1228 -0.1604  0.0084
15567W        W32414  10.126   1.230   5.332  0.1406 -0.0966  0.0953
15568W        W32415   8.052  11.944  14.161  0.2835  0.2352 -0.1485
15569W        W32416   3.147  14.066   0.604 -0.2145 -0.2570 -0.2430
15570W        W32417   8.834   4.138   4.186  0.2828 -0.0380 -0.0953
15571W        W32418  18.401  12.665  12.123  0.0536 -0.0081 -0.2571
15572W        W32419   7.785  10.459  11.469  0.0558 -0.0305  0.1918
15573W        W32420  15.566  18.340   0.856  0.1146 -0.2312  0.0021
15574W        W32421  16.965  13.973   2.884 -0.1846  0.0620  0.1013
15575W        W32422  14.877   1.170  12.656 -0.1471  0.2775 -0.0477
15576W        W32423  12.408   1.478  11.349 -0.2091  0.0226  0.0497
15577W        W32424   6.139   3.973   3.483  0.1794  0.0715  0.2514
15578W        W32425   0.940   6.153  11.807 -0.0888 -0.0911  0.0088
15579W        W32426   6.604  17.860  14.890  0.3321  0.0576  0.0662
15580W        W32427  10.946   9.757  15.394  0.0329  0.1338 -0.2211
15581W        W32428   0.621   5.234   4.768 -0.0061  0.0809  0.1082
15582W        W32429  18.717  12.838  13.118  0.0582 -0.1880 -0.0027
15583W        W32430   2.455   0.798   2.967  0.1479  0.3023 -0.4045
15584W        W32431   5.915  14.943  10.969  0.1535  0.2091  0.1595
15585W        W32432   8.114   3.197   0.924 -0.0958 -0.3554 -0.1306
15586W        W32433  15.515  16.620  13.389  0.7471  0.1387  0.1918
15587W        W32434  11.603   5.366   3.661 -0.2299 -0.1715  0.0647
15588W        W32435  15.576  10.114  15.412  0.1520  0.0608  0.1132
15589W        W32436  14.582  14.390   1.400 -0.2273  0.1346 -0.1381
15590W        W32437   7.386  12.878  14.368  0.1393 -0.0614  0.1873
15591W        W32438   0.574  11.565   1.567 -0.0349  0.2465 -0.1577
15592W        W32439   0.121   1.490   2.683  0.0592  0.2413 -0.1958
15593W        W32440  17.088  13.070   5.280 -0.0663  0.0808 -0.2752
15594W        W32441   0.894   8.318  15.331  0.3969  0.2185 -0.0199
15595W        W32442  14.047  16.429   2.081  0.2271  0.1156  0.0743
15596W        W32443   7.672   2.594   5.081  0.0576 -0.0599  0.0537
15597W        W32444  10.654  14.599   2.811 -0.1728 -0.2262 -0.0288
15598W        W32445   5.663   8.826   9.612  0.1549 -0.1970  0.1427
15599W        W32446  18.155  18.467   4.060 -0.0792  0.2046  0.2391
15600W        W32447   2.585   3.747   4.872 -0.0076  0.0772  0.2672
15601W        W32448  18.340   1.378  13.504  0.1278  0.2854 -0.0676
15602W        W32449   5.955  18.324  11.968  0.1979 -0.1028  0.0435
15603W        W32450   4.123   6.952   3.244 -0.1327 -0.3741 -0.0422
15604W        W32451   7.436  16.462   1.901 -0.0433  0.0766  0.0619
15605W        W32452   7.346   3.459   3.384 -0.0118 -0.0048 -0.0920
15606W        W32453   4.984   3.310   0.661  0.0734 -0.0217 -0.0907
15607W        W32454  11.201   9.918  14.918 -0.0647 -0.2452  0.0262
15608W        W32455   0.957  13.204  11.737  0.0175 -0.3887 -0.2911
15609W        W32456  13.462  16.358  13.841 -0.2130  0.2261  0.0453
15610W        W32457  14.023  15.282  11.964 -0.1366 -0.0874 -0.1684
15611W        W32458   3.173  17.748   2.563 -0.0117  0.3397 -0.2106
15612W        W32459   4.824   5.687   0.675 -0.1303 -0.0420 -0.2283
15613W        W32460   0.076   7.971  12.654  0.0818 -0.0197  0.0505
15614W        W32461  15.392   7.188   5.208  0.2403  0.1005  0.1990
15615W        W32462   8.854   0.204  13.500  0.1515  0.1931  0.1340
15616W        W32463   9.712  12.800   4.655 -0.0336 -0.0725  0.1747
15617W        W32464  10.417   2.566  15.441  0.0743 -0.0034 -0.0230
15618W        W32465   2.857   0.850  14.530  0.0553 -0.1489  0.1598
15619W        W32466   9.274   7.702   4.011 -0.0056 -0.0343  0.2376
15620W        W32467   2.910  17.637   1.185 -0.1051  0.2020  0.0778
15621W        W32468   1.626  16.282  15.490 -0.0425 -0.1990  0.1668
15622W        W32469  15.732   8.561  12.819  0.1177 -0.4450  0.1485
15623W        W32470   8.572   9.722  14.618 -0.0234  0.0066 -0.1186
15624W        W32471   6.276  13.563   2.924  0.1673  0.2048 -0.1381
15625W        W32472   2.968   2.110  14.144 -0.0317 -0.2606 -0.1975
15626W        W32473  16.926   2.774  10.872 -0.0060 -0.3420 -0.3377
15627W        W32474  17.012  17.698   1.300 -0.0929  0.2346 -0.0924
15628W        W32475   2.753   3.052   0.998 -0.0731 -0.3174 -0.0149
15629W        W32476  18.748   2.234   0.529 -0.0900  0.1515 -0.0896
15630W        W32477   2.851  15.177   3.584  0.0069 -0.0121 -0.0793
15631W        W32478   5.354   0.564  12.826 -0.1105 -0.1555  0.1598
15632W        W32479   8.536   5.147   3.156  0.3557 -0.1504  0.0934
15633W        W32480   3.591   3.211   2.991 -0.0046 -0.2458 -0.2483
15634W        W32481  17.402   5.155  13.253 -0.1305 -0.2652  0.1520
15635W        W32482  17.335   3.017  11.955 -0.0657  0.3258  0.1076
15636W        W32483  16.264   4.915   2.440 -0.2658  0.1868 -0.1205
15637W        W32484   0.310  11.087  12.549 -0.1576 -0.0648 -0.3353
15638W        W32485   8.858   0.635  13.264 -0.1071 -0.0137 -0.0657
15639W        W32486  12.202  11.860  15.266  0.0567  0.1806  0.2363
15640W        W32487   9.970   8.396  13.468 -0.1011 -0.0794  0.2425
15641W        W32488  18.087   0.390   4.711 -0.0244  0.3181 -0.4228
15642W        W32489  16.976   7.976  13.234 -0.1044 -0.0187 -0.0048
15643W        W32490   9.945   7.313   1.376 -0.0837 -0.1735 -0.0437
15644W        W32491  13.035  16.144  12.843 -0.1701 -0.0812 -0.2354
15645W        W32492   9.348   4.221   4.028 -0.0191 -0.3154 -0.3814
15646W        W32493   7.619  12.769   2.775  0.0505 -0.0993 -0.0760
15647W        W32494   8.520  12.268   2.130 -0.1209 -0.0222 -0.0795
15648W        W32495  15.300   0.173   4.621 -0.0513 -0.0353  0.0634
15649W        W32496  11.643   2.084  12.598 -0.1038 -0.2683 -0.0973
15650W        W32497  16.728  16.595  14.194  0.2757  0.0524  0.1611
15651W        W32498  12.757   5.657   4.587  0.0774 -0.1092  0.4103
15652W        W32499   5.471   8.904   0.677  0.2207 -0.0061  0.1207
15653W        W32500   1.343   4.594  10.840  0.3391  0.0978 -0.0648
15654W        W32501  14.647  18.219   1.246  0.2649 -0.1374 -0.0444
15655W        W32502   9.219  14.629  12.600  0.1256  0.2925  0.1943
15656W        W32503  11.269   5.947   5.210 -0.3820 -0.1447 -0.0093
15657W        W32504   8.924   0.093   1.013 -0.1639 -0.1323 -0.0695
15658W        W32505  18.677  13.321  15.200 -0.4913  0.0635  0.1435
15659W        W32506   3.006  18.416   1.095  0.1105  0.0434 -0.0626
15660W        W32507   2.006  17.081  13.322  0.2293 -0.2050 -0.0456
15661W        W32508   5.316   4.969  14.902 -0.0680 -0.1416  0.1188
15662W        W32509  16.729   5.955   3.661 -0.1245 -0.2434  0.0628
15663W        W32510   7.606  10.956  15.237  0.1913  0.2739 -0.0558
15664W        W32511   2.133  12.991  13.682  0.1212  0.0326  0.0419
15665W        W32512  14.762  12.546   2.749 -0.2923  0.1447  0.1784
15666W        W32513  11.678   5.579   0.148 -0.0279 -0.0001  0.0707
15667W        W32514  16.445   4.180  14.583 -0.1753  0.2322 -0.0102
15668W        W32515   8.058  18.571  11.600  0.1273 -0.0624  0.0857
15669W        W32516  10.715  14.970  13.477  0.0297  0.0540 -0.1399
15670W        W32517  15.360   3.085   4.274  0.1720 -0.0284 -0.2114
15671W        W32518  15.833  15.134  11.632 -0.1657 -0.1571 -0.0958
15672W        W32519   4.768   4.480   4.654 -0.1395 -0.0734  0.0017
15673W        W32520  12.224  11.039   3.311 -0.1826  0.1415  0.0152
15674W        W32521   5.948  12.512   1.111  0.1371 -0.0729  0.1626
15675W        W32522   3.263   0.240   4.232  0.1375 -0.1291 -0.0170
15676W        W32523   3.051  14.300   5.152  0.1532 -0.2404 -0.3425
15677W        W32524   8.370  12.082  10.740  0.0374 -0.0108  0.1121
15678W        W32525  11.904   2.498  12.562  0.2185  0.0432  0.0189
15679W        W32526   8.571  13.442  11.543  0.2348 -0.1738  0.2845
15680W        W32527   0.037   9.832   0.541 -0.0499  0.0309 -0.1014
15681W        W32528   7.880   8.675   1.292  0.0306 -0.1381  0.2100
15682W        W32529   1.816  11.112  12.369  0.2074  0.2540  0.1097
15683W        W32530  10.168  12.730   0.526 -0.1227  0.0422  0.3408
15684W        W32531  14.752  16.873   0.358  0.0379  0.0588 -0.0347
15685W        W32532   6.818  16.872  13.196 -0.0239 -0.0590  0.1999
15686W        W32533   3.599   8.262  12.904 -0.1352 -0.2608  0.0703
15687W        W32534   6.439  17.718  10.585 -0.1087 -0.1750 -0.4084
15688W        W32535   3.975   5.392   0.665 -0.1137  0.1771 -0.1969
15689W        W32536  10.787  15.015   3.326 -0.1702  0.2882 -0.2648
15690W        W32537   3.098   5.172  13.055 -0.0172  0.0037 -0.1276
15691W        W32538   7.909   2.957  14.700 -0.1657 -0.0078 -0.0651
15692W        W32539   0.883   6.082  13.833  0.1400 -0.1217  0.1284
15693W        W32540   4.356   0.666   3.364  0.1444 -0.2329  0.0034
15694W        W32541   8.706  15.129   1.118 -0.0866  0.0730  0.1985
15695W        W32542  17.310  12.814  14.204  0.0939 -0.0324  0.0459
15696W        W32543   2.640  11.130  14.715  0.1962 -0.0886 -0.1211
15697W        W32544   7.735   8.178  13.983  0.1078 -0.0652 -0.2723
15698W        W32545   0.499  14.895  11.561  0.2693 -0.1622 -0.1226
15699W        W32546   0.050   6.521   5.645  0.4394 -0.0426  0.1571
15700W        W32547  18.268   0.120   0.947  0.1670 -0.0620 -0.1347
15701W        W32548  18.135   9.551  14.357  0.1688  0.2202  0.0531
15702W        W32549   6.995   3.060   4.875  0.1221  0.2001  0.0344
15703W        W32550   6.696   4.307   3.697  0.2717  0.0054 -0.1192
15704W        W32551  17.026   5.674   4.606 -0.1832 -0.2147  0.1214
15705W        W32552   7.816  18.562   0.269  0.1511  0.0775 -0.1989
15706W        W32553   6.235  12.374  11.604 -0.0766  0.2392 -0.1719
15707W        W32554  16.314   4.439  11.316  0.1727 -0.2150  0.2603
15708W        W32555  16.763   5.422   6.410 -0.1234  0.3355  0.0879
15709W        W32556  17.044  10.578   0.433 -0.1902 -0.1030  0.1650
15710W        W32557  12.584   9.456  14.633 -0.0028 -0.0275 -0.1143
15711W        W32558   5.824  17.748  13.544  0.0219 -0.0551  0.2350
15712W        W32559   0.513   0.335   0.332 -0.1188  0.0066 -0.2766
15713W        W32560  15.090   4.292  11.885 -0.1891 -0.0617  0.0147
15714W        W32561  18.533  17.682   3.038  0.1567 -0.0157  0.0101
15715W        W32562  14.738   1.212   1.245 -0.0811 -0.0027  0.1272
15716W        W32563  17.975   4.048  13.911 -0.2725 -0.2320 -0.1033
15717W        W32564   3.114  16.619   3.517 -0.3004 -0.0244  0.0874
15718W        W32565  11.460  17.266   0.723  0.0952 -0.5624  0.1110
15719W        W32566  16.884   3.730   1.181 -0.1584  0.1681 -0.1260
15720W        W32567  15.912   2.492   1.399  0.1555  0.3337  0.2068
15721W        W32568  12.287  15.120   3.633  0.0472 -0.1277  0.0269
15722W        W32569   4.114  18.469   0.064  0.0773  0.3818  0.0873
15723W        W32570  15.486  11.945  13.085 -0.0667 -0.2691  0.0017
15724W        W32571  14.533   9.274   3.286 -0.0373  0.1548 -0.0757
15725W        W32572  12.877   8.137  14.738  0.1338  0.0151 -0.0821
15726W        W32573  17.775   0.001  15.453  0.2063  0.2328 -0.0424
15727W        W32574   1.545  17.300   1.075  0.3216  0.0805  0.0825
15728W        W32575   0.618  16.705  12.669 -0.0501  0.1233 -0.0585
15729W        W32576  17.645   8.474  14.688 -0.1814 -0.2701  0.2211
15730W        W32577  11.393  17.781   4.282  0.0646  0.1642  0.1783
15731W        W32578   0.804   1.439   2.655 -0.3121 -0.2099 -0.1256
15732W        W32579   2.425  18.464  10.287 -0.2134 -0.3379 -0.0222
15733W        W32580  12.656   0.268   1.225  0.1053 -0.0649 -0.0033
15734W        W32581   2.641   8.181   2.217 -0.1995 -0.1279  0.2265
15735W        W32582   0.752   8.484   5.098  0.2475  0.3993  0.2765
15736W        W32583  18.196   2.474   4.597  0.1462  0.1168  0.1057
15737W        W32584  17.944  18.039  14.052 -0.0922  0.0419  0.0396
15738W        W32585  12.281   4.949   3.254  0.2982  0.0794 -0.3077
15739W        W32586  11.237  13.823  11.459  0.0343  0.2489  0.0557
15740W        W32587  13.256   2.038  13.889  0.3285  0.0016  0.0938
15741W        W32588   5.705   4.217  11.475  0.0622 -0.1152 -0.1492
15742W        W32589  15.566   8.819  14.853 -0.3198 -0.1906  0.1593
15743W        W32590   9.612   7.047  13.130 -0.1382 -0.2838  0.0446
15744W        W32591  12.027  15.337  11.275 -0.1542 -0.1055 -0.1263
15745W        W32592   8.508  18.591  11.351 -0.1492  0.3298 -0.0616
15746W        W32593  12.031  14.644  14.947  0.0109 -0.0913 -0.2729
15747W        W32594  16.491   3.860  12.758  0.0329 -0.1651 -0.4155
15748W        W32595   7.282  18.165   3.706 -0.4255 -0.1113  0.0180
15749W        W32596   8.999   0.145  14.778 -0.2525 -0.0810 -0.1495
15750W        W32597   3.480   3.704   3.082  0.2946 -0.1183 -0.0822
15751W        W32598  17.043  13.224  13.245 -0.2096  0.0850  0.2508
15752W        W32599  16.631   3.051   0.188 -0.0548  0.2213  0.1813
15753W        W32600  12.273   1.534   0.732 -0.0326 -0.0217 -0.1056
15754W        W32601  14.656  10.764   4.910  0.1713  0.3587  0.2035
15755W        W32602   2.826   2.033   1.287  0.0400 -0.0393  0.1012
15756W        W32603   7.286  17.754  12.340  0.2359  0.1784 -0.0256
15757W        W32604  14.235  16.595  14.668  0.2158 -0.2502 -0.1795
15758W        W32605   1.309   5.602   4.103 -0.1168  0.2624  0.0713
15759W        W32606   8.831   6.108   3.030  0.2937  0.3173 -0.0731
15760W        W32607   8.358  18.143   0.647 -0.0664  0.4434  0.0875
15761W        W32608  16.797  16.822  13.726 -0.0693 -0.1430 -0.1962
15762W        W32609   6.483   9.983   2.350  0.2372  0.1463  0.0779
15763W        W32610   7.711   5.748   2.438 -0.3218  0.0986 -0.2579
15764W        W32611  17.348  11.099   1.013 -0.1602 -0.1382  0.0516
15765W        W32612   9.814  15.437  11.440 -0.1823  0.0830 -0.0180
15766W        W32613  11.541   7.569   5.358  0.0999  0.1366 -0.1875
15767W        W32614   7.120   7.724  12.413 -0.2222 -0.1560  0.3067
15768W        W32615  13.923   4.700   3.079 -0.0691 -0.3679  0.0038
15769W        W32616   9.060   0.310  11.461  0.1354  0.2035  0.0416
15770W        W32617   4.913  10.390   1.851  0.2810 -0.1061 -0.3881
15771W        W32618   4.738   4.314   1.304 -0.0911  0.2495 -0.1713
15772W        W32619   0.786   9.130   1.940 -0.0385  0.0987  0.2501
15773W        W32620   2.228  10.044  11.715 -0.0895 -0.1742 -0.0516
15774W        W32621   7.954   1.168   2.557 -0.1243  0.1421  0.2286
15775W        W32622  18.762   6.324   1.309 -0.2002 -0.1835 -0.1074
15776W        W32623   1.349  16.506   0.772 -0.0775 -0.0236 -0.0400
15777W        W32624  11.078  15.780  13.790 -0.3247  0.1345 -0.0223
15778W        W32625  13.218  12.825   0.759 -0.0088  0.1310 -0.0699
15779W        W32626   8.452  10.823   3.297 -0.1301  0.2003 -0.1323
15780W        W32627  12.708  12.948   0.775  0.1296 -0.1509  0.0819
15781W        W32628   9.018   7.477  15.334 -0.0118  0.1546 -0.0375
15782W        W32629  16.705   7.819   0.231  0.1562 -0.2581 -0.0779
15783W        W32630  15.015   4.657  12.921  0.0376  0.1439  0.0086
15784W        W32631   5.192   6.859  14.650  0.0451  0.3402 -0.0141
15785W        W32632  11.191   5.304   2.353  0.2862  0.2037 -0.0811
15786W        W32633   4.991  18.809   0.875  0.5341 -0.3176 -0.0374
15787W        W32634  10.759   9.467  11.492 -0.1680 -0.0171  0.3868
15788W        W32635  13.524   3.945  12.998  0.0863 -0.0503  0.1127
15789W        W32636   0.629   7.869  13.880  0.2091  0.0093  0.1077
15790W        W32637   8.623  15.039   4.231 -0.1389  0.0643  0.0017
15791W        W32638  18.633  11.054  14.333  0.1406  0.1739 -0.3593
15792W        W32639  17.046  10.371  12.740  0.2221 -0.1317 -0.3946
15793W        W32640   6.454   8.364  10.988 -0.1167 -0.2893  0.1414
15794W        W32641   5.492   0.692  12.339  0.0188  0.4007 -0.0174
15795W        W32642   7.270   4.495   2.436 -0.2008 -0.2706 -0.2367
15796W        W32643   1.202   8.495  12.161  0.0130  0.0754 -0.0033
15797W        W32644  12.347  17.153   3.623  0.0971  0.2712  0.1556
15798W        W32645  18.566  17.231  13.893 -0.3023 -0.1549 -0.2361
15799W        W32646  12.349   6.172  11.142 -0.3069 -0.2152 -0.0602
15800W        W32647   5.668  12.291   2.748 -0.1144 -0.3059 -0.0137
15801W        W32648  10.980   7.524   9.885 -0.4289 -0.0830  0.1549
15802W        W32649  12.480  15.041   4.707  0.0288  0.0611  0.1446
15803W        W32650  15.429   5.957  14.381  0.1034  0.1114 -0.3589
15804W        W32651  18.252   5.030   0.018 -0.3656  0.0023 -0.1260
15805W        W32652   8.254   3.850  14.840  0.1104  0.0405  0.0046
15806W        W32653  17.228  10.394  11.787 -0.1924  0.1646  0.0276
15807W        W32654   2.429  12.402  13.464 -0.0002  0.0705  0.0800
15808W        W32655  18.343   1.385   3.490  0.0558  0.0513 -0.0649
15809W        W32656   7.135  17.429  13.283  0.0353 -0.1496  0.1572
15810W        W32657  11.858  14.299  15.274  0.1394  0.0992  0.2511
15811W        W32658  15.634  12.849  12.595 -0.0036  0.2698 -0.1653
15812W        W32659  10.818   2.947   1.097 -0.1756  0.0020 -0.3371
15813W        W32660   5.256   6.311  14.613  0.0379 -0.2144 -0.3004
15814W        W32661   9.413  13.708  10.229  0.0799 -0.0752  0.0377
15815W        W32662  13.435  15.012  13.120 -0.0456 -0.2501 -0.1479
15816W        W32663  10.005  16.848  12.695 -0.2700 -0.0514 -0.0442
15817W        W32664   5.791   9.510  12.971  0.0544  0.1624  0.3593
15818W        W32665   5.599  11.263  13.155 -0.6476 -0.2958  0.0675
15819W        W32666  12.005   3.564  11.473  0.2373 -0.0357 -0.1605
15820W        W32667   9.440   5.251  13.262  0.0675  0.2650 -0.0297
15821W        W32668  11.589   4.230  12.136  0.1357  0.0377 -0.0909
15822W        W32669  14.857  18.361   0.316 -0.4178  0.0524  0.0636
15823W        W32670  14.120   5.040  10.751 -0.2309 -0.1723  0.0995
15824W        W32671  16.494  18.488   1.174  0.1979 -0.0961 -0.0777
15825W        W32672  10.809   6.288   6.139  0.0892  0.1545  0.1700
15826W        W32673  14.162  10.580   5.050 -0.2156 -0.0149 -0.2279
15827W        W32674   9.057   1.436   3.824 -0.3031 -0.1361 -0.0002
15828W        W32675  10.310  11.281   3.894 -0.3695 -0.1120 -0.2466
15829W        W32676  18.572   9.618  10.882  0.0255  0.0769  0.3558
15830W        W32677   8.853   1.148  13.146  0.1769  0.0006  0.1295
15831W        W32678   7.834   6.634   5.588 -0.1239  0.2884  0.1096
15832W        W32679  17.065   0.476  14.349  0.2675  0.0943  0.0667
15833W        W32680   4.011  15.710   1.722 -0.3872  0.3523  0.1639
15834W        W32681  17.064   3.901   4.819 -0.0737 -0.0571  0.0280
15835W        W32682   3.757   0.076   0.403 -0.3062 -0.1964  0.2738
15836W        W32683  17.501  11.623   3.004  0.1185 -0.0508  0.1696
15837W        W32684  12.457   3.409  12.398 -0.2134  0.1032 -0.0760
15838W        W32685  18.410   5.996  10.997  0.2377 -0.3365 -0.3025
15839W        W32686  12.038  13.771  10.791  0.2748  0.0249 -0.2249
15840W        W32687  16.996  13.281  12.710 -0.2912 -0.2631  0.2227
15841W        W32688  18.288   1.999  14.424 -0.1189 -0.0658 -0.0726
15842W        W32689  10.375   9.244   3.506  0.0665  0.0603 -0.3533
15843W        W32690  13.929  11.322  15.347 -0.2538  0.0754  0.1373
15844W        W32691  17.439  11.160   1.560  0.0092  0.1344 -0.1360
15845W        W32692   9.353   8.965  15.459 -0.2765 -0.1388 -0.1400
15846W        W32693  17.822   2.539   3.764 -0.1436 -0.3650 -0.0976
15847W        W32694   9.030   3.486   2.833  0.2962 -0.1149  0.0608
15848W        W32695  13.486  16.737  12.142  0.0407 -0.0623 -0.1381
15849W        W32696  10.119   4.780  13.842 -0.1284 -0.0474 -0.1607
15850W        W32697  13.952   4.823  11.523  0.1889 -0.1500 -0.0878
15851W        W32698  17.947   9.339   3.110 -0.0332 -0.0763  0.3175
15852W        W32699  17.635   7.852  13.743 -0.0433  0.1735 -0.1523
15853W        W32700  18.801   4.706  13.572 -0.0222  0.1208 -0.1037
15854W        W32701  15.453   1.973   2.708 -0.3232 -0.0578  0.1388
15855W        W32702   9.835   0.779   1.837 -0.0003 -0.2231 -0.2564
15856W        W32703   0.350  16.145  13.403 -0.1109 -0.1222 -0.0838
15857W        W32704  15.171   2.393   1.057 -0.1355 -0.1816 -0.0166
15858W        W32705   1.303   9.190   4.324  0.0477  0.2611  0.1955
15859W        W32706   9.919  11.189  13.930 -0.2197 -0.0111  0.3688
15860W        W32707   6.107  12.583  13.061  0.1185  0.0065  0.0114
15861W        W32708   4.341   9.241  13.248 -0.0085  0.0648  0.0176
15862W        W32709  18.704   5.232  12.795 -0.2000  0.3140  0.0195
15863W        W32710  18.836  11.074   0.162 -0.0224 -0.0090  0.1655
15864W        W32711  16.180  13.652   4.001  0.0606  0.1925  0.1210
15865W        W32712   4.328   3.105   0.555 -0.1679  0.2024 -0.0772
15866W        W32713   5.574   7.321  14.817  0.1227 -0.0026  0.0156
15867W        W32714   1.313   3.822  13.300 -0.0401 -0.1622 -0.4000
15868W        W32715   9.907  15.534   0.444  0.3117  0.2648 -0.2211
15869W        W32716  13.977  14.706  13.256 -0.0637 -0.1160 -0.1006
15870W        W32717   5.450  14.222  11.487 -0.0944 -0.1674  0.0468
15871W        W32718   2.564   3.361  14.919  0.1033 -0.0398 -0.0740
15872W        W32719   5.905  18.405   4.109  0.0510 -0.2853  0.0712
15873W        W32720   3.298  18.213  12.101  0.0834  0.3672 -0.2791
15874W        W32721   9.739   8.605  14.420  0.3244 -0.0023  0.4105
15875W        W32722  12.361   5.851   3.727 -0.2127  0.1921 -0.0385
15876W        W32723  17.170   8.879   1.648  0.2830 -0.2596 -0.0266
15877W        W32724  11.533   4.224  12.646  0.0820  0.0766  0.0114
15878W        W32725  12.841  15.725   3.362 -0.0254 -0.1722  0.0181
15879W        W32726   0.357  15.651   5.326 -0.2147 -0.1469 -0.0028
15880W        W32727   4.914  14.077   1.725 -0.0585  0.1702  0.2908
15881W        W32728  15.165   0.125   1.815  0.0943  0.0088  0.0185
15882W        W32729   6.706   4.151   1.820 -0.0900 -0.0788  0.0692
15883W        W32730   4.211   5.941  13.293  0.0723 -0.0200 -0.0910
15884W        W32731  15.622  15.492  14.167 -0.1805  0.0512  0.4417
15885W        W32732  10.843  18.041  14.650 -0.3287 -0.2584 -0.0110
15886W        W32733   8.840   2.191   3.167  0.3690  0.1231 -0.2864
15887W        W32734  12.371   2.429  12.582 -0.1091  0.0904  0.0603
15888W        W32735   1.855   6.508   4.119 -0.0989  0.0086  0.2021
15889W        W32736  17.622  15.668  11.153  0.0561  0.0980  0.0520
15890W        W32737   0.558  11.483  14.819  0.1989 -0.1526  0.0699
15891W        W32738  10.994  11.424  11.338  0.0175  0.1351  0.2071
15892W        W32739   9.473   8.580   1.648 -0.1148 -0.0152 -0.0361
15893W        W32740  17.565   2.861   3.990  0.0162  0.0907 -0.3279
15894W        W32741  12.048  13.453  11.266  0.0309 -0.0197 -0.2580
15895W        W32742   6.996   7.733   0.958  0.0448 -0.0691 -0.0844
15896W        W32743  17.404  17.816  12.322  0.0010 -0.0726  0.1476
15897W        W32744  13.356  17.072   0.895  0.0218 -0.1476 -0.0337
15898W        W32745  10.213  15.208   5.687  0.4508  0.0017 -0.1673
15899W        W32746   6.061   3.250   0.484 -0.1593  0.1681 -0.0087
15900W        W32747  18.524  17.567   3.954  0.1125 -0.1880  0.0956
15901W        W32748  14.176  13.263  12.062 -0.2526 -0.0577 -0.0604
15902W        W32749  17.030  13.393  15.487  0.0229  0.1901  0.1225
15903W        W32750  13.627  17.268  14.709  0.2016 -0.1382 -0.2689
15904W        W32751   0.826   3.699  13.359 -0.0056 -0.1616 -0.0217
15905W        W32752   4.025  18.439   3.496 -0.0906  0.0804  0.1865
15906W        W32753   9.035  13.657   3.287  0.1194 -0.1896 -0.1351
15907W        W32754   2.803   0.364  12.138 -0.2213  0.0005 -0.1090
15908W        W32755  11.535   3.455   4.808 -0.0940 -0.1221  0.0610
15909W        W32756   2.141  12.200   3.020  0.2678  0.4844 -0.0834
15910W        W32757  11.209   1.532   4.580  0.3481  0.1603  0.3162
15911W        W32758   1.375   4.639   4.735 -0.1409 -0.1515  0.0715
15912W        W32759  11.242  13.436   1.727  0.1611  0.2347  0.0968
15913W        W32760  11.241   2.106  11.866 -0.0660  0.1705 -0.1826
15914W        W32761   7.268  14.750   5.326  0.0983 -0.0441 -0.1427
15915W        W32762   3.284  14.710  12.892 -0.2679 -0.3387  0.1665
15916W        W32763  18.667  16.210  14.062 -0.1292  0.1031 -0.1153
15917W        W32764  10.630   5.343   1.204 -0.0898  0.0116 -0.2252
15918W        W32765   2.355  15.871   1.249  0.3845 -0.0058 -0.0818
15919W        W32766  15.202  17.108  12.790  0.0332  0.1713  0.2369
15920W        W32767   6.089  13.465  10.487  0.2691 -0.2966 -0.2621
15921W        W32768  12.240   8.036  12.059 -0.0815 -0.2560 -0.2713
15922W        W32769  11.104  18.194  13.825  0.0795 -0.0229 -0.0403
15923W        W32770  13.549   1.066  12.237  0.1887 -0.6407 -0.3892
15924W        W32771   6.434   7.832  12.285 -0.1323 -0.0409  0.1020
15925W        W32772   7.105   5.142  12.345  0.0800 -0.3572  0.0291
15926W        W32773   3.323   3.440   2.609  0.3982 -0.0774  0.1261
15927W        W32774   8.344  13.373  12.868 -0.2799 -0.0810 -0.0004
15928W        W32775  17.919   0.369   4.114 -0.1656  0.1689 -0.0558
15929W        W32776   4.947   1.826   0.282  0.0813 -0.2339 -0.0961
15930W        W32777  15.456   4.774   5.275  0.0485 -0.1849 -0.1184
15931W        W32778   2.947   7.072   0.202  0.0983 -0.3249  0.1967
15932W        W32779  17.657   8.257   4.973  0.0655  0.3518  0.0620
15933W        W32780  15.440  12.546   2.412  0.3899 -0.0093  0.0617
15934W        W32781   0.034   0.317   0.066  0.2725 -0.0329 -0.1011
15935W        W32782  15.258   1.706  11.570 -0.1378  0.0283  0.0500
15936W        W32783   4.091   3.843   4.884 -0.0075  0.1911 -0.0992
15937W        W32784   3.337   2.764  14.439 -0.2601 -0.1828 -0.2576
15938W        W32785  11.181  10.763   2.803 -0.0317  0.0898 -0.1873
15939W        W32786  18.491   5.779  14.623 -0.0194  0.0322  0.0776
15940W        W32787  11.345  11.757  12.250  0.1297 -0.0273 -0.0138
15941W        W32788   0.785   7.978   1.371  0.3077  0.1856  0.4822
15942W        W32789   4.804   2.677  11.634 -0.1087  0.1008 -0.1226
15943W        W32790   4.901  14.250  15.449  0.1238  0.2415 -0.2499
15944W        W32791  16.271   1.843   2.888 -0.2167 -0.0910  0.0912
15945W        W32792   2.955   7.316  11.434 -0.1666 -0.0813 -0.2381
15946W        W32793   4.436   8.464   1.276 -0.2153  0.2270  0.0962
15947W        W32794   2.734   3.444  13.633  0.1336  0.1829 -0.2867
15948W        W32795   2.251  10.837   2.965  0.2916  0.1395  0.2420
15949W        W32796  14.906  10.696  11.933  0.1596 -0.0946  0.0864
15950W        W32797   4.778  18.809   0.382  0.2411 -0.2846  0.1068
15951W        W32798   8.248   9.872  12.460 -0.0535 -0.2907 -0.0309
15952W        W32799   6.290  18.628  11.535  0.0527  0.0383  0.1238
15953W        W32800   6.087  18.083  10.719 -0.0521 -0.2939 -0.0948
15954W        W32801  12.084  13.299  15.236  0.2965  0.3762 -0.3276
15955W        W32802   5.661   7.489  14.283  0.3008 -0.4979 -0.2391
15956W        W32803   3.718  11.702   2.614  0.2103 -0.0731  0.0844
15957W        W32804   7.078  14.564  11.221  0.1217 -0.1036 -0.2538
15958W        W32805  11.784  11.018   4.070  0.0157  0.1620 -0.2896
15959W        W32806   4.766   8.214  10.351 -0.2425 -0.2470 -0.1953
15960W        W32807  15.020  11.678   5.286 -0.1009 -0.3887  0.0777
15961W        W32808  11.941  13.247  11.755  0.0204  0.0750  0.0217
15962W        W32809   8.262  11.225  12.194  0.1584 -0.0848  0.0706
15963W        W32810  15.814   0.993  11.476 -0.0507 -0.0077 -0.0327
15964W        W32811  18.806   6.512  13.839 -0.1798  0.3048  0.2214
15965W        W32812  18.320   1.113  13.962  0.2702 -0.2518  0.0884
15966W        W32813   4.884  13.064  15.038 -0.3610 -0.0357 -0.3141
15967W        W32814   8.232  16.878  13.488  0.0960 -0.2048  0.0060
15968W        W32815  15.541   6.165   9.754 -0.0111 -0.0387  0.0629
15969W        W32816  17.894   7.369  11.311 -0.2931  0.0286 -0.0776
15970W        W32817   9.228  12.986  12.736 -0.0634 -0.1171  0.2829
15971W        W32818   2.312   5.884   2.287  0.0575  0.1756 -0.0032
15972W        W32819  17.796   5.184  12.434 -0.1844 -0.3179 -0.0599
15973W        W32820  12.527   5.376   4.173  0.0637  0.3462  0.0406
15974W        W32821   4.749   6.746  13.685 -0.2982 -0.1058  0.1347
15975W        W32822  14.737   9.984   0.619 -0.2137 -0.1761 -0.1895
15976W        W32823   4.750   3.205   4.731 -0.1436  0.3573  0.0600
15977W        W32824  16.629  16.646   2.898 -0.1189 -0.1173  0.1673
15978W        W32825   7.786  17.872   1.974 -0.0272  0.1199  0.4374
15979W        W32826   0.930   0.871  11.019 -0.0461  0.0744  0.4513
15980W        W32827  15.928  14.051   0.969 -0.4108 -0.1559  0.3709
15981W        W32828   6.089   4.657   0.694 -0.1202  0.2425 -0.0857
15982W        W32829   5.180  17.562  14.402  0.0564  0.1062  0.2260
15983W        W32830  12.937  10.559  13.036 -0.1567  0.0990  0.0574
15984W        W32831  16.184  17.399   4.974  0.1978  0.0561  0.0118
15985W        W32832   2.839   8.636   2.283  0.0213 -0.0611 -0.1071
15986W        W32833  11.832   6.050  13.844 -0.0987  0.2219  0.0020
15987W        W32834   8.416  14.764  13.227  0.1638  0.3076 -0.2136
15988W        W32835   4.383   5.475   0.910 -0.1710  0.0724 -0.4048
15989W        W32836  16.242   1.130   1.585 -0.0526  0.1110 -0.3932
15990W        W32837   9.495  15.659  12.841 -0.0498  0.1469  0.2654
15991W        W32838  13.969  18.548   1.221  0.0276 -0.1643 -0.5548
15992W        W32839   3.644  11.571  13.799 -0.0112  0.1250 -0.0511
15993W        W32840  10.043   6.654   2.765 -0.1514  0.0460  0.1840
15994W        W32841  18.189  11.817   0.629 -0.1710 -0.1627 -0.0504
15995W        W32842  13.895   0.510   4.787 -0.0577 -0.3764  0.0214
15996W        W32843  12.261  15.746   3.134  0.0491  0.3300  0.1623
15997W        W32844  13.114   0.813  12.399  0.0605  0.0143  0.0893
15998W        W32845   0.154  17.013   3.093 -0.0021 -0.1833  0.1225
15999W        W32846  12.082   2.699   4.251 -0.2068  0.0774  0.4591
16000W        W32847   3.499   4.313   1.442  0.0992 -0.1648 -0.1419
16001W        W32848  13.605  15.297   1.535  0.0572 -0.0341 -0.2147
16002W        W32849   4.730  12.016   3.389  0.0690  0.2366 -0.2847
16003W        W32850  17.623   4.153   2.515  0.0816 -0.0675  0.0489
16004W        W32851   2.131   7.534   4.136 -0.2838 -0.0110  0.0091
16005W        W32852   4.421   9.641  13.517 -0.0625 -0.1397 -0.2483
16006W        W32853   2.785   1.820  12.616  0.0566 -0.1203  0.0675
16007W        W32854  10.270  17.501  11.285  0.0179  0.0001 -0.1913
16008W        W32855  11.361   4.826   2.457  0.1314  0.1822 -0.1532
16009W        W32856   3.170   5.424  14.785  0.1159 -0.0785  0.0233
16010W        W32857  11.721   2.695   0.220  0.0547 -0.0246 -0.2035
16011W        W32858  16.131   0.978  12.909  0.0197 -0.5231  0.2510
16012W        W32859   6.594   1.109   0.287 -0.0532  0.2582 -0.0781
16013W        W32860  11.376   9.442   4.847 -0.0969  0.2179  0.1675
16014W        W32861  17.891   4.042  15.308  0.2020  0.4464 -0.2267
16015W        W32862  14.485   1.257   9.954  0.0156  0.0686 -0.0765
16016W        W32863   9.565   0.772  15.057 -0.1168 -0.1963 -0.1633
16017W        W32864   2.881   6.784   4.078 -0.0845 -0.2716 -0.2402
16018W        W32865  17.038   4.702  12.916  0.0286 -0.2810 -0.5035
16019W        W32866   1.597  14.275  14.073  0.1651 -0.2129 -0.3165
16020W        W32867   6.930  10.201  11.421  0.0323  0.0351  0.0597
16021W        W32868  17.554   5.941   1.349  0.3618  0.2425 -0.2086
16022W        W32869   9.344   2.544   0.820 -0.0904 -0.2065  0.1975
16023W        W32870  12.820  11.920   5.575 -0.2117 -0.1952  0.0607
16024W        W32871   1.714   7.914   4.025  0.1193 -0.0810 -0.3995
16025W        W32872  12.535  17.907  13.945 -0.2080 -0.0413  0.0081
16026W        W32873   7.888  14.470   3.245  0.0182  0.0840 -0.1874
16027W        W32874   6.836  18.726   2.301  0.2481 -0.0860 -0.2003
16028W        W32875   1.469   5.206   4.596 -0.0393  0.0363  0.2190
16029W        W32876   6.596   5.586  10.969 -0.0839  0.1846  0.0421
16030W        W32877   4.679   9.820  10.834 -0.1645 -0.0903  0.2439
16031W        W32878  15.791   6.135  14.683 -0.4133  0.2355  0.0731
16032W        W32879  15.286   4.326   5.989  0.1363 -0.1222  0.1609
16033W        W32880   5.267  13.990  12.795 -0.3956  0.1780 -0.3123
16034W        W32881   4.560  18.639  11.752 -0.0593 -0.2176  0.1600
16035W        W32882   6.335   9.115   1.307 -0.3180  0.4010 -0.1857
16036W        W32883   1.622   6.322   0.235  0.0469  0.1840 -0.1968
16037W        W32884   1.108   4.800  13.774 -0.0622  0.0361 -0.1112
16038W        W32885   5.094   4.747   2.800  0.2645 -0.0871 -0.0014
16039W        W32886  10.608  12.493  13.764 -0.2491 -0.1375 -0.2005
16040W        W32887  14.428   8.326   5.826 -0.0708  0.0713 -0.2264
16041W        W32888   8.271  15.555  14.335 -0.2531 -0.2129  0.2129
16042W        W32889  10.258   8.310   1.185 -0.2996  0.0111  0.1100
16043W        W32890   1.913   7.884   3.123  0.0574  0.1452  0.1378
16044W        W32891   3.440  17.526  14.035  0.2993  0.1459 -0.0001
16045W        W32892  12.408   2.356  15.499 -0.1037  0.0123  0.2716
16046W        W32893   1.792   5.924   2.215  0.1407 -0.0508 -0.0896
16047W        W32894   1.871   6.904   1.207 -0.0573  0.2948 -0.1356
16048W        W32895  10.572  15.976  11.443  0.1127 -0.2169 -0.0781
16049W        W32896  15.190   7.708   3.096 -0.2613  0.0632  0.1247
16050W        W32897   6.139   4.928  11.934  0.0001  0.2174 -0.0014
16051W        W32898   1.343  14.537   0.311  0.0369  0.1420  0.1274
16052W        W32899  14.303  17.425   1.777  0.0270  0.3390 -0.0366
16053W        W32900   4.008  13.715  10.437 -0.1137 -0.2565  0.1093
16054W        W32901  14.335  17.410  13.002  0.1292  0.0416  0.3332
16055W        W32902  15.679   2.117  14.143 -0.4058  0.1267  0.3185
16056W        W32903   1.112   5.589  14.387 -0.3803  0.1683  0.0136
16057W        W32904   3.083  14.579   0.638 -0.1488  0.1564  0.0711
16058W        W32905  17.638  15.743  13.115 -0.2985 -0.0129 -0.0796
16059W        W32906  18.084   3.714   5.214  0.2418 -0.3911 -0.0289
16060W        W32907   5.472  16.020   2.614  0.0523  0.0712  0.0448
16061W        W32908  16.183  13.225  12.878  0.1496  0.1695  0.2901
16062W        W32909   8.249  15.288   3.171  0.1464 -0.0565 -0.1520
16063W        W32910  17.059   1.192   3.759 -0.1717  0.1435 -0.0993
16064W        W32911  17.920   8.519  12.547  0.1858  0.0528  0.3919
16065W        W32912  12.602   1.419   5.722  0.2567 -0.2338  0.0320
16066W        W32913  14.817  18.736  12.656 -0.1247  0.2809  0.0708
16067W        W32914   1.516   8.391   3.180 -0.0286 -0.0772 -0.3378
16068W        W32915   0.843  18.047  14.460  0.0109 -0.2310  0.2793
16069W        W32916   6.742   0.390   3.182 -0.2150 -0.0237 -0.0045
16070W        W32917   8.141  15.927  14.776 -0.0565  0.2028  0.1387
16071W        W32918  18.639   9.719  13.387 -0.0599 -0.1050 -0.1565
16072W        W32919  17.918   5.544  12.824 -0.2622 -0.0956  0.3247
16073W        W32920   9.830  11.725  13.914  0.0203 -0.0162 -0.0026
16074W        W32921   8.423   1.168   5.316 -0.0279  0.0412  0.0820
16075W        W32922   4.081   4.925   0.514 -0.4175  0.3807  0.2299
16076W        W32923  17.614  14.292   4.743  0.1529  0.3647 -0.3042
16077W        W32924  16.530  15.687  11.969  0.0419 -0.2818 -0.0946
16078W        W32925  13.382   3.884  12.045 -0.0711  0.3750 -0.2416
16079W        W32926  11.303   3.929  10.947  0.1095 -0.1878  0.0714
16080W        W32927  14.790   4.574  15.391  0.2260  0.0171  0.2614
16081W        W32928  12.525  14.128  11.678  0.0380  0.1436 -0.1776
16082W        W32929  16.115   0.430  15.378  0.0116  0.0546  0.1977
16083W        W32930  12.980   3.941   3.162  0.0968 -0.1802 -0.0759
16084W        W32931   1.911   9.540   2.447 -0.2768  0.3786  0.1045
16085W        W32932   7.574   0.199  13.386  0.2567  0.2758 -0.3022
16086W        W32933   0.764   3.547  15.274 -0.1098 -0.1057  0.0344
16087W        W32934  17.001   0.365   4.341 -0.0808 -0.2312  0.0440
16088W        W32935   8.952  16.573   1.536 -0.1628  0.0506 -0.0781
16089W        W32936   1.483   6.542  14.200 -0.2386 -0.2213  0.0953
16090W        W32937   9.331   0.599   1.813 -0.0133 -0.1092  0.0812
16091W        W32938  10.345  16.395  14.416  0.2208 -0.0598 -0.3013
16092W        W32939  18.697   9.203   2.447  0.0478  0.0195 -0.2534
16093W        W32940  15.236  15.028   5.006  0.1615 -0.0577  0.1916
16094W        W32941  17.068  16.778  10.410 -0.2116 -0.3064 -0.1585
16095W        W32942  12.316  18.478   0.308 -0.3666 -0.0520 -0.2189
16096W        W32943  15.982   7.216  13.180  0.1534 -0.0585  0.1200
16097W        W32944   2.052   3.957   2.069 -0.0272 -0.2426 -0.2795
16098W        W32945  11.384   9.389  14.116 -0.1704 -0.0561 -0.2582
16099W        W32946   2.700   2.739   4.650 -0.0462 -0.1253  0.2085
16100W        W32947   2.337   4.634  14.349 -0.3260 -0.0680 -0.0505
16101W        W32948   6.898  11.664  12.234 -0.2862  0.2985 -0.2244
16102W        W32949   2.015   8.616   3.958  0.2307 -0.0068  0.1749
16103W        W32950   3.442  18.782   4.620  0.0510 -0.3733 -0.2682
16104W        W32951  12.437   1.875  11.636 -0.0936 -0.2639  0.0826
16105W        W32952   8.336  17.785   4.589  0.0295  0.0260 -0.2343
16106W        W32953  16.840  17.539   0.818 -0.1307  0.0699  0.0189
16107W        W32954  14.365   4.500  11.647 -0.0908  0.1626  0.1730
16108W        W32955   6.164  16.061  14.885 -0.0306  0.0960  0.1902
16109W        W32956  10.386   2.721   1.129 -0.0562 -0.1557 -0.1408
16110W        W32957  11.421   5.468   0.627 -0.2341  0.1339  0.1045
16111W        W32958   9.342   8.705  14.087  0.0102  0.2272  0.1928
16112W        W32959  13.008   7.419  10.807 -0.1578 -0.2115 -0.0613
16113W        W32960   8.806  17.717   3.137 -0.0912  0.0511 -0.2388
16114W        W32961   3.858  17.998  12.781  0.2171 -0.3756  0.1908
16115W        W32962  16.107   1.586  12.098 -0.1320 -0.0960 -0.3412
16116W        W32963   6.749  10.953   1.225 -0.1240 -0.0010  0.0131
16117W        W32964  11.134  17.675  14.775  0.0877  0.1862  0.1949
16118W        W32965  18.117   5.337   2.913 -0.0936 -0.0131  0.2033
16119W        W32966  12.798   9.366  14.204  0.4309 -0.2573  0.0177
16120W        W32967  11.402   9.249   5.362  0.4330 -0.0980  0.2447
16121W        W32968   9.075   9.523   1.651  0.0327  0.1533  0.1936
16122W        W32969   7.428   1.400   3.726 -0.1197 -0.1332  0.1592
16123W        W32970   2.084   9.088   4.300 -0.1720  0.0185  0.2273
16124W        W32971  16.972   1.284  15.160  0.0207  0.1208  0.2175
16125W        W32972   5.709   1.688  14.528  0.1027  0.0391  0.1212
16126W        W32973   5.759  10.636   1.145  0.2137 -0.0995  0.1602
16127W        W32974   2.854  16.790  12.711  0.1276  0.1573 -0.1533
16128W        W32975  15.526   0.142   3.315  0.1412 -0.1559  0.1558
16129W        W32976  17.036   1.082   3.081  0.2814  0.1261  0.3518
16130W        W32977  14.504  18.789  13.155  0.1879  0.0432 -0.0889
16131W        W32978  17.503  15.292  12.811  0.0395 -0.1063 -0.2438
16132W        W32979  11.189   2.969  12.676 -0.1308  0.0697 -0.0404
16133W        W32980   5.663   1.429  11.715  0.0175  0.0954 -0.2392
16134W        W32981  12.812   8.426   1.830  0.0867  0.1023 -0.1515
16135W        W32982  15.714  14.984   4.285 -0.1871 -0.1124  0.1697
16136W        W32983  14.882   9.695   1.433  0.3068  0.2139  0.1647
16137W        W32984  14.015   4.524   4.895  0.2438  0.0420  0.0183
16138W        W32985  13.878   0.375   1.901 -0.0660  0.1513 -0.3049
16139W        W32986  16.143  14.746   4.488  0.2575  0.0399  0.0497
16140W        W32987   2.068  13.240  14.610 -0.2112  0.2625 -0.0714
16141W        W32988  12.309   3.781   4.381  0.0544  0.1994 -0.0559
16142W        W32989  15.552   9.240   4.526 -0.1829 -0.5193  0.1159
16143W        W32990   9.741  15.915   5.308  0.0467 -0.1869 -0.1721
16144W        W32991  15.711  13.154  13.767  0.1719  0.0315  0.0142
16145W        W32992  14.104  16.749   3.476 -0.0531  0.1959 -0.0570
16146W        W32993   3.114  15.141   4.442  0.1262 -0.0299  0.0324
16147W        W32994   9.458   8.165  14.255 -0.2734  0.3075  0.2545
16148W        W32995  18.625  11.463   3.426 -0.0380 -0.0389  0.0185
16149W        W32996   1.549  11.724  14.990  0.0075 -0.0560  0.0091
16150W        W32997   7.358   9.545   3.212  0.1816  0.0499  0.2174
16151W        W32998   7.087   0.240   3.781  0.1754 -0.0951  0.0946
16152W        W32999  12.239   8.835   2.655  0.2872 -0.1201 -0.1383
16153W        W33000  11.299   3.160   0.784 -0.1392 -0.1069 -0.2325
16154W        W33001   0.736   6.638   4.238 -0.1112 -0.0434 -0.2115
16155W        W33002   1.057   2.643   3.985  0.1385  0.1034 -0.1543
16156W        W33003  14.143  12.137  12.838 -0.0236  0.1486  0.0210
16157W        W33004   2.511  14.779   3.570 -0.0596 -0.1753  0.0255
16158W        W33005   1.825  13.698   5.646 -0.0687 -0.0002  0.0324
16159W        W33006  10.279  12.013  13.546 -0.0612  0.2767  0.0347
16160W        W33007  13.972   9.500  15.516  0.0288 -0.0349  0.2686
16161W        W33008   4.715  14.464   1.931 -0.2104 -0.1925  0.0056
16162W        W33009  13.076  10.767  12.626  0.1848 -0.1594  0.1064
16163W        W33010   9.401   5.006  12.275  0.0283  0.1571 -0.1062
16164W        W33011  10.066  10.390   0.062 -0.0169  0.0483 -0.3234
16165W        W33012  14.922   1.296  13.468  0.1509  0.1046 -0.0184
16166W        W33013  17.832  18.171  13.047  0.1101 -0.0374  0.1649
16167W        W33014  17.235   2.015  13.765  0.1446  0.2461  0.1781
16168W        W33015   8.610   2.079   1.476 -0.2674  0.0826 -0.0743
16169W        W33016   5.461  14.579   4.344  0.0522  0.2004  0.0163
16170W        W33017   7.977   0.369  12.933  0.0528  0.0691 -0.1671
16171W        W33018   3.456  11.437   0.920  0.1515  0.1576 -0.1092
16172W        W33019   5.791   8.391  11.776 -0.0195  0.2022  0.1836
16173W        W33020  15.453   8.894   3.602  0.0347 -0.1057 -0.0258
16174W        W33021   7.867   9.341   2.125  0.0186 -0.0386 -0.1765
16175W        W33022   7.931  13.995  14.681 -0.0806 -0.0636 -0.1734
16176W        W33023   6.899   8.523   3.845 -0.0344  0.2534  0.0552
16177W        W33024   0.255   9.525  14.829  0.0739 -0.2115  0.0732
16178W        W33025  10.216  12.144   1.426  0.1865 -0.4144  0.0060
16179W        W33026   7.557   2.545  11.508 -0.0814 -0.0272  0.0428
16180W        W33027  15.365   6.586   1.405 -0.4180 -0.0367 -0.1793
16181W        W33028   2.030  15.979  11.263 -0.1254 -0.0136 -0.0616
16182W        W33029   7.511   7.125  13.114  0.0787 -0.2393 -0.0625
16183W        W33030  10.526  15.241  11.950  0.2978 -0.0528  0.1101
16184W        W33031   9.368   7.353  11.115 -0.0298 -0.3144 -0.0711
16185W        W33032   5.355   2.707   1.885 -0.2164 -0.0445 -0.2311
16186W        W33033  15.649   8.281   5.698  0.1308 -0.0513 -0.2628
16187W        W33034   0.896   7.765   0.530 -0.1865  0.0033  0.0991
16188W        W33035  16.567   8.683  14.473  0.0701  0.1045 -0.0590
16189W        W33036   2.440  13.755  13.227  0.1137 -0.1156 -0.2939
16190W        W33037   1.805   7.344   1.417  0.0021 -0.0282  0.1071
16191W        W33038   5.539   9.045   1.769 -0.0957 -0.0380 -0.0224
16192W        W33039   3.679   6.632   5.260 -0.0869 -0.0895  0.0538
16193W        W33040   5.894  15.948  11.697  0.0604  0.0220 -0.2084
16194W        W33041   2.925  16.369  14.759 -0.0137  0.2944  0.3019
16195W        W33042   0.819  16.382   0.555 -0.0064 -0.4249 -0.4108
16196W        W33043  10.602   9.385   4.686 -0.2124 -0.1493  0.1703
16197W        W33044  18.796   4.204   3.128  0.2050 -0.5065  0.0825
16198W        W33045   3.695  14.395   5.400 -0.2060 -0.0038  0.0823
16199W        W33046  10.067   3.076  11.721  0.1179 -0.1330 -0.2993
16200W        W33047   0.531  12.870   5.777 -0.2726 -0.1517  0.0744
16201W        W33048  13.742  11.061   2.905 -0.1413 -0.0266 -0.3154
16202W        W33049  12.346  14.278   1.922 -0.3835 -0.1797  0.0850
16203W        W33050   8.670   5.669  11.252 -0.2414  0.0390  0.0342
16204W        W33051  17.618  17.022  10.296  0.1930 -0.2663  0.0793
16205W        W33052  10.648   8.720  12.644  0.1050 -0.0688  0.1924
16206W        W33053   1.893  14.799   3.790  0.0889 -0.1423  0.0729
16207W        W33054  15.635  15.918   4.261 -0.2192 -0.3433  0.0496
16208W        W33055  12.223   6.467  10.670  0.1317 -0.0924  0.1414
16209W        W33056   1.358   8.501   5.000  0.0569 -0.0208  0.0792
16210W        W33057  12.422   5.072  15.019  0.0583 -0.0322 -0.1386
16211W        W33058  13.625  15.081  11.418  0.3069  0.1256 -0.0060
16212W        W33059   5.941   8.452   0.105 -0.0085 -0.1285  0.1970
16213W        W33060   0.037   9.227   4.232  0.4614  0.0071 -0.0809
16214W        W33061   0.244  10.277   4.755  0.1465 -0.0896 -0.2137
16215W        W33062  16.651  12.375   0.596 -0.2766  0.4802 -0.3620
16216W        W33063  15.280   9.777   1.774 -0.0916  0.1536 -0.0546
16217W        W33064  16.159  14.342   0.527  0.2113  0.4279 -0.1173
16218W        W33065  13.585   9.008  11.685 -0.0391 -0.1027  0.1280
16219W        W33066  11.387  10.756   3.693  0.0543  0.0191 -0.0160
16220W        W33067   1.574  18.330  13.352  0.0272  0.0583  0.1597
16221W        W33068  18.181  10.967   2.083 -0.0545  0.0423  0.1428
16222W        W33069  13.652  15.821   0.481  0.0672  0.2831  0.0093
16223W        W33070   5.723  13.543  14.111  0.1945  0.0231 -0.3237
16224W        W33071  12.556  10.758   1.332 -0.2329 -0.0610 -0.2173
16225W        W33072   5.921   0.406  10.888 -0.3596 -0.1358  0.1480
16226W        W33073  12.944   4.351   2.874  0.0935  0.0188  0.1064
16227W        W33074   0.211   4.468   4.918 -0.2467 -0.0074 -0.0290
16228W        W33075   5.797  11.841   1.720 -0.1245  0.1610 -0.1738
16229W        W33076   3.475  14.951   4.803 -0.0442 -0.3179  0.1296
16230W        W33077   2.273   0.186   1.021  0.2979  0.1070  0.1062
16231W        W33078   9.362   6.206  15.140 -0.1501  0.1327 -0.3237
16232W        W33079  13.526  13.596   4.225 -0.1788  0.1687  0.3962
16233W        W33080   2.696   7.771  14.172  0.1134 -0.0398 -0.0304
16234W        W33081   7.770  17.136  15.376 -0.0599  0.0536 -0.1106
16235W        W33082  12.907   5.764   0.266 -0.3285 -0.0828 -0.0400
16236W        W33083   9.487  10.530   5.139 -0.1176 -0.1710  0.2728
16237W        W33084   6.240   0.607  13.396 -0.0164 -0.1637  0.0460
16238W        W33085  12.807   9.058   5.631  0.1012 -0.3151  0.0259
16239W        W33086  15.933   8.467   4.217  0.3610 -0.1807 -0.0592
16240W        W33087  17.940  17.459  13.459 -0.0576  0.3446 -0.3215
16241W        W33088  13.787   3.251  11.544  0.0009 -0.1370  0.2194
16242W        W33089  15.540   0.533   1.978  0.2162 -0.0541  0.0642
16243W        W33090  13.167   3.721   5.831  0.1513 -0.0310 -0.2639
16244W        W33091  12.138   6.251   3.691 -0.1206  0.1740  0.2284
16245W        W33092   3.419   2.930  15.391 -0.1764 -0.4286 -0.0259
16246W        W33093   5.139  12.739  13.969 -0.1504  0.0540 -0.2724
16247W        W33094   8.106   3.088  12.746 -0.0751 -0.0753 -0.0412
16248W        W33095   4.559  18.747  14.330  0.3893 -0.1496 -0.0824
16249W        W33096  14.815  18.346  13.238 -0.0494  0.1405  0.1613
16250W        W33097  14.142  15.970   0.132 -0.0288  0.3210 -0.0382
16251W        W33098  17.194  17.260  13.006  0.2306 -0.0539  0.0291
16252W        W33099   2.998  15.384  13.955  0.1437  0.2339 -0.1391
16253W        W33100   9.732  18.108  14.028 -0.0031  0.1010 -0.3421
16254W        W33101   8.245  14.308   5.280 -0.0389 -0.1519  0.1890
16255W        W33102   7.678   5.661  13.574 -0.1125 -0.1082  0.1274
16256W        W33103  10.495  13.038  11.332  0.0422 -0.0369  0.1030
16257W        W33104   0.458  10.371   2.614 -0.0186 -0.0286  0.2585
16258W        W33105   0.951   4.803   2.719  0.2127  0.2397  0.0673
16259W        W33106   3.160   9.775  14.684 -0.0195 -0.1170 -0.1098
16260W        W33107   5.225  10.409   2.264 -0.2398  0.4237 -0.0595
16261W        W33108  12.086  18.425   4.833 -0.2807  0.0196  0.4057
16262W        W33109   1.004  16.494   2.057  0.1192 -0.2100 -0.4070
16263W        W33110   9.831   7.279   0.808  0.3061  0.0126  0.0630
16264W        W33111   3.406  16.410  13.823  0.2620  0.1328  0.2386
16265W        W33112  13.372  10.115   4.125  0.1994 -0.0473  0.0997
16266W        W33113  13.218   6.573  14.046 -0.1537  0.1982  0.1235
16267W        W33114   8.735   8.787  14.660  0.3289 -0.1658 -0.1555
16268W        W33115   4.701   9.716   1.253  0.1117  0.1905  0.0106
16269W        W33116  17.022  14.784   0.545  0.1849  0.0951 -0.0686
16270W        W33117   1.382   7.873   4.934 -0.2010  0.0426 -0.1558
16271W        W33118  11.910   3.283  14.208  0.1158  0.0109  0.0337
16272W        W33119  14.936  11.099   2.034  0.0165  0.1319 -0.0873
16273W        W33120   4.999   1.666   3.536  0.1233  0.1083 -0.3840
16274W        W33121  14.340  13.936   3.439 -0.1865  0.1040 -0.0570
16275W        W33122   5.478   0.399  13.772 -0.2123 -0.0429 -0.3030
16276W        W33123   4.045  15.036  13.688 -0.1865  0.0520  0.0410
16277W        W33124   4.679  14.619  12.119 -0.0380 -0.3096  0.1431
16278W        W33125   5.504   1.217   1.745  0.4700  0.0587 -0.0518
16279W        W33126   6.439  18.452   1.091  0.0788 -0.1652  0.0193
16280W        W33127   8.765   5.723  15.525 -0.1644 -0.2625  0.0913
16281W        W33128  11.071   8.811   0.116 -0.2975 -0.0176  0.0636
16282W        W33129  13.017  13.511   0.491 -0.1866 -0.0095  0.0983
16283W        W33130  15.260   9.350  14.673  0.1209 -0.0009 -0.0298
16284W        W33131   2.794   8.781   1.250  0.1761 -0.1478 -0.1214
16285W        W33132   5.934  12.358  11.200  0.0746 -0.0209  0.3163
16286W        W33133   4.736   7.113  14.487 -0.0075  0.0775  0.0626
16287W        W33134   9.707   6.887   0.127 -0.3769 -0.3027  0.0007
16288W        W33135  12.358   7.784   5.097 -0.2335  0.2811  0.2366
16289W        W33136  11.820   6.988   2.912  0.1745 -0.0483 -0.0482
16290W        W33137   5.694   3.060  11.666  0.0703 -0.0504 -0.2598
16291W        W33138   6.238   2.655  10.985  0.4464  0.0499 -0.3630
16292W        W33139   6.083   2.068   0.156  0.1418 -0.0028 -0.0540
16293W        W33140  13.499   9.902  14.640 -0.2563 -0.1883  0.0896
16294W        W33141   6.284   9.537  15.172 -0.2300 -0.4093 -0.0604
16295W        W33142   9.033  11.739   4.906 -0.1705 -0.1536  0.1017
16296W        W33143  10.853   8.986  14.844 -0.0058 -0.0022 -0.0397
16297W        W33144   5.983  10.087   4.308  0.0641 -0.1880 -0.0857
16298W        W33145  14.684  12.509  14.656  0.0808 -0.0337 -0.2984
16299W        W33146  11.276   2.103  14.157 -0.1497 -0.1311 -0.1230
16300W        W33147  18.044   8.019   0.130 -0.1396 -0.1173  0.0637
16301W        W33148  15.813   9.232  10.923  0.2937  0.0321 -0.1268
16302W        W33149   1.766  18.701  12.997 -0.0981  0.3095  0.0458
16303W        W33150  14.927   2.739   4.203 -0.0527 -0.0078  0.0294
16304W        W33151   9.098  16.137   2.313  0.1307 -0.1751 -0.2716
16305W        W33152  16.961   6.659  10.699 -0.2330  0.0753  0.1252
16306W        W33153   5.979   1.455  12.379  0.0520  0.6431 -0.1327
16307W        W33154   0.680   0.117  14.536 -0.0677  0.1217 -0.0839
16308W        W33155  14.665  12.958   3.420  0.0151  0.2006  0.1026
16309W        W33156   6.507   7.763  12.977  0.1373 -0.2661 -0.2328
16310W        W33157  17.527   3.554   1.891 -0.1445 -0.1275 -0.0244
16311W        W33158  17.441   1.333  15.380  0.0331 -0.1227  0.2100
16312W        W33159   7.424  17.129  11.804  0.0985 -0.2918 -0.2346
16313W        W33160   6.240   6.115   3.585  0.0350  0.1034 -0.2276
16314W        W33161   0.131  10.922  11.333 -0.0834  0.4754 -0.0468
16315W        W33162   8.575   6.784   4.587  0.0732  0.1664 -0.1781
16316W        W33163   7.477  18.608   2.010 -0.0473 -0.2050  0.1585
16317W        W33164  13.751   4.716   0.775  0.1124  0.0735 -0.0502
16318W        W33165  12.719  15.179   5.207  0.1782  0.1753  0.0521
16319W        W33166  13.081   0.509   1.405 -0.1087 -0.0903  0.1672
16320W        W33167  14.449  17.919   1.735 -0.0536 -0.0932 -0.0710
16321W        W33168   1.761   2.362   0.609  0.2786 -0.1689 -0.1073
16322W        W33169  10.752  18.136   0.803  0.0476 -0.0459 -0.0742
16323W        W33170   4.472   4.912  11.186 -0.4138 -0.0367  0.0010
16324W        W33171  15.882   2.363  11.910 -0.2615 -0.0216 -0.1241
16325W        W33172   2.795  10.110   1.611 -0.2386  0.2567  0.2337
16326W        W33173  18.145   5.966   2.475  0.2739 -0.1010  0.2101
16327W        W33174   4.753  11.955   0.825  0.1562  0.1564 -0.1382
16328W        W33175   8.177  17.215  11.479 -0.1066 -0.3387 -0.2440
16329W        W33176   8.652   7.716  11.840  0.2025 -0.1022  0.0155
16330W        W33177   3.577  18.386  11.275 -0.1325 -0.3064  0.1423
16331W        W33178   5.781  12.119   3.335 -0.2090  0.2669 -0.1560
16332W        W33179   8.754  18.840  12.691  0.1812 -0.0442  0.2311
16333W        W33180  10.300   7.002   4.780 -0.3880  0.1443 -0.3833
16334W        W33181   9.435   6.874  11.993 -0.2789  0.1738  0.1886
16335W        W33182   1.897   6.252  14.216 -0.0609  0.1059 -0.1673
16336W        W33183   0.832   7.018  11.298  0.2913 -0.0170  0.2396
16337W        W33184   0.352   3.024   0.255 -0.1402 -0.1690 -0.2024
16338W        W33185  17.642  12.308   4.126  0.1887  0.1756 -0.0529
16339W        W33186  11.556  18.495  11.335 -0.1514 -0.1342 -0.0502
16340W        W33187   9.738  18.545   4.224  0.3125 -0.0449  0.0044
16341W        W33188   9.835   8.270   5.023  0.0010 -0.0451 -0.0320
16342W        W33189   1.674  17.262  13.767  0.0248 -0.2175 -0.1464
16343W        W33190  17.468   0.240  14.496  0.1400 -0.1690  0.0144
16344W        W33191   1.152  15.054   2.907 -0.1485 -0.1048  0.1764
16345W        W33192  10.277  15.143  12.934  0.1614  0.2338  0.2329
16346W        W33193   9.661   4.892   2.029  0.0636  0.2454 -0.1664
16347W        W33194   8.882   2.837  12.194 -0.0590 -0.0008  0.1561
16348W        W33195  18.243  13.142  11.688 -0.0459 -0.1792 -0.0411
16349W        W33196   4.475  16.000  14.231 -0.0843  0.2973 -0.1176
16350W        W33197  11.941   2.313   2.105 -0.0378 -0.1556 -0.1248
16351W        W33198   8.853   9.256  14.536  0.2209 -0.1885 -0.1426
16352W        W33199   2.641   4.651   0.313 -0.2524  0.3663  0.1131
16353W        W33200  14.777  11.737  15.104 -0.0959  0.4759 -0.0630
16354W        W33201  17.688   9.783   0.235 -0.0465 -0.2380 -0.3288
16355W        W33202  18.052  10.431  12.278  0.0230  0.2148 -0.2479
16356W        W33203   2.420  16.735  14.001 -0.0620  0.0704 -0.0858
16357W        W33204  17.041   0.820   2.665  0.0029  0.0388  0.0188
16358W        W33205   6.358  14.124  13.606  0.1192 -0.0809 -0.0297
16359W        W33206  18.792  11.001   5.946  0.4176 -0.1025  0.0695
16360W        W33207   8.615   7.272   0.662  0.2966 -0.0345  0.1273
16361W        W33208   6.002  18.835   2.827  0.3488  0.1083  0.0523
16362W        W33209   7.899   7.059  10.532 -0.0259 -0.1518 -0.1369
16363W        W33210  17.200   5.320  14.013  0.2750  0.0908 -0.0143
16364W        W33211   5.612   6.526  12.682 -0.0583  0.0426 -0.1776
16365W        W33212   7.298  16.967  13.405 -0.0586  0.1274  0.1531
16366W        W33213   5.053   0.167   2.553 -0.0091  0.0271 -0.2721
16367W        W33214  18.054   8.402   2.977  0.4301 -0.0377  0.1119
16368W        W33215   3.913  10.955  14.250  0.2192  0.5131  0.0304
16369W        W33216  13.706  18.642   3.478  0.0399 -0.0961  0.0754
16370W        W33217  17.248  13.415   0.719 -0.2379  0.0585  0.1284
16371W        W33218   6.024   4.614  11.269  0.1048 -0.2314  0.0398
16372W        W33219  14.596  18.475  11.839 -0.2156  0.1620  0.1198
16373W        W33220  14.173  11.506  12.305  0.0967  0.1515 -0.2018
16374W        W33221   3.361  11.613   3.896 -0.1298 -0.1146  0.1070
16375W        W33222  13.435  10.806   1.023  0.0554  0.1153  0.2545
16376W        W33223  12.864   2.246  12.332  0.0903  0.3377 -0.0041
16377W        W33224   9.185   3.316  13.469  0.1532 -0.2956 -0.0832
16378W        W33225  10.738   3.337  14.871  0.5365  0.0497  0.3446
16379W        W33226   7.626   5.053  14.792  0.3432  0.2562 -0.2231
16380W        W33227   0.314  15.045   2.111  0.0951 -0.1897  0.4304
16381W        W33228   5.389   5.440   1.607 -0.1494  0.0703  0.1902
16382W        W33229   9.980  17.548   0.534  0.1261 -0.2248 -0.0158
16383W        W33230  17.718  12.766   2.297  0.1606 -0.0423 -0.1487
16384W        W33231   3.269  11.697  11.080 -0.1405  0.2814  0.1480
16385W        W33232  15.108  11.634  13.318 -0.1494 -0.0245  0.0767
16386W        W33233  14.354   4.802  10.111 -0.0781 -0.2417  0.2194
16387W        W33234   6.066   0.018   1.019 -0.2972  0.0584  0.0093
16388W        W33235  17.839  16.479  12.429 -0.1463  0.2691  0.0528
16389W        W33236  17.504   2.113   2.559 -0.2349  0.0221 -0.2827
16390W        W33237  15.036   9.439  15.113 -0.1862 -0.1344  0.1015
16391W        W33238  12.494  14.786  14.803 -0.2739  0.1037  0.2105
16392W        W33239  17.247   6.254  11.696 -0.0057  0.0626 -0.0068
16393W        W33240  15.819   9.107  11.421  0.0696 -0.1463  0.0110
16394W        W33241  15.516   3.204   4.868 -0.1841 -0.2083 -0.0158
16395W        W33242   8.325  10.144  12.064 -0.2603 -0.4063 -0.3708
16396W        W33243  15.600  17.809  12.824  0.1887 -0.0917 -0.2082
16397W        W33244   0.760  11.721  12.917  0.1966  0.1098  0.1136
16398W        W33245  11.855   9.016  14.939  0.3151  0.1659  0.0741
16399W        W33246   7.799  18.710  14.620 -0.0065 -0.2723  0.3283
16400W        W33247  14.327   6.715   4.713 -0.2264  0.1451 -0.0431
16401W        W33248   7.151  14.950   0.881 -0.1296  0.1233  0.2198
16402W        W33249  14.666   5.248   4.370  0.0325 -0.4667  0.3453
16403W        W33250  12.744  18.025   2.658  0.1828 -0.1106 -0.1158
16404W        W33251   2.753  15.903  11.728 -0.0118 -0.0077 -0.0388
16405W        W33252   0.177   3.378   0.661  0.0509 -0.0177 -0.0159
16406W        W33253   7.582   6.161   4.098  0.0103  0.0282 -0.3067
16407W        W33254  16.863  14.900  12.303  0.1797 -0.1083  0.1549
16408W        W33255   5.670   6.789   3.502 -0.1375  0.1754  0.0162
16409W        W33256  16.718   5.581  15.549  0.2845 -0.1396  0.0175
16410W        W33257  12.254   5.506  12.105 -0.0969 -0.0116  0.0878
16411W        W33258  14.893  10.779  13.359 -0.0661  0.1553  0.2674
16412W        W33259  11.798  17.806   3.435 -0.2758 -0.2429  0.4696
16413W        W33260   7.401  15.226   2.431  0.2886 -0.0937  0.0826
16414W        W33261   8.824   3.058   2.655 -0.0053 -0.0463  0.1149
16415W        W33262   0.699  14.286   0.430 -0.1584  0.0312  0.0635
16416W        W33263   7.499  18.688  15.388  0.2732  0.0596  0.1139
16417W        W33264   2.160  15.050  13.269  0.2170 -0.1172  0.0603
16418W        W33265   0.356  13.941   4.481 -0.0880 -0.0916 -0.0566
16419W        W33266  10.523  16.342   2.058 -0.1268  0.0093 -0.0661
16420W        W33267   1.100   1.126   2.879  0.2319 -0.3283 -0.3330
16421W        W33268   6.542   0.940   3.728 -0.0172 -0.1659 -0.1050
16422W        W33269   5.540  13.891  14.642 -0.2654 -0.1692 -0.0738
16423W        W33270  14.679   2.743   3.808 -0.1531  0.1540 -0.2705
16424W        W33271   6.288   2.020  10.908  0.1157 -0.1077  0.0665
16425W        W33272  11.894  12.147  15.501 -0.2317  0.1985  0.0088
16426W        W33273  12.440   2.944   5.993  0.1567  0.0698  0.0664
16427W        W33274  13.131  10.464   0.743  0.3322 -0.0437  0.0178
16428W        W33275   5.602   3.736  11.643  0.0484  0.1488  0.1226
16429W        W33276   9.998   3.231   0.466  0.2649 -0.2854  0.1204
16430W        W33277  16.009  10.624   3.344  0.0143  0.0254 -0.0407
16431W        W33278   9.797   5.865   5.240  0.1865  0.1572  0.0665
16432W        W33279   5.324  18.555   1.317 -0.1847 -0.2018  0.2579
16433W        W33280  13.270   4.958  13.457 -0.1941 -0.0085 -0.4338
16434W        W33281  10.973  10.761  12.644  0.0174  0.1068 -0.1514
16435W        W33282  18.350  16.893   3.906 -0.2080  0.0081 -0.2375
16436W        W33283   8.616  13.958   4.861 -0.1361  0.0196  0.0377
16437W        W33284   1.021   4.024   2.739 -0.0019  0.0605 -0.2621
16438W        W33285  10.206   1.641  11.312  0.2515  0.2945 -0.1732
16439W        W33286   4.524  13.519  15.487  0.0820  0.1070  0.2104
16440W        W33287   8.845  16.570   4.939 -0.1508  0.0789  0.0746
16441W        W33288   5.448   3.952  10.858  0.2347 -0.1425  0.0640
16442W        W33289   7.059   1.499   4.253  0.0135 -0.0441  0.1279
16443W        W33290  11.432  12.131  10.163 -0.0978 -0.0125  0.0225
16444W        W33291   6.831   8.359  15.435  0.1331 -0.1812 -0.0315
16445W        W33292   2.619  12.476  12.961  0.1743 -0.2037 -0.1142
16446W        W33293  14.805   5.223   1.618 -0.2228  0.1700  0.0911
16447W        W33294   1.269   1.111   4.028 -0.1830  0.0995  0.1088
16448W        W33295  16.438   7.399   2.797  0.2798  0.1202 -0.0774
16449W        W33296  17.046   4.821  11.985  0.0098 -0.0503  0.2489
16450W        W33297  14.776  15.612  11.039 -0.1275 -0.1554 -0.4919
16451W        W33298  18.069  18.458   0.003 -0.0424 -0.0876 -0.2642
16452W        W33299   9.563   8.518   4.379 -0.0519  0.1911  0.2742
16453W        W33300   5.250   5.248  13.973  0.0910  0.0803 -0.0922
16454W        W33301   1.475   8.304   1.726 -0.2389  0.0749 -0.0424
16455W        W33302   1.619   1.671   5.157 -0.0791  0.0534  0.1864
16456W        W33303   9.431   0.318  13.747 -0.2933 -0.2378  0.0464
16457W        W33304   9.061   8.152   3.836  0.2513 -0.4779 -0.1806
16458W        W33305   7.704  16.399  11.388  0.0345  0.0490  0.0051
16459W        W33306   2.905  15.942  10.712 -0.0863  0.0430 -0.0926
16460W        W33307  18.186   3.795  12.787  0.0715 -0.2697  0.0071
16461W        W33308   9.739  10.589   3.508 -0.3929  0.0747 -0.1433
16462W        W33309   4.539   8.143  10.841 -0.1101  0.0932 -0.1945
16463W        W33310  10.489   3.025  14.217  0.2549 -0.1143 -0.2113
16464W        W33311   8.300  15.534  15.064  0.2854 -0.1125  0.1633
16465W        W33312   2.510   5.533  12.864  0.3577 -0.0534  0.3492
16466W        W33313  11.871   7.189  14.118 -0.0777  0.1340 -0.1478
16467W        W33314  14.404   4.834   5.102 -0.2738  0.3577 -0.1681
16468W        W33315  14.736  10.187   1.553  0.1053 -0.0668 -0.1636
16469W        W33316  14.085   8.240  15.197 -0.0880  0.0298 -0.0466
16470W        W33317   2.448   0.907   2.211 -0.1612 -0.1435  0.0700
16471W        W33318  15.168   1.552  12.634  0.0273 -0.2849 -0.0411
16472W        W33319  12.464  13.982   2.471  0.1490  0.0216  0.0429
16473W        W33320  15.574   9.610  12.621  0.2734  0.0717 -0.2211
16474W        W33321  12.443   2.450   0.795 -0.2236 -0.1839  0.0619
16475W        W33322  12.855   9.745   2.326 -0.0091 -0.1475  0.4462
16476W        W33323  11.520  15.206   1.314  0.2321  0.0034 -0.0562
16477W        W33324   0.263   9.330   1.739 -0.0670 -0.3079 -0.0941
16478W        W33325   4.744   5.980   2.409 -0.4150 -0.1756  0.3139
16479W        W33326   6.344  16.511  15.051  0.0966 -0.2635 -0.0397
16480W        W33327  11.428   5.835   4.663  0.3730 -0.3318  0.1866
16481W        W33328  17.826   1.910  10.707  0.2425 -0.4939 -0.0815
16482W        W33329  18.088  14.585  13.159  0.3232  0.1135  0.1311
16483W        W33330   0.120   3.976  14.522 -0.0777 -0.2516  0.2206
16484W        W33331   1.764   9.450   1.922  0.0437 -0.0405 -0.1652
16485W        W33332   5.620  12.381  12.881  0.0468 -0.2030  0.0419
16486W        W33333  14.254   0.319   5.130  0.2542  0.2144  0.2000
16487W        W33334   1.129  10.992   1.132 -0.0654 -0.2874  0.5255
16488W        W33335  14.674   5.854  14.131 -0.0248 -0.1364 -0.0335
16489W        W33336  10.547   5.117   1.682  0.1290 -0.0411  0.1239
16490W        W33337  17.067   7.484   0.278 -0.0449  0.0232  0.3571
16491W        W33338  15.179  11.427  15.455  0.1231  0.1139 -0.1185
16492W        W33339   9.812  10.439  14.399  0.3822 -0.2285  0.0656
16493W        W33340  13.149  17.735   0.225 -0.0164 -0.2071 -0.0908
16494W        W33341  10.019  16.835  14.402 -0.1524  0.1054  0.0298
16495W        W33342   3.203  18.177   5.212  0.0666 -0.1682 -0.2392
16496W        W33343  15.319   7.196   4.101 -0.0023  0.0479  0.1374
16497W        W33344  12.781  16.718  10.775 -0.0712  0.1691 -0.0286
16498W        W33345   0.349   0.848   2.330 -0.4279 -0.0787  0.1800
16499W        W33346  14.101   0.470  12.256 -0.0278 -0.2629  0.0424
16500W        W33347   3.675   4.621  11.733 -0.1710 -0.1319 -0.0433
16501W        W33348  14.385   6.500   0.915  0.1580 -0.3684  0.3488
16502W        W33349  14.677   2.087  11.140  0.0201  0.1105  0.0692
16503W        W33350   6.224   2.205   1.016  0.1551 -0.2163 -0.2836
16504W        W33351   0.335  16.011   2.338  0.1188 -0.3185 -0.0259
16505W        W33352   0.316  11.591   2.570 -0.0247 -0.2428  0.1571
16506W        W33353   3.758  14.647   0.013  0.2154 -0.0830  0.2407
16507W        W33354   6.749  14.597  15.211 -0.0613 -0.0076  0.0482
16508W        W33355   4.395  18.776   5.449 -0.0641  0.0482 -0.1211
16509W        W33356  14.479  12.461   4.003  0.0228 -0.0222  0.1598
16510W        W33357  12.886  10.135  11.999 -0.0300  0.2264 -0.2195
16511W        W33358   5.234  12.263  13.182  0.1329  0.1983  0.0678
16512W        W33359   9.835   1.815   1.527 -0.1476 -0.0670  0.0970
16513W        W33360  10.259   5.390  14.481  0.1708 -0.1023  0.1342
16514W        W33361   1.464  13.345  11.576  0.2979  0.0870 -0.1602
16515W        W33362   7.099   7.696   2.869  0.2143  0.0017 -0.1449
16516W        W33363   8.664  11.767  11.367 -0.1624  0.0226  0.2424
16517W        W33364  18.825  11.139   4.687  0.0617  0.1612  0.0126
16518W        W33365   4.721  13.434   3.350  0.2991  0.1708  0.4229
16519W        W33366   6.705  13.712  11.650 -0.2224  0.1333  0.2131
16520W        W33367   0.410  18.517  15.076 -0.2067  0.0032  0.2078
16521W        W33368   9.823  10.187  10.569 -0.0956  0.0254  0.3302
16522W        W33369   0.114  17.228  14.806 -0.2746  0.1853 -0.1443
16523W        W33370   6.602  13.238   1.758  0.1306  0.1336 -0.1302
16524W        W33371  10.686   2.867   5.769  0.0130 -0.0622  0.1331
16525W        W33372  11.297   5.147   3.319 -0.3120  0.1395 -0.0341
16526W        W33373   7.270  17.729  15.315 -0.0050  0.4570  0.0881
16527W        W33374  13.054  17.868   1.336 -0.2504 -0.3487  0.2013
16528W        W33375   9.478   5.382  11.929 -0.0338  0.1337  0.4088
16529W        W33376   9.819   8.284  14.878 -0.1532 -0.1015 -0.3399
16530W        W33377   7.989   2.248   4.959 -0.1953 -0.1551 -0.1102
16531W        W33378  12.514  16.118  12.622 -0.0219 -0.0771  0.1563
16532W        W33379   8.393   2.355   2.935 -0.3749 -0.3522  0.1758
16533W        W33380   1.091  15.780  11.368 -0.1201  0.3290  0.0347
16534W        W33381  10.452  16.574  11.874  0.0156  0.0059 -0.2098
16535W        W33382  13.279   7.139   2.652  0.3899  0.1649 -0.0996
16536W        W33383   7.023  13.842  11.957 -0.1107  0.0542 -0.2525
16537W        W33384  12.228   1.231   4.505  0.0605 -0.0093  0.1765
16538W        W33385  16.629   0.671   3.055 -0.2751  0.3412  0.1951
16539W        W33386   4.620   7.129  11.180 -0.1800 -0.0971 -0.0136
16540W        W33387   1.320   4.033   3.254 -0.0418  0.1384 -0.0351
16541W        W33388   7.406   8.931   1.336 -0.2105  0.1776 -0.0447
16542W        W33389  10.261   5.897   4.233  0.0116 -0.0641  0.2063
16543W        W33390   3.743  11.867  14.792 -0.0667  0.0745  0.1902
16544W        W33391   9.393   9.848  15.062 -0.0010  0.0592  0.0443
16545W        W33392  17.643  15.966   3.699  0.3258 -0.2101 -0.0652
16546W        W33393   8.206   2.463  15.232 -0.2249 -0.1419 -0.0195
16547W        W33394   0.323   1.955   0.631  0.0115 -0.1499 -0.0205
16548W        W33395   0.791   9.776   0.653 -0.1061 -0.1673  0.0132
16549W        W33396  11.869   1.370   2.021 -0.2293 -0.2282  0.0551
16550W        W33397  13.540  18.018   2.672  0.0073  0.1670  0.1136
16551W        W33398   7.486   9.240  12.563 -0.1228 -0.0749  0.1411
16552W        W33399   1.132   5.329  12.866  0.0366 -0.2018  0.0335
16553W        W33400  12.160  10.275  14.968 -0.0485 -0.1191 -0.1177
16554W        W33401   5.117   6.426  15.182 -0.3558 -0.0499  0.1799
16555W        W33402   9.048  14.129   4.584  0.1406  0.2303 -0.0983
16556W        W33403   6.411   6.056  11.268 -0.1413 -0.0610  0.0014
16557W        W33404  13.047   4.121  11.202 -0.3047 -0.2755  0.4069
16558W        W33405  17.155   2.822   2.425 -0.1169  0.2865  0.1361
16559W        W33406  17.013  12.614   4.528 -0.3677  0.0567 -0.2978
16560W        W33407  17.587  12.054   3.252 -0.0057 -0.0618 -0.1337
16561W        W33408  14.030  11.610   1.064  0.0967  0.0823  0.0484
16562W        W33409  16.371  11.955   0.380 -0.3988  0.0429 -0.4443
16563W        W33410   0.668  15.215   2.895  0.2827 -0.0227  0.0841
16564W        W33411  13.462   8.261  12.999  0.1442 -0.2154 -0.0861
16565W        W33412   6.171   7.810   0.667  0.1965  0.1144  0.0773
16566W        W33413   4.147  13.364  13.416  0.1839 -0.2543  0.3087
16567W        W33414  15.232  17.410  14.598  0.0380  0.0614 -0.0592
16568W        W33415  17.813  13.134   0.557  0.1365  0.0761 -0.0855
16569W        W33416   6.162   7.146  12.278  0.0129 -0.0417 -0.0829
16570W        W33417   7.287  11.773  14.826 -0.3089 -0.6086  0.0217
16571W        W33418  16.896   8.229   3.977 -0.4100  0.0804  0.1650
16572W        W33419   6.546   7.304   4.571  0.0605  0.0189  0.3724
16573W        W33420   8.867  17.118   1.934 -0.0193 -0.2283  0.1391
16574W        W33421  15.881  16.257   9.802 -0.0193 -0.0103  0.0331
16575W        W33422   2.869   0.575  13.107 -0.2394 -0.1821 -0.3096
16576W        W33423  16.629  10.953  13.393  0.1425  0.3021 -0.3003
16577W        W33424  18.307  15.605   3.389 -0.1251  0.2484 -0.1623
16578W        W33425  11.135  17.585  12.294 -0.1201 -0.0406  0.2387
16579W        W33426  10.151  10.915  11.509  0.0125 -0.4317 -0.4245
16580W        W33427   6.076  10.655  13.730  0.0819  0.0963  0.1228
16581W        W33428   4.308   9.612  13.972 -0.0390 -0.1569  0.1585
16582W        W33429  17.772   8.519  11.945 -0.3326  0.0580 -0.0084
16583W        W33430  10.893   5.904  11.143  0.0153 -0.1133  0.0104
16584W        W33431  10.780  12.307   3.153  0.0556 -0.0186 -0.2189
16585W        W33432   0.950  11.550   1.177  0.1717  0.3027 -0.0767
16586W        W33433   9.386  14.639   5.875 -0.2800  0.0197  0.0956
16587W        W33434   6.470  11.475   3.120  0.0651  0.2434  0.1303
16588W        W33435   2.115   3.116  14.830  0.4133 -0.1906 -0.0598
16589W        W33436  16.195  14.027   3.229  0.3300  0.1796 -0.0650
16590W        W33437   0.586  13.914  11.772 -0.2355 -0.4246  0.0263
16591W        W33438   9.021  11.765  11.721 -0.1593  0.1642  0.2834
16592W        W33439   5.986  14.986  11.482  0.0292 -0.0299 -0.2216
16593W        W33440   6.177   2.979  13.660 -0.1736  0.0814  0.1625
16594W        W33441  17.520   6.651  10.919 -0.1671 -0.3807  0.2434
16595W        W33442   8.104   9.829   2.513 -0.1624 -0.0556  0.0409
16596W        W33443   5.478  10.230   1.246  0.1395 -0.3364 -0.1449
16597W        W33444   5.606  17.984  15.015  0.0338  0.3515  0.1262
16598W        W33445  14.075  16.488  15.538 -0.2373  0.0136 -0.0427
16599W        W33446   3.935   9.707  14.326 -0.0453  0.0702 -0.0814
16600W        W33447  17.727  14.600   3.884  0.2327 -0.2257 -0.2667
16601W        W33448   6.062   7.675  11.185  0.0043  0.0354  0.1642
16602W        W33449  14.085   1.426   4.650  0.2590 -0.3449  0.1647
16603W        W33450   5.855   9.305   1.447 -0.0694 -0.1664  0.0048
16604W        W33451  15.102   6.022  13.443 -0.1731  0.3146 -0.1235
16605W        W33452  15.441   5.475   1.613 -0.1745 -0.3899 -0.4751
16606W        W33453   5.046  17.048  10.162  0.0502 -0.2947 -0.1997
16607W        W33454  10.961   1.590   0.454 -0.4172  0.1200  0.1802
16608W        W33455   1.460   9.044  15.216  0.2040  0.1257  0.1126
16609W        W33456  13.823   1.327   5.059 -0.0381 -0.3689  0.2920
16610W        W33457   1.048  10.139   1.653  0.0428 -0.1186  0.0352
16611W        W33458  11.338  17.485  11.326 -0.3878  0.0787 -0.0005
16612W        W33459  18.786  11.619   3.900  0.0832  0.0587 -0.2102
16613W        W33460  13.945  14.187   5.590 -0.1263  0.1908  0.2343
16614W        W33461  16.169   7.218  10.551 -0.1639 -0.1638  0.0975
16615W        W33462   1.448   8.187   2.653 -0.2315 -0.1965  0.1611
16616W        W33463  16.068  16.620  15.380  0.2162 -0.0171  0.1003
16617W        W33464  14.912   6.862   5.839  0.1168  0.1134 -0.0595
16618W        W33465   1.926  10.342  14.564 -0.2587  0.3792 -0.1956
16619W        W33466   0.195  11.192  14.756  0.1211 -0.3010  0.2014
16620W        W33467   1.518   2.140   2.757  0.0353  0.2037  0.1087
16621W        W33468  12.299   0.881   2.638  0.2444 -0.2228  0.0318
16622W        W33469  11.005  15.077  15.142  0.0752 -0.0939  0.0509
16623W        W33470  10.694   4.320  14.741  0.0600 -0.2479 -0.2764
16624W        W33471   4.865  17.899  14.722 -0.4491  0.1632  0.2084
16625W        W33472   2.763  12.279   3.932 -0.0436 -0.2830 -0.0093
16626W        W33473  10.965   4.867   2.170  0.3365  0.1551 -0.2095
16627W        W33474   7.606   7.759   2.077 -0.2763  0.0289 -0.0948
16628W        W33475  11.816   2.334   5.840 -0.2153 -0.1094 -0.0604
16629W        W33476  15.882   4.631   0.551  0.2586  0.2684  0.1759
16630W        W33477  17.564   2.527   2.795  0.2438 -0.0094  0.0873
16631W        W33478   7.890   4.705   3.685 -0.1366 -0.1060 -0.0767
16632W        W33479  11.716  13.350  13.417  0.0787 -0.0144 -0.2557
16633W        W33480  17.807   3.228   0.065  0.4158 -0.0216 -0.0003
16634W        W33481  14.956  17.842   2.791 -0.2302  0.0035 -0.0026
16635W        W33482  15.901  11.330  15.503 -0.0871  0.4313  0.1347
16636W        W33483   2.244   7.950  13.677 -0.2780 -0.3496 -0.1680
16637W        W33484  16.992   0.033  14.182  0.0529  0.1867 -0.1032
16638W        W33485   6.872  17.686   9.192  0.1208 -0.1340  0.0134
16639W        W33486   0.635  13.779  12.703  0.1689  0.0282 -0.3317
16640W        W33487   1.346  11.587   3.487  0.2045 -0.1089 -0.5204
16641W        W33488  12.504  13.319   4.835 -0.0121 -0.1181 -0.0806
16642W        W33489  17.516   8.353  13.860  0.1726  0.1109 -0.1847
16643W        W33490   6.829   8.248  12.127 -0.2027  0.2738 -0.1373
16644W        W33491   5.142   9.059  11.249 -0.2017  0.1560  0.0799
16645W        W33492   6.987  11.239  12.514  0.1426 -0.1096  0.0666
16646W        W33493  15.522   4.766   4.264  0.2230 -0.0695 -0.0552
16647W        W33494   1.684   0.594   5.873 -0.2761 -0.0990 -0.1055
16648W        W33495  10.007   9.131  13.439  0.0394  0.2209 -0.0368
16649W        W33496  14.504   3.932  14.153  0.0159  0.1201 -0.0562
16650W        W33497   0.672   9.335  14.600 -0.1827  0.2305  0.1658
16651W        W33498   9.753   2.848  12.004  0.2443  0.0803 -0.1825
16652W        W33499  10.991  14.698  14.326  0.0209  0.0493  0.3288
16653W        W33500   7.431  17.292   0.959 -0.1239  0.0148 -0.2803
16654W        W33501  15.739   2.995  15.354 -0.0792  0.0694 -0.2667
16655W        W33502   8.783  12.196  15.110 -0.0377  0.1003 -0.1799
16656W        W33503  17.353   0.840  12.738  0.0721  0.1763 -0.3916
16657W        W33504  16.807  15.301   0.629  0.0293 -0.3026  0.0690
16658W        W33505  10.661  12.155   1.797  0.1702 -0.0753  0.1420
16659W        W33506   3.125   6.199   3.644  0.0448 -0.1912 -0.1399
16660W        W33507   5.362   3.744   3.342 -0.1384  0.2400  0.1613
16661W        W33508   9.623  11.833  14.758 -0.2214  0.0873 -0.0972
16662W        W33509   9.419  10.784  12.676 -0.0750 -0.2042  0.1397
16663W        W33510  12.360   8.748   3.531  0.0479  0.0000 -0.0882
16664W        W33511   4.244  15.511   3.287  0.1541 -0.0227 -0.1458
16665W        W33512  10.669   5.193  13.604 -0.2021 -0.0430 -0.0809
16666W        W33513   6.552  11.287  12.096  0.3949 -0.2610 -0.2042
16667W        W33514  16.920   1.643  13.505 -0.0898  0.0232 -0.1176
16668W        W33515   9.746   7.644   3.235 -0.1238  0.1662  0.1769
16669W        W33516   2.349   6.354  14.357  0.3938  0.1300 -0.1489
16670W        W33517  13.756   0.867   1.675 -0.2400  0.1285 -0.1370
16671W        W33518  14.204  18.152   0.534 -0.3814  0.0382  0.1133
16672W        W33519  13.282   2.716  12.776  0.0634  0.2425  0.1018
16673W        W33520   7.503  13.212   1.478  0.0787 -0.1880 -0.0128
16674W        W33521   3.398  11.826   1.720  0.2334  0.2493  0.2579
16675W        W33522  12.113   0.865  11.880 -0.0034  0.0670  0.3032
16676W        W33523  11.574   5.987  14.646  0.0615  0.2750 -0.1811
16677W        W33524  11.057   9.851  11.727 -0.3272 -0.2970 -0.1607
16678W        W33525  13.175  18.844   2.327 -0.0230  0.0153  0.1922
16679W        W33526   4.712  14.462  11.554 -0.0656 -0.1541 -0.0082
16680W        W33527   8.788  12.538  13.381 -0.5293  0.1973  0.2298
16681W        W33528   8.548  12.787   5.178 -0.0239 -0.2600  0.0828
16682W        W33529   3.791   2.551   2.361  0.0456 -0.0722 -0.2163
16683W        W33530  16.326  11.400  15.145  0.3225  0.1049  0.1272
16684W        W33531   5.226  12.004   3.321  0.3425  0.0852  0.2578
16685W        W33532  13.031   3.952   1.094 -0.0294 -0.0481 -0.2812
16686W        W33533  12.159   7.730   1.186 -0.0283 -0.0688  0.3066
16687W        W33534   4.525   8.367   2.922 -0.1045 -0.0217 -0.0150
16688W        W33535  13.349   0.320  11.613 -0.0665  0.2931  0.0749
16689W        W33536  13.908   1.228  10.625  0.2851 -0.1030 -0.2318
16690W        W33537   4.230  11.622   1.559 -0.0438  0.0622 -0.0670
16691W        W33538  12.631  11.159   2.998  0.2218  0.2353  0.0095
16692W        W33539  13.405   9.370   5.100  0.0011 -0.0492  0.1432
16693W        W33540   7.596   3.927  12.471 -0.1268 -0.3000 -0.0931
16694W        W33541  12.988   7.602   0.427 -0.1968  0.0389  0.0090
16695W        W33542   0.959   6.613  13.562 -0.0343  0.1602 -0.2905
16696W        W33543  16.177   3.543  13.186 -0.3008  0.0843  0.3686
16697W        W33544  11.046   3.071  12.221 -0.1305 -0.0443  0.0966
16698W        W33545   2.290   1.501   2.874  0.1154  0.0795 -0.1722
16699W        W33546   5.814  17.018   1.664  0.1614 -0.0504 -0.0062
16700W        W33547   9.187   2.228  14.193 -0.1349 -0.3564  0.0508
16701W        W33548  11.649   8.876   2.840  0.1619 -0.0356  0.0615
16702W        W33549  12.942  16.596   1.488  0.2099 -0.0694 -0.0940
16703W        W33550  11.687  10.990  11.130  0.1958  0.1071  0.3628
16704W        W33551  13.939  15.824  13.211 -0.0406  0.1702 -0.2694
16705W        W33552  16.710  15.015   2.105 -0.1019  0.1253 -0.0024
16706W        W33553   4.400   7.996   1.039 -0.0753 -0.0379  0.3266
16707W        W33554  18.627  13.848  15.339  0.3102 -0.0573 -0.1588
16708W        W33555   0.072  16.857   0.566  0.0014  0.2738  0.2443
16709W        W33556  12.959   9.105   5.124 -0.3052  0.0387 -0.0668
16710W        W33557   7.877  11.990   0.090 -0.0976 -0.1658 -0.1057
16711W        W33558   6.052   4.069   4.558  0.1652 -0.1612 -0.0685
16712W        W33559  18.114   5.586  11.089  0.1658  0.1787 -0.2153
16713W        W33560  13.117   2.057  15.348  0.2211  0.0499 -0.1165
16714W        W33561   3.255   2.987   3.802 -0.1859 -0.6591  0.0061
16715W        W33562   2.648   8.236  13.888  0.1522  0.2668  0.0888
16716W        W33563  17.019  12.013  13.562 -0.2969  0.0721  0.0532
16717W        W33564   3.041  15.904  12.440  0.0735 -0.0365 -0.1121
16718W        W33565   0.247  17.217   4.472 -0.0518  0.2909  0.0477
16719W        W33566  18.420  17.966   3.591  0.0382 -0.0807 -0.1419
16720W        W33567  16.551  16.669  15.049  0.0868  0.2812  0.0295
16721W        W33568   8.009   5.106  11.176 -0.4555 -0.0529 -0.1277
16722W        W33569  10.602   9.370   3.967 -0.1043 -0.3619 -0.3590
16723W        W33570  18.558  11.428  14.718  0.2208  0.0693  0.0438
16724W        W33571   6.562   0.873  10.084 -0.0559  0.1206 -0.2073
16725W        W33572   5.703  16.394   1.060 -0.0272  0.1678  0.0508
16726W        W33573  17.335  13.538   1.910 -0.0184 -0.0053 -0.0633
16727W        W33574   4.890   7.787   3.102 -0.1889 -0.0747 -0.1038
16728W        W33575   0.994  18.639   5.591  0.0795 -0.1877  0.2394
16729W        W33576  10.357  14.450   9.898  0.2361 -0.1494 -0.0454
16730W        W33577   6.178   6.618   3.418  0.1920 -0.1990 -0.1408
16731W        W33578  15.239   5.514   2.639 -0.1391  0.3424  0.4356
16732W        W33579   8.927  16.573   0.345 -0.2682  0.3003 -0.0462
16733W        W33580  11.301  10.135   1.138  0.2987 -0.3170  0.4725
16734W        W33581   6.113   3.602  14.269 -0.2553  0.1512 -0.1761
16735W        W33582   6.008   9.201  14.988 -0.0907  0.0390 -0.0918
16736W        W33583  15.720  11.835   1.868 -0.0264 -0.3096 -0.3071
16737W        W33584   2.746  12.895  15.174  0.0367 -0.2746  0.1454
16738W        W33585   9.301   3.238   5.396 -0.0162 -0.1072  0.0637
16739W        W33586   3.674  17.962   5.241 -0.2417  0.2115  0.1614
16740W        W33587  13.680  15.569  12.831 -0.1719 -0.1444 -0.1981
16741W        W33588  10.724   2.590   2.726  0.2408 -0.2261 -0.2573
16742W        W33589  10.685  17.111  15.068 -0.1261 -0.2788 -0.1271
16743W        W33590   8.481   8.823   1.555 -0.3088 -0.3874  0.1750
16744W        W33591  13.632   0.862   3.874 -0.0487  0.0301 -0.0222
16745W        W33592   0.345  17.993  14.270  0.0433  0.2244 -0.1421
16746W        W33593  17.262   9.094   2.535  0.2939  0.1068  0.1970
16747W        W33594   7.080   7.189  15.322 -0.2204  0.3015 -0.0346
16748W        W33595  11.683  11.662   5.678 -0.4099 -0.1779 -0.1392
16749W        W33596   7.572   4.972   4.600  0.2689 -0.2365 -0.0477
16750W        W33597  14.410   4.806   0.020 -0.0035 -0.3281  0.1949
16751W        W33598  17.773   0.374   1.273 -0.2972  0.2320 -0.2865
16752W        W33599  13.672   2.273   4.469  0.3130 -0.0687  0.1503
16753W        W33600   6.283  15.132  12.843 -0.2502  0.3604  0.3002
16754W        W33601   9.902   4.000   2.361  0.0638  0.1570  0.1712
16755W        W33602   8.695   8.583   3.873  0.2429  0.0975 -0.0767
16756W        W33603   0.257  16.405  12.471  0.2094  0.1325 -0.1988
16757W        W33604  17.069   9.208   1.317  0.1072 -0.0459 -0.1112
16758W        W33605   8.590  18.011  14.785  0.2240 -0.2337  0.2557
16759W        W33606   0.780   7.952   0.079 -0.2342  0.2077 -0.0062
16760W        W33607   9.666   2.633  10.908 -0.0870 -0.1083 -0.1900
16761W        W33608  15.057  10.458   1.249  0.0845  0.0743  0.1180
16762W        W33609   2.539  18.784  14.238  0.1428  0.3088  0.2255
16763W        W33610  11.290  11.123   4.218  0.0323  0.1630  0.0982
16764W        W33611  12.210   1.451  14.862  0.0691  0.1399  0.1155
16765W        W33612  15.088  15.402   4.653 -0.3187 -0.3472  0.0634
16766W        W33613  11.128  15.326   3.492 -0.2289  0.0592 -0.1918
16767W        W33614   8.232   9.598   2.961  0.1294  0.0237 -0.1786
16768W        W33615  13.271  17.089  11.327 -0.2326  0.0052  0.0854
16769W        W33616  11.621   9.321   1.888  0.1700 -0.0752  0.3587
16770W        W33617  10.171  13.925  11.786 -0.1003 -0.1262  0.0940
16771W        W33618   8.452  10.002   2.791 -0.1469 -0.0577 -0.2299
16772W        W33619  13.549  13.840   3.189 -0.0813 -0.0979 -0.0680
16773W        W33620  10.397   1.544  15.341 -0.0513 -0.1205 -0.1873
16774W        W33621   7.050   1.452   5.349  0.1551 -0.2070 -0.3181
16775W        W33622   6.161   4.429   3.646 -0.2271  0.0962  0.1041
16776W        W33623  16.235  18.576   2.134 -0.2359 -0.0349  0.2486
16777W        W33624  16.294   9.318   1.636  0.0188  0.0590  0.2228
16778W        W33625  12.232  17.964   2.461 -0.1609 -0.1654  0.0500
16779W        W33626   8.756  16.712  10.365  0.0122 -0.2294  0.0500
16780W        W33627  17.839  10.777  13.696  0.0079 -0.0646 -0.2544
16781W        W33628   1.842  11.749  11.943 -0.2166  0.1339 -0.1897
16782W        W33629   4.321  16.483  13.058  0.0680  0.1513 -0.2077
16783W        W33630  11.784   2.293  14.091 -0.1351 -0.0621  0.0209
16784W        W33631   4.406   0.662  14.102  0.2195  0.3850  0.2182
16785W        W33632  16.525   1.517   2.408  0.1009  0.3420  0.0863
16786W        W33633   5.297   1.637   5.561  0.2053  0.0692 -0.1256
16787W        W33634  11.426   6.085  11.223  0.2804 -0.1775  0.1451
16788W        W33635  13.392   4.890   3.600 -0.5290  0.1188 -0.2262
16789W        W33636   7.717   5.646  11.697  0.0224 -0.4437  0.3935
16790W        W33637  11.176   4.863   0.748 -0.1404  0.0319 -0.0758
16791W        W33638   3.299   1.186   4.089  0.0436 -0.0708 -0.2057
16792W        W33639  12.446  13.561  15.039  0.4062  0.3582  0.1339
16793W        W33640  14.326  16.022   2.328 -0.2119 -0.1584 -0.0638
16794W        W33641  10.539   7.605   3.853  0.3555 -0.3457  0.0164
16795W        W33642   1.480   4.192   2.624  0.1485 -0.0332 -0.2374
16796W        W33643   8.057   8.135   3.580  0.1980 -0.1555  0.3044
16797W        W33644   0.014  11.465  12.731  0.0288 -0.2513 -0.0359
16798W        W33645   3.472  12.744   0.425  0.3550 -0.1087  0.1968
16799W        W33646   8.621   5.317   1.438  0.4457  0.0290  0.0763
16800W        W33647  17.450   5.748  13.059 -0.1550  0.2500 -0.2365
16801W        W33648   5.658   9.520  15.193 -0.1421  0.0670 -0.3060
16802W        W33649   4.132  18.049   0.380  0.0535  0.2074  0.0335
16803W        W33650   5.669   0.447   5.215  0.1357 -0.4600 -0.1071
16804W        W33651   9.790  17.299  12.415 -0.2170 -0.1093  0.1176
16805W        W33652  13.927  10.117   1.388  0.4085 -0.1622 -0.1255
16806W        W33653  18.776  12.493   0.327  0.3789 -0.0480  0.1849
16807W        W33654   2.695  12.964   4.080  0.2612  0.0892  0.1226
16808W        W33655  13.544  15.645   2.411 -0.0056  0.1005  0.3400
16809W        W33656   8.597  15.186  11.442 -0.0826 -0.0917 -0.1664
16810W        W33657  17.495   5.169   1.314  0.1385 -0.0987  0.0558
16811W        W33658  11.975  12.115   4.750 -0.1811  0.0707 -0.0889
16812W        W33659   9.162   7.365  13.607  0.0211 -0.2451  0.0207
16813W        W33660   1.121  11.500  15.214  0.0340  0.1412  0.3386
16814W        W33661  14.975   9.018  14.220 -0.1636 -0.0348 -0.1361
16815W        W33662   7.767  17.631  15.375  0.0570 -0.1164 -0.0287
16816W        W33663   8.045  16.044   4.854 -0.0420  0.1297 -0.2058
16817W        W33664   1.917  15.253   1.713  0.1569  0.1178 -0.0124
16818W        W33665  11.939  18.708  12.892 -0.1725 -0.1020 -0.0380
16819W        W33666   0.227  12.649  11.888 -0.2181  0.0313 -0.0680
16820W        W33667   6.099  15.971  13.969 -0.2266  0.1859 -0.0425
16821W        W33668  12.986   0.367  14.007 -0.0732  0.0852 -0.0068
16822W        W33669   5.494   1.610   1.070 -0.0627 -0.1280 -0.2765
16823W        W33670  14.083   0.056   2.578  0.1503  0.0171  0.1766
16824W        W33671  17.489  12.558   0.921  0.0420 -0.0164 -0.0932
16825W        W33672   7.269  14.995  11.008 -0.1210 -0.2098 -0.2257
16826W        W33673  13.803  16.653  12.869  0.0293 -0.1754  0.0307
16827W        W33674  15.521   3.549  11.968 -0.1829 -0.0697  0.2547
16828W        W33675  16.228  14.929   1.186 -0.2391 -0.1002 -0.1695
16829W        W33676   1.592  15.008   3.107 -0.1033  0.2401 -0.1439
16830W        W33677  11.824   7.830   4.409 -0.0995  0.2011  0.0684
16831W        W33678  16.310   7.451  13.502 -0.4070 -0.0407  0.2280
16832W        W33679   1.751  18.292  14.577  0.0478 -0.1778 -0.1798
16833W        W33680   1.157  16.434  12.320 -0.0412  0.0235 -0.0950
16834W        W33681  18.131  11.209  14.562  0.0546  0.3600 -0.1134
16835W        W33682  17.085  16.978  14.757  0.1754  0.1349 -0.3048
16836W        W33683   2.382   8.885   3.353  0.0497  0.2765  0.3319
16837W        W33684  11.100  16.190   1.128  0.0695 -0.1065 -0.1535
16838W        W33685   1.170  15.369  12.094  0.1571  0.0262 -0.1830
16839W        W33686   3.904   5.697   4.977  0.4186  0.1469 -0.1751
16840W        W33687  17.167  11.402   0.633 -0.0049 -0.2519  0.1921
16841W        W33688   3.733   8.842   2.557  0.3729  0.2899  0.2724
16842W        W33689  12.481  13.524  13.687  0.0517 -0.0473  0.2295
16843W        W33690  18.690  12.965  11.783 -0.1642  0.0883 -0.1457
16844W        W33691  17.829  10.183   2.127  0.1922 -0.3318  0.1723
16845W        W33692   7.721  13.774  13.176 -0.0696  0.2179 -0.1904
16846W        W33693  10.338  17.855   2.974 -0.2719 -0.0594  0.2493
16847W        W33694   3.600   5.385  11.849 -0.2191 -0.0936  0.0371
16848W        W33695  14.927   5.125  11.456 -0.5389  0.0694 -0.4940
16849W        W33696  18.063  17.590  10.127  0.2550  0.1497  0.1224
16850W        W33697   9.428   7.671  15.048  0.2034 -0.1143 -0.0803
16851W        W33698  18.286   8.458  12.107 -0.2298 -0.1198  0.2063
16852W        W33699   5.859  10.903   4.275 -0.1958  0.0648 -0.3940
16853W        W33700   3.072   3.426   4.010  0.0353  0.2489  0.4095
16854W        W33701   8.675  10.657  12.969 -0.1209  0.4064  0.0810
16855W        W33702  17.578  13.864  12.081 -0.2168 -0.1279  0.1703
16856W        W33703  10.077  17.799   4.460 -0.3303 -0.3649 -0.0063
16857W        W33704  10.360  17.544  12.960  0.0496  0.4417  0.0051
16858W        W33705  12.639  10.586  14.153  0.2426  0.3121 -0.2809
16859W        W33706  18.181   0.989  12.246  0.0305 -0.2340 -0.2019
16860W        W33707   6.614  16.795  14.384 -0.0935  0.0208 -0.2269
16861W        W33708  13.602   9.003   2.908  0.0595 -0.0994 -0.1907
16862W        W33709   3.125  16.432  14.299  0.1617  0.1009 -0.0709
16863W        W33710  16.875  17.468  11.608 -0.1351 -0.0203 -0.1417
16864W        W33711   6.919  14.566   2.022  0.2306  0.0204  0.2918
16865W        W33712  12.969  14.611   4.356 -0.0909  0.0940 -0.1561
16866W        W33713  11.716   7.449   1.214 -0.1592  0.0739  0.2052
16867W        W33714  10.363   2.439  11.601 -0.0883 -0.0399  0.2657
16868W        W33715   9.495   7.111   1.110  0.2020 -0.1145  0.0572
16869W        W33716   9.253  13.382   2.012 -0.0733 -0.0019  0.0507
16870W        W33717  10.611  11.818  11.676 -0.0241 -0.1221  0.0367
16871W        W33718  18.389  17.254  13.352 -0.0694 -0.1314 -0.2310
16872W        W33719  13.458   3.945   3.369 -0.0741  0.1920  0.0896
16873W        W33720  12.479   0.608  11.737  0.1971  0.0064  0.2202
16874W        W33721   6.947   9.364  14.714  0.1142  0.0204 -0.2188
16875W        W33722  13.628   3.405   2.660  0.0455 -0.1777 -0.0007
16876W        W33723  11.399   4.537  13.515  0.0976  0.1418  0.0387
16877W        W33724   9.372  18.302   1.870 -0.1413 -0.2709 -0.0453
16878W        W33725   4.657   4.811   1.292 -0.1316 -0.2944 -0.1373
16879W        W33726   6.173  14.731   2.372 -0.0970 -0.1298 -0.1399
16880W        W33727  13.065   6.231  12.207 -0.0972  0.3344  0.0516
16881W        W33728  15.948   2.830   3.629 -0.1007  0.0152  0.2591
16882W        W33729   2.662  16.468   4.480 -0.3078  0.3113  0.0837
16883W        W33730   1.329  10.733  13.699 -0.2859  0.2526  0.0472
16884W        W33731  17.087   6.449  15.044 -0.0581 -0.2807  0.1760
16885W        W33732  17.847   7.549   0.087  0.1477  0.0436  0.2068
16886W        W33733   3.595  15.194   2.533  0.0528  0.0036  0.0895
16887W        W33734  12.591   4.720  11.358 -0.1175  0.0076 -0.0519
16888W        W33735  18.194  14.682   0.700 -0.1642  0.1003  0.0926
16889W        W33736   3.060  13.548  15.446  0.3325 -0.4336  0.0137
16890W        W33737   7.897   7.732  13.877  0.4382  0.0428  0.0838
16891W        W33738  13.716  18.541   4.072  0.0296 -0.1768  0.1361
16892W        W33739   0.598   4.746   5.051  0.4310 -0.2794 -0.3923
16893W        W33740  11.155   7.644   4.791  0.2084 -0.1266  0.2203
16894W        W33741   9.311   3.101   3.606 -0.2095 -0.1792  0.1079
16895W        W33742  14.086   0.973   4.468  0.0764 -0.2272  0.0199
16896W        W33743   8.825  15.927   3.670 -0.0713 -0.3132  0.3712
16897W        W33744   3.792   6.648   5.859  0.0298  0.1428  0.0603
16898W        W33745  15.582   4.141  13.490 -0.0768 -0.0425  0.1382
16899W        W33746  11.542   1.658   2.495 -0.2811 -0.0976  0.0362
16900W        W33747  16.396  18.262  15.466  0.2229  0.4484  0.2584
16901W        W33748  12.069   6.840  11.763  0.1169  0.0119 -0.0767
16902W        W33749   5.867  10.754  15.077  0.3137 -0.0252 -0.0643
16903W        W33750  17.219   8.673   0.555 -0.1901  0.2962 -0.0267
16904W        W33751   1.158   1.873   3.536 -0.1229  0.1930 -0.0035
16905W        W33752   2.698  14.288   3.443  0.3144  0.1154  0.1855
16906W        W33753   7.644  13.240  13.557 -0.2160  0.1389 -0.0196
16907W        W33754   6.584   1.192   1.027 -0.3894  0.0651  0.1858
16908W        W33755  13.775  11.866  12.499 -0.2228 -0.0941  0.0247
16909W        W33756  15.825   4.282  15.251 -0.1084  0.0662 -0.1150
16910W        W33757   6.530  13.298  12.606  0.2620  0.0820  0.0237
16911W        W33758  14.177  14.735  12.786  0.1112  0.1266  0.3064
16912W        W33759  14.368   3.784  13.365 -0.1477 -0.0330 -0.0255
16913W        W33760  10.542  15.225  12.478  0.1312  0.0075  0.2852
16914W        W33761   0.292  10.088   3.735 -0.2835 -0.3104  0.0585
16915W        W33762   1.238   7.562   3.810  0.0664  0.2098 -0.1773
16916W        W33763  18.413   9.167  11.492 -0.2029 -0.1763  0.0616
16917W        W33764   9.165   8.093   5.608  0.0620  0.3327 -0.1025
16918W        W33765   0.399   3.731  13.685  0.0308 -0.0000 -0.0607
16919W        W33766   4.639   6.260   2.896 -0.1579  0.0183 -0.2878
16920W        W33767  15.550  17.335   0.003 -0.0519  0.1212  0.1826
16921W        W33768  17.513  17.124   3.789  0.0235  0.0040  0.0188
16922W        W33769  11.708  10.449   1.195  0.1557  0.0644 -0.2318
16923W        W33770   7.773   7.677   3.588 -0.2245 -0.1843  0.1308
16924W        W33771   5.586  13.887   0.940 -0.0150  0.0281 -0.1669
16925W        W33772   5.454   4.590   0.820 -0.0751  0.0107  0.0791
16926W        W33773   4.229  16.304   1.075 -0.2497  0.0412  0.2008
16927W        W33774  16.939   6.158   4.920 -0.1561 -0.4197  0.0318
16928W        W33775  12.537   0.968  13.233  0.0716 -0.2579  0.0975
16929W        W33776  16.057   8.248  13.009  0.1651  0.1043  0.0344
16930W        W33777   1.873   9.087  11.072  0.1533 -0.0503  0.0649
16931W        W33778  12.771   9.094   0.591  0.0577  0.1665 -0.2269
16932W        W33779  11.920  15.990  15.153 -0.2045 -0.1116  0.1818
16933W        W33780  14.852  12.136   1.731  0.2937  0.2491 -0.1636
16934W        W33781   4.179   1.846   1.166  0.3093  0.1243 -0.1215
16935W        W33782   1.048  12.029   2.221  0.2587 -0.2031 -0.0287
16936W        W33783   5.600   4.783  12.656 -0.0054  0.4053  0.2242
16937W        W33784   2.628  12.845   3.546 -0.1279 -0.1346  0.2340
16938W        W33785  11.207  14.497   5.550  0.1657 -0.0455  0.3765
16939W        W33786  11.530   4.537   4.595  0.1515  0.0727 -0.0670
16940W        W33787   4.941  11.224   2.688 -0.1946  0.0182 -0.2156
16941W        W33788  17.672   7.776   5.204 -0.3059  0.2458  0.2190
16942W        W33789   3.245  11.262   4.951  0.2073 -0.4115 -0.1545
16943W        W33790  16.298  18.663   3.013 -0.1415  0.2770  0.1071
16944W        W33791   0.293   2.108  14.119 -0.2482 -0.2982  0.0936
16945W        W33792  10.744  17.737  13.819  0.1836  0.1106  0.2135
16946W        W33793   0.963   9.028   3.961 -0.0468  0.0440 -0.2149
16947W        W33794  14.256   8.608   0.829  0.0528 -0.1316  0.2252
16948W        W33795   0.829   4.706  14.205  0.2526 -0.2706 -0.0590
16949W        W33796  15.357  14.480   5.815 -0.3202 -0.0343  0.2127
16950W        W33797   9.824  10.132   3.820 -0.2410 -0.1890  0.0975
16951W        W33798   2.897   6.359   0.607  0.1090  0.0247  0.1967
16952W        W33799  16.422  15.131   4.199 -0.0759 -0.0277  0.1178
16953W        W33800  10.871  10.634  12.154  0.2015 -0.1709 -0.1160
16954W        W33801  17.395   0.646   0.965 -0.0832 -0.2787 -0.2162
16955W        W33802  15.776  10.798  12.043 -0.0354  0.0869  0.2067
16956W        W33803  15.069   7.504  10.286  0.1951  0.3132  0.2752
16957W        W33804  17.563   6.767   0.744  0.1665  0.1279  0.0062
16958W        W33805   2.452  17.861  11.860 -0.0046  0.1460 -0.1887
16959W        W33806   1.676  11.410   2.467  0.0908 -0.2039 -0.2727
16960W        W33807   0.776   7.554  13.486 -0.4501 -0.0753 -0.0945
16961W        W33808  16.645   7.932   5.203  0.3275  0.3432 -0.1847
16962W        W33809   0.130  12.169   3.128  0.0875 -0.2162 -0.2202
16963W        W33810  18.454   3.820   2.121  0.1887  0.1454  0.0796
16964W        W33811   0.382   2.638  15.051  0.0629 -0.2818 -0.1740
16965W        W33812  13.444   4.931  13.930 -0.3353  0.1042 -0.0580
16966W        W33813   3.977  10.365  14.684  0.1160  0.1242  0.0358
16967W        W33814   7.953   5.838   4.287 -0.2181 -0.0904  0.2864
16968W        W33815  16.049   9.713   4.956 -0.1437 -0.1045 -0.0256
16969W        W33816   8.370   3.825   0.909 -0.0268 -0.1369  0.1077
16970W        W33817  14.280   3.029   1.045 -0.2200  0.2279  0.1789
16971W        W33818   1.722   4.878   4.325 -0.2586  0.1456 -0.3161
16972W        W33819  15.297   5.518  12.529 -0.3111 -0.2517  0.0145
16973W        W33820   0.970   5.877   2.505  0.2963 -0.1392 -0.1060
16974W        W33821   0.928  10.352   2.894 -0.1753  0.0876  0.1302
16975W        W33822  14.878  13.338   0.578  0.2761 -0.1989  0.0680
16976W        W33823   2.930   0.868   1.279  0.0966 -0.1230 -0.0476
16977W        W33824   0.500  18.770   0.658 -0.3395 -0.1092 -0.0468
16978W        W33825  12.074  15.258   4.839  0.2024  0.0267 -0.3038
16979W        W33826   9.510   5.235   0.279 -0.0014  0.0526  0.0018
16980W        W33827  12.034  15.718   4.395  0.1236  0.1234 -0.1780
16981W        W33828   7.525  10.480   3.484 -0.0110 -0.0756 -0.3826
16982W        W33829  10.343  15.110   3.157  0.0554  0.2254 -0.2029
16983W        W33830  10.978   0.937   5.079 -0.0999 -0.0388  0.1386
16984W        W33831  10.115   6.866   0.534  0.0595 -0.2275 -0.1326
16985W        W33832  17.170  11.676   1.049  0.2975  0.2104 -0.0727
16986W        W33833  17.638   6.223   1.732  0.0930  0.0369 -0.1315
16987W        W33834  17.198  13.054   4.637 -0.1601  0.1876 -0.2098
16988W        W33835  13.535   1.441   4.687  0.0552 -0.3425  0.2017
16989W        W33836  11.132   8.787   2.738 -0.0818  0.1053  0.2178
16990W        W33837   2.756  11.386   3.365 -0.0179  0.1252  0.0922
16991W        W33838   5.142  15.045  11.328 -0.0320  0.2547 -0.0181
16992W        W33839   4.663   4.108  11.682  0.0505  0.2327 -0.1852
16993W        W33840   7.225  13.742   3.933  0.2940  0.1053 -0.1291
16994W        W33841   0.834  12.723   4.448  0.0225  0.1116  0.0033
16995W        W33842   5.191  15.223   2.715 -0.2578  0.0615  0.3414
16996W        W33843  12.952  18.069  14.781  0.2227 -0.3951 -0.2985
16997W        W33844   7.475   4.553   4.809 -0.1852  0.0577 -0.1662
16998W        W33845   1.216   3.003   4.301  0.0459 -0.0867  0.0940
16999W        W33846  16.766   5.734  13.760  0.0517  0.0924  0.1373
17000W        W33847   7.954   0.552  13.891 -0.0881  0.0269 -0.0680
17001W        W33848   9.346   1.265  15.216  0.0148 -0.0267  0.5149
17002W        W33849   6.428  14.840   1.337  0.0582  0.1794 -0.0921
17003W        W33850  15.035   1.498   0.992 -0.2354  0.1392  0.0927
17004W        W33851   0.837  12.508   3.069  0.1152  0.2103  0.2721
17005W        W33852  10.237  13.665   3.212 -0.1111  0.2390  0.1701
17006W        W33853  15.508  10.570   4.534 -0.1775 -0.0843 -0.1309
17007W        W33854  17.974  12.166   2.331 -0.0162  0.0611 -0.1918
17008W        W33855  12.698   6.709   0.189  0.0580 -0.1666  0.1601
17009W        W33856  17.280   1.476  14.812 -0.0776 -0.1893  0.0822
17010W        W33857   1.779   6.465  15.210  0.0979 -0.1791  0.1902
17011W        W33858   1.752   6.262   3.648 -0.4748 -0.0487  0.2254
17012W        W33859  14.462   7.143  15.262  0.2376  0.0482  0.3051
17013W        W33860  15.760  10.051   0.407  0.1104 -0.0725  0.3359
17014W        W33861  18.407   0.612   0.143 -0.0592 -0.3689  0.1970
17015W        W33862   0.637  12.962   0.796 -0.1101  0.1893  0.3647
17016W        W33863   0.992   9.972  12.202  0.0266  0.1584  0.1192
17017W        W33864   7.053  16.161  10.898 -0.3442  0.1375 -0.1354
17018W        W33865  10.783   7.218  11.313 -0.0789  0.0646 -0.0716
17019W        W33866   6.110   9.807  14.320  0.1019  0.1477  0.1802
17020W        W33867  12.043   0.709  13.166  0.0851  0.1664 -0.1666
17021W        W33868   4.152   3.689   1.891  0.0899 -0.0908 -0.0070
17022W        W33869   4.626  14.363  10.006  0.2554 -0.3968 -0.1628
17023W        W33870  18.410   1.739  15.491  0.0595 -0.0940  0.0324
17024W        W33871   9.596  16.843  14.106 -0.2454  0.1541 -0.2006
17025W        W33872   9.918  12.821   2.083  0.3136 -0.2954  0.0129
17026W        W33873   8.154  17.575   1.362  0.0293 -0.0662 -0.2696
17027W        W33874   9.917  12.317   4.713  0.0854  0.2249 -0.3512
17028W        W33875   0.372  18.479  12.579 -0.2300 -0.4956 -0.0546
17029W        W33876  10.001   5.045   2.614  0.2250 -0.2821 -0.2213
17030W        W33877   3.659  10.718  14.898  0.4483  0.1865  0.3724
17031W        W33878  16.610  18.343  13.566  0.0870 -0.1046 -0.1684
17032W        W33879  15.403   1.726  14.483  0.3310 -0.1023  0.1731
17033W        W33880   8.717  11.479   2.448  0.1575  0.0705 -0.1111
17034W        W33881  12.855   8.084  11.502 -0.4326  0.0408  0.0774
17035W        W33882   1.813  14.483   0.484  0.0316 -0.2261  0.1650
17036W        W33883  15.288   4.354   4.400 -0.0952  0.1344  0.7218
17037W        W33884  13.771  18.278  11.712  0.0486 -0.2460  0.1273
17038W        W33885  18.126  17.617  10.741 -0.1184  0.2734 -0.1998
17039W        W33886   8.166   1.870   3.935 -0.0225 -0.0560 -0.0330
17040W        W33887   7.321   8.745  13.254 -0.1380  0.1996 -0.0586
17041W        W33888   7.827   1.400  13.917 -0.4553 -0.0079 -0.2252
17042W        W33889   6.955   6.153   1.082 -0.1207  0.2891  0.0378
17043W        W33890  10.783   5.805   0.530 -0.3271 -0.0386 -0.2243
17044W        W33891  14.406   7.893  11.193 -0.1062 -0.1614 -0.0789
17045W        W33892   4.577   7.590  12.321 -0.4502 -0.1119  0.3892
17046W        W33893  15.216   7.035  12.477  0.3019 -0.4237 -0.1239
17047W        W33894   0.391   4.535  15.464  0.1261 -0.1561  0.0417
17048W        W33895   1.235   8.675  14.838 -0.0807 -0.1370  0.0821
17049W        W33896   3.997   1.514  13.177  0.0639 -0.3345  0.0786
17050W        W33897   8.260   2.176  13.837 -0.3172  0.1432 -0.1108
17051W        W33898   6.485   7.402  12.020 -0.2437 -0.4439 -0.0573
17052W        W33899  17.053   9.212   0.716  0.2128 -0.2505 -0.2582
17053W        W33900  11.248   0.824   2.262 -0.0997  0.3198  0.0559
17054W        W33901   0.957  14.602   2.098  0.0328  0.0167 -0.1117
17055W        W33902  16.441   9.867  15.339 -0.0314  0.1789  0.0345
17056W        W33903   7.189  17.939  13.172 -0.0691 -0.1291  0.2491
17057W        W33904  17.485   8.499   1.351  0.2472 -0.0652 -0.2557
17058W        W33905  17.267  12.054   2.827  0.2087 -0.0515  0.2823
17059W        W33906   8.833   6.369   1.683  0.2731 -0.0616 -0.1214
17060W        W33907  12.077  11.255  14.362 -0.0704  0.1501 -0.1340
17061W        W33908  17.218  11.769   4.807 -0.0216 -0.0516 -0.4231
17062W        W33909   1.754  18.751  14.754 -0.2036 -0.0133 -0.1519
17063W        W33910  18.103   6.492   1.720  0.2916  0.0860 -0.0444
17064W        W33911   3.148   9.924   5.410  0.0583 -0.0140 -0.4331
17065W        W33912  11.871  17.293   1.080  0.1362 -0.2145 -0.0564
17066W        W33913  13.561  17.284   4.863 -0.0006  0.0680 -0.1280
17067W        W33914  18.289   2.012   1.412  0.1390  0.1025 -0.1855
17068W        W33915  13.867   8.425   2.870 -0.0267  0.3082 -0.1307
17069W        W33916  14.125  17.904  14.520  0.1102 -0.1207 -0.0739
17070W        W33917   6.240  14.317   5.474  0.1302  0.6853 -0.0336
17071W        W33918  15.647   7.741  14.422 -0.1788 -0.0051  0.0329
17072W        W33919  14.705   5.863  13.196  0.1516 -0.0996 -0.1772
17073W        W33920  14.124  18.790  12.281  0.0524 -0.0687  0.1179
17074W        W33921   1.698  13.159   3.028 -0.1070  0.1850 -0.3018
17075W        W33922  12.598   9.244  11.342  0.0625 -0.1625  0.0952
17076W        W33923  17.951  18.819  12.583 -0.4017  0.0523  0.0089
17077W        W33924  14.303   8.688  13.671 -0.1065  0.3421  0.0795
17078W        W33925  11.325   3.162  13.124  0.2525 -0.0931 -0.2517
17079W        W33926  14.699   8.508  15.063 -0.0557 -0.1438 -0.1348
17080W        W33927  18.808   4.736  12.635  0.1741 -0.1399  0.1432
17081W        W33928   9.910   1.859  15.370  0.3859  0.0131  0.0884
17082W        W33929   3.609  10.055   4.543 -0.2761  0.2276  0.4167
17083W        W33930   8.412  13.310   3.316 -0.2633 -0.1392  0.0930
17084W        W33931  13.415   8.535   3.051  0.1395  0.2830 -0.2800
17085W        W33932  15.953  15.727   0.385 -0.2045 -0.3569  0.2182
17086W        W33933   6.683   5.207  14.250  0.1081 -0.1450 -0.0181
17087W        W33934  16.886   9.988  15.414  0.0615  0.0580 -0.2400
17088W        W33935  16.472   2.819   0.601  0.5296  0.4172  0.0847
17089W        W33936  11.140  15.484  10.915  0.3212  0.2319 -0.0925
17090W        W33937   2.628   8.885  13.582  0.1287 -0.2143  0.0964
17091W        W33938   4.933  16.788  13.951  0.1504 -0.0339 -0.1267
17092W        W33939   9.421   2.213   2.724 -0.1445  0.0424 -0.1098
17093W        W33940  15.218  14.983   4.465  0.2863  0.2240 -0.3640
17094W        W33941   5.791   5.506  11.729 -0.0199  0.2697 -0.3197
17095W        W33942  13.401   3.479   1.972  0.3562 -0.4327  0.0770
17096W        W33943  17.232  11.828  12.595  0.0620 -0.1174 -0.2942
17097W        W33944   1.224  17.489  10.697 -0.0703  0.2182  0.0860
17098W        W33945   7.482  16.699   1.446  0.0515 -0.3465  0.0800
17099W        W33946  15.959  15.171  14.395  0.1148  0.0545  0.3080
17100W        W33947  11.733  18.171  11.755 -0.2286  0.1997  0.1492
17101W        W33948   1.734  17.622   1.400 -0.2332  0.0794  0.1637
17102W        W33949   1.916  13.685  11.967  0.0340 -0.0004  0.0519
17103W        W33950   7.989  15.085  13.054 -0.3725 -0.0234  0.0131
17104W        W33951  14.021   6.928  15.257  0.0625  0.0893  0.1071
17105W        W33952  10.292  12.332   2.976  0.3431 -0.0406 -0.1254
17106W        W33953   0.005  10.335   2.446  0.1223  0.1632  0.1553
17107W        W33954  16.891  15.827   0.600 -0.1599  0.2134  0.0020
17108W        W33955   4.427  10.498   3.737 -0.0952 -0.2131 -0.0472
17109W        W33956   8.611   0.619   1.109  0.1039  0.0743  0.0787
17110W        W33957   1.840  16.109  12.809 -0.2319 -0.2576  0.1570
17111W        W33958   1.564   1.332   3.078  0.2842  0.0982  0.0219
17112W        W33959   8.259  17.648   0.576  0.0758  0.0843  0.0718
17113W        W33960  13.121  16.664  13.717 -0.3213 -0.3127  0.1120
17114W        W33961   5.642  10.948   2.014  0.2319 -0.1447 -0.1700
17115W        W33962  11.367   9.436   0.717 -0.0580  0.1614 -0.2812
17116W        W33963   0.381  18.123   0.267 -0.1521  0.2713  0.2771
17117W        W33964   2.753   6.889   5.018  0.2411 -0.2031  0.0573
17118W        W33965   1.054  17.821   2.765  0.0313 -0.0788 -0.3988
17119W        W33966  12.683   4.490   3.905  0.1678 -0.0058 -0.1075
17120W        W33967   6.166   6.011   1.648  0.0291  0.0745 -0.0103
17121W        W33968   4.485   5.939  12.029  0.1037 -0.3128  0.0438
17122W        W33969   6.330   1.806   3.231  0.0239  0.2605 -0.0480
17123W        W33970   5.912  14.887   1.955  0.0912 -0.2131  0.1309
17124W        W33971  17.778   7.091  11.804 -0.0242  0.0169  0.0037
17125W        W33972   3.892  18.209   4.117 -0.1512  0.1725  0.0500
17126W        W33973  10.915   6.927  10.851 -0.0491  0.1478 -0.0587
17127W        W33974  11.338  13.587   0.375  0.0750 -0.0262 -0.0374
17128W        W33975   2.599  17.001  15.536 -0.1963  0.0565 -0.1039
17129W        W33976   4.978  13.605   1.577  0.1703  0.0236  0.0423
17130W        W33977   0.387  13.692   3.440 -0.0283  0.2657 -0.0334
17131W        W33978  11.626  10.915  13.369 -0.3583  0.1067 -0.4092
17132W        W33979  18.639   6.668  12.825  0.0214 -0.0179 -0.0990
17133W        W33980   3.280   1.121  11.719  0.0621  0.1156  0.1382
17134W        W33981  15.498  15.541   9.384  0.1761 -0.1853 -0.1269
17135W        W33982   5.602  12.258  12.287  0.1628  0.1087  0.1976
17136W        W33983  12.261  12.055  14.779 -0.1644 -0.1130  0.1224
17137W        W33984   0.670   6.406   9.940  0.2080  0.4400  0.0860
17138W        W33985  13.717  16.165   3.441 -0.0566 -0.1632 -0.1096
17139W        W33986   3.013   1.354   3.583 -0.1302 -0.3880 -0.0479
17140W        W33987   7.787   2.110  11.562  0.0177  0.0534  0.0734
17141W        W33988  10.896   7.184   0.342 -0.0778  0.1278  0.0404
17142W        W33989  16.727  18.151  12.976 -0.2630 -0.0493 -0.1722
17143W        W33990   6.218  14.024   3.203  0.2121  0.1017 -0.3212
17144W        W33991  11.550  15.304  11.106  0.0554  0.0913  0.0248
17145W        W33992   6.584  14.707   3.046  0.5685  0.3767 -0.2241
17146W        W33993  11.014   1.880   4.017 -0.1405  0.2108 -0.1298
17147W        W33994   3.309  15.659   2.229  0.0764  0.0424 -0.0917
17148W        W33995   8.923   4.719  11.323 -0.0052 -0.1127  0.1535
17149W        W33996   4.458  10.191   1.999  0.0460  0.1975  0.2437
17150W        W33997   6.724   2.984  14.533 -0.0496 -0.0246 -0.2651
17151W        W33998   9.606  15.236   3.644 -0.2816 -0.1632  0.1911
17152W        W33999  12.632  11.184   1.580 -0.0617  0.4051 -0.2060
17153W        W34000  14.622  17.363   4.194  0.1852  0.2021  0.1455
17154W        W34001  10.957   3.008  13.485 -0.0538 -0.1407 -0.1333
17155W        W34002   1.752   7.668   4.464  0.1139 -0.1428 -0.0347
17156W        W34003  12.316   2.735  14.780 -0.1146 -0.0373 -0.0384
17157W        W34004  12.685  14.871   0.778 -0.3136 -0.0495 -0.0248
17158W        W34005   5.465   5.128  11.639  0.0711 -0.2799  0.0853
17159W        W34006   7.740   0.190  14.266  0.0664  0.2168  0.0542
17160W        W34007   5.199  12.448   2.908  0.0612  0.5096 -0.1413
17161W        W34008  13.082   8.424   0.127 -0.0750 -0.0924  0.1573
17162W        W34009   7.308   5.955  13.779 -0.0763  0.1333  0.2005
17163W        W34010   2.297   6.600  13.925 -0.0242  0.0905 -0.3267
17164W        W34011   2.786  17.616   3.309 -0.1197 -0.0205  0.0407
17165W        W34012   7.107  16.464   4.688 -0.0228  0.1765  0.1355
17166W        W34013  14.905   1.609  10.291 -0.3537  0.1537  0.2279
17167W        W34014   5.172  12.218  14.597  0.1741  0.2170 -0.1194
17168W        W34015  14.447   8.955   2.537  0.0562 -0.0004  0.1085
17169W        W34016   5.045  17.880  13.029 -0.1661  0.1729 -0.0278
17170W        W34017  10.685  13.447   2.998  0.0703 -0.3209  0.2314
17171W        W34018  10.406   3.728  13.126  0.1771 -0.1433  0.0389
17172W        W34019  15.979   4.858   2.801  0.0299 -0.1324 -0.3137
17173W        W34020   7.990  14.052  12.050 -0.1083  0.0731  0.0083
17174W        W34021  11.071  11.824  11.844 -0.1356  0.1443  0.0944
17175W        W34022  14.038   6.662  13.455  0.0349  0.0960  0.1085
17176W        W34023   0.996   9.350  13.861 -0.0390  0.1282  0.0857
17177W        W34024   8.554   0.684  12.200 -0.2848 -0.0505  0.0207
17178W        W34025  14.396  12.087  11.107 -0.2792 -0.3817  0.0155
17179W        W34026   3.199   7.146  15.030  0.0920 -0.3398  0.1066
17180W        W34027   5.692  12.710  11.540  0.3057 -0.0416 -0.1857
17181W        W34028   4.813  11.479   1.118  0.1884 -0.0294  0.2546
17182W        W34029  15.915  13.854  14.877 -0.2212  0.2498  0.0779
17183W        W34030  18.407  15.296  11.495 -0.2069 -0.0579  0.0940
17184W        W34031  18.259  10.731  14.386 -0.2900  0.1925 -0.1263
17185W        W34032   5.679   5.807   3.933 -0.0082 -0.3679  0.0129
17186W        W34033  16.387   9.155   3.001  0.0577  0.0624  0.0193
17187W        W34034  13.871  14.057   3.533 -0.1212  0.0378  0.1993
17188W        W34035  12.176  18.334   1.029  0.1166  0.1387  0.1086
17189W        W34036   0.141   3.156   1.938 -0.0010 -0.1374  0.0952
17190W        W34037  18.210  14.068  15.113 -0.1521 -0.0805 -0.0644
17191W        W34038  11.025   6.192   0.279  0.1066 -0.2455  0.2509
17192W        W34039   2.629   6.685  14.741  0.0949 -0.2540 -0.1278
17193W        W34040   2.925   9.366  14.956  0.0337  0.0580  0.0639
17194W        W34041  18.222   1.752  12.629  0.1484 -0.2441  0.2467
17195W        W34042  11.562  18.117  12.227  0.0788 -0.3456  0.1383
17196W        W34043  10.628   9.174   2.736  0.2153  0.5268  0.0567
17197W        W34044  10.662  18.566  14.460 -0.1213 -0.0299 -0.2907
17198W        W34045   8.031  13.839   4.962 -0.1819  0.2411 -0.1080
17199W        W34046   0.858   4.517   0.063 -0.0335  0.0443 -0.1286
17200W        W34047  15.467   9.645  12.145 -0.1930  0.0357  0.1709
17201W        W34048  12.760  18.060  11.155 -0.3757 -0.1208 -0.1851
17202W        W34049  16.490   3.893   3.448  0.1884  0.0230  0.2170
17203W        W34050   0.046  18.476  15.520  0.0928  0.2905 -0.0764
17204W        W34051  16.841  12.884   4.928  0.1120 -0.2165 -0.0897
17205W        W34052   2.106  11.268  14.731 -0.0613  0.1387  0.0206
17206W        W34053  14.155  11.791  13.788 -0.3822 -0.0470 -0.4246
17207W        W34054   2.229   2.441   2.403  0.3216  0.1268  0.1346
17208W        W34055   1.148  17.862  12.697 -0.0777 -0.1005  0.0704
17209W        W34056   8.516   2.639   3.611  0.0288  0.2016 -0.0035
17210W        W34057   8.191   1.912   0.607  0.0485  0.3069 -0.0783
17211W        W34058  12.635  11.150  10.671 -0.2985 -0.1428 -0.0909
17212W        W34059   4.375   6.380  12.445  0.1825  0.1162  0.2354
17213W        W34060   1.344   9.800   0.864 -0.0693 -0.2892 -0.2189
17214W        W34061  17.402   0.855  11.619  0.0744  0.0192  0.3025
17215W        W34062  14.539   5.959  10.721  0.0713 -0.0832  0.2356
17216W        W34063  18.397   5.780   3.619 -0.0254 -0.0449 -0.2620
17217W        W34064  16.266   2.575   1.001  0.2375  0.1817 -0.0874
17218W        W34065   3.369   9.402   2.586  0.1196  0.1727 -0.0450
17219W        W34066  13.045  15.794  14.731 -0.1519 -0.2592  0.1112
17220W        W34067  16.666  14.011  14.431 -0.1363  0.0609 -0.0871
17221W        W34068   8.878  15.592   1.443  0.1207  0.0845  0.1925
17222W        W34069   9.891  10.921   2.798 -0.3174 -0.2066 -0.0786
17223W        W34070  14.124  14.993   0.715  0.3083  0.0968 -0.1567
17224W        W34071   2.861   1.626   2.285  0.0908 -0.0328 -0.2385
17225W        W34072   5.904  11.796   2.888 -0.4232  0.0468 -0.1267
17226W        W34073  12.999  17.966   4.525 -0.0756  0.1627 -0.3079
17227W        W34074   9.560   1.082   0.995 -0.4241 -0.2254 -0.0130
17228W        W34075  18.529  14.236  13.159 -0.0650  0.1125 -0.1363
17229W        W34076   1.747  15.142  15.279 -0.2586  0.0903 -0.2271
17230W        W34077   9.419   9.096   1.673  0.2234 -0.0071  0.1824
17231W        W34078  15.210  18.415   3.852 -0.3002  0.2195 -0.1568
17232W        W34079   1.732   2.561   2.604  0.2345 -0.1560 -0.1578
17233W        W34080   6.916   7.839  15.508  0.1841 -0.1102  0.2129
17234W        W34081   7.285  10.798   0.871  0.1187 -0.3323  0.2156
17235W        W34082   9.968  17.768  12.662  0.1725  0.0047  0.0818
17236W        W34083  13.559  18.416  15.303  0.3700  0.2263  0.0700
17237W        W34084  18.182   1.621  13.071 -0.0851 -0.2717 -0.3865
17238W        W34085  18.380  16.175  10.797 -0.2356  0.1130  0.0555
17239W        W34086  15.969   5.102  15.408 -0.0892  0.1074  0.0676
17240W        W34087  12.778  10.054  13.938  0.2179 -0.0796 -0.1995
17241W        W34088   2.859  12.923   4.623  0.0687 -0.1926 -0.1565
17242W        W34089  16.295   3.516   4.368  0.1038  0.2046 -0.1312
17243W        W34090   8.611   1.283  12.354 -0.0757 -0.2083  0.2137
17244W        W34091   5.146  15.392   1.942 -0.0835 -0.2218  0.1340
17245W        W34092  16.750   3.257   5.745 -0.0220  0.0808  0.2194
17246W        W34093  10.203   5.295  13.614  0.0427  0.2449 -0.1240
17247W        W34094  14.135   2.618   1.977  0.1136  0.1808  0.0387
17248W        W34095   2.910  12.939   0.532 -0.0308  0.0065  0.0271
17249W        W34096   7.773  17.041  13.139 -0.0326 -0.1897  0.0325
17250W        W34097  17.392   1.339   2.871  0.1200  0.0397 -0.0457
17251W        W34098  13.669   1.579  11.377  0.0961  0.1773  0.2009
17252W        W34099   3.581   3.301   4.095  0.3337 -0.0067 -0.1516
17253W        W34100  16.563   9.295   4.185  0.0497  0.2154 -0.0609
17254W        W34101   6.181  17.267   1.414  0.2728 -0.0504 -0.0917
17255W        W34102  13.822   6.988   4.016  0.0699 -0.0949  0.0103
17256W        W34103  11.912  17.956   1.305 -0.3610  0.1699  0.2457
17257W        W34104  13.991   9.349   4.196  0.0092  0.0778 -0.3056
17258W        W34105   7.188   8.359  10.503  0.0032  0.0743  0.0160
17259W        W34106  11.921  12.410   3.011 -0.1033 -0.0852  0.4754
17260W        W34107   7.040  16.157  15.316  0.0135 -0.0188  0.0610
17261W        W34108  13.801   7.907   4.654  0.0574 -0.1210 -0.2077
17262W        W34109  12.789   1.928   2.127 -0.1383  0.0629  0.1740
17263W        W34110   2.875   9.957   3.861 -0.4471 -0.2547  0.0304
17264W        W34111  16.593   8.762  13.762  0.0252 -0.0077 -0.1598
17265W        W34112   0.321  10.979   0.965 -0.2580  0.0107  0.0533
17266W        W34113  12.282   9.706   3.641  0.1596  0.1033 -0.0485
17267W        W34114  18.687   0.580   3.382 -0.1667  0.0017 -0.2882
17268W        W34115   1.457  12.839  13.846  0.2117 -0.1072  0.1231
17269W        W34116  14.790   5.337   2.786  0.1481 -0.2619 -0.0042
17270W        W34117   5.294   5.447   3.815 -0.1933 -0.0608  0.2552
17271W        W34118  13.266  10.942   1.978 -0.3908  0.2460 -0.1964
17272W        W34119  18.104  13.625  14.249 -0.0136  0.1096  0.1392
17273W        W34120  10.315  13.184   3.208 -0.2537 -0.3005 -0.1670
17274W        W34121  14.258   0.381  11.739  0.0022  0.0556 -0.0380
17275W        W34122  10.028   4.498   0.831 -0.3005  0.2595 -0.1592
17276W        W34123   6.781  16.532   3.204  0.0556  0.2395 -0.0368
17277W        W34124  16.749  13.802   3.804  0.1119  0.0864 -0.0027
17278W        W34125   5.685  17.391   5.118  0.1009 -0.0503 -0.2215
17279W        W34126   3.745  17.354  13.614 -0.1426 -0.1898  0.2463
17280W        W34127   3.647   1.105  12.129  0.2714  0.1531  0.0486
17281W        W34128  15.090  14.465  12.146  0.2818  0.2367  0.0600
17282W        W34129  11.008   7.727  15.429 -0.0960  0.0454 -0.0786
17283W        W34130   4.572   4.882  10.201  0.1910 -0.3863 -0.1881
17284W        W34131  14.968  12.637  11.036  0.1417  0.2999 -0.0784
17285W        W34132   5.638  18.015   0.984  0.0956  0.1006 -0.0852
17286W        W34133  11.290   7.902   2.413 -0.2517  0.2389  0.3666
17287W        W34134   3.276   8.981  14.855 -0.1522  0.0072 -0.1804
17288W        W34135   7.009  10.500   1.160  0.0881  0.0157 -0.0234
17289W        W34136   0.348   9.529   2.723  0.2610 -0.0430 -0.1576
17290W        W34137   6.446   1.660   0.990 -0.0111 -0.1749 -0.2842
17291W        W34138  12.154  17.460  15.095  0.2879  0.1580 -0.2528
17292W        W34139  16.775  18.549   2.007 -0.0588 -0.1009 -0.4275
17293W        W34140   2.326  10.820  11.227  0.0711  0.0431  0.1371
17294W        W34141   5.935   4.212   5.388  0.1533  0.0759 -0.2663
17295W        W34142   9.866  13.840   0.391 -0.0453  0.3159  0.0038
17296W        W34143   9.401  14.405   2.931 -0.0846 -0.2069 -0.1674
17297W        W34144   2.192  16.503   2.593 -0.3958  0.0122 -0.1645
17298W        W34145   0.832   4.888  11.505 -0.0685  0.1003 -0.0215
17299W        W34146  17.613  11.591  11.116 -0.0382 -0.2505 -0.2991
17300W        W34147  15.691   5.438   1.140  0.1036  0.3353 -0.1192
17301W        W34148  10.486  12.525   0.949 -0.1554 -0.1572 -0.0500
17302W        W34149   5.527  15.400  13.322 -0.2050 -0.1609 -0.1186
17303W        W34150  12.436   5.192  13.706 -0.0303 -0.1119  0.2318
17304W        W34151   6.382  11.576   4.836 -0.2130  0.2283 -0.1515
17305W        W34152   4.993   6.100   0.924  0.0780  0.2189 -0.2437
17306W        W34153   1.367   6.854  11.329  0.2596  0.3480  0.2188
17307W        W34154   4.184  10.097  13.830 -0.0932 -0.1845 -0.2973
17308W        W34155  16.238   0.723  11.673  0.1610  0.3078  0.0416
17309W        W34156   6.865  17.878   3.448 -0.2827  0.2507 -0.2829
17310W        W34157  14.007   6.361  15.144 -0.0973  0.1250  0.0111
17311W        W34158  12.372   7.831  11.577 -0.0699 -0.3841  0.0407
17312W        W34159   9.630   8.076   2.217  0.0757  0.4717  0.2133
17313W        W34160  17.714  13.146   1.948  0.4308 -0.1715 -0.0969
17314W        W34161   1.570  16.148   3.540 -0.3395 -0.1490  0.1197
17315W        W34162   2.664  11.553  11.419 -0.2798 -0.0500  0.1398
17316W        W34163   2.437  18.767   3.669 -0.3479 -0.1861  0.0264
17317W        W34164   7.091  11.199  11.872 -0.1418 -0.0888 -0.0508
17318W        W34165   9.840   9.946   1.651 -0.2924 -0.2130  0.1364
17319W        W34166  16.767   2.524  12.469 -0.0689  0.0368 -0.3621
17320W        W34167   8.816   1.838  11.811 -0.1756  0.0672 -0.0491
17321W        W34168   8.920   6.414   0.541  0.0339  0.1275 -0.0990
17322W        W34169  11.970   5.620   2.126 -0.2040  0.0567  0.1629
17323W        W34170  14.508  16.613   2.935 -0.0196 -0.1568  0.0241
17324W        W34171   9.083  10.111  13.997  0.1349 -0.0033  0.0434
17325W        W34172  11.476   1.099  13.708 -0.3559  0.0702  0.4352
17326W        W34173   2.033   8.453  14.493 -0.0175  0.1244  0.2065
17327W        W34174   6.232  10.617   3.305 -0.0271  0.0939 -0.0418
17328W        W34175  16.306  18.142  10.676 -0.1294  0.1047  0.0759
17329W        W34176  10.448   3.509   1.729  0.0075 -0.4226 -0.1846
17330W        W34177  14.328   2.294   1.499  0.1490  0.1337  0.2607
17331W        W34178  11.236  11.972   2.016  0.1757  0.3684 -0.0792
17332W        W34179   2.678   6.091  11.410  0.1222  0.0410  0.2248
17333W        W34180   2.192  10.722   4.210 -0.0068 -0.2269  0.0739
17334W        W34181  15.483  14.991  14.302  0.0607 -0.0638  0.1220
17335W        W34182  17.435   5.120  15.244 -0.0875 -0.0821  0.2997
17336W        W34183  17.977   3.076   1.265  0.2104  0.0997 -0.1879
17337W        W34184   0.863   7.890  10.018  0.4590  0.1828 -0.0655
17338W        W34185   6.461  11.663  13.151  0.1949 -0.0117 -0.3517
17339W        W34186   6.798  17.705  12.996  0.1770 -0.0503 -0.3488
17340W        W34187   6.716  17.622   0.253 -0.1624  0.3735 -0.1885
17341W        W34188   9.362   1.305  11.331  0.1116 -0.0408  0.0522
17342W        W34189   0.782   8.332  11.449  0.0564  0.0952 -0.0231
17343W        W34190  10.516   5.618  15.226 -0.1329 -0.1741 -0.2149
17344W        W34191   2.243  13.619   2.427  0.2370  0.2018  0.1089
17345W        W34192  11.765   9.898   4.927 -0.2619  0.0730 -0.1178
17346W        W34193  15.718   6.400  12.247  0.1965  0.1613  0.0473
17347W        W34194   5.769  18.247  14.329 -0.2288  0.1596  0.0533
17348W        W34195   8.644  12.086  11.924 -0.0934 -0.3801  0.2262
17349W        W34196  13.563  15.504   4.993  0.1449  0.0062 -0.0700
17350W        W34197  16.978   8.096  14.962 -0.1383  0.0234  0.0269
17351W        W34198   9.103  11.337   4.499 -0.2376  0.2071  0.1648
17352W        W34199   0.499  14.409  11.723  0.1622  0.1411  0.2738
17353W        W34200   7.842   5.844   2.927 -0.0495 -0.0461  0.4639
17354W        W34201   4.010  10.024  13.385 -0.2203  0.1449 -0.1457
17355W        W34202   6.970   2.861  15.075 -0.1905 -0.2076  0.0278
17356W        W34203   7.376   3.917  13.348 -0.2470  0.3086  0.1882
17357W        W34204  14.869  11.870   0.704  0.1428 -0.0725 -0.2207
17358W        W34205  17.482   2.048   9.724 -0.2599  0.1116  0.1000
17359W        W34206  16.533   9.796  11.689  0.0275 -0.2149 -0.0337
17360W        W34207   5.054  16.423  11.988  0.0286  0.1897 -0.0571
17361W        W34208   7.454   5.737   4.318  0.1531 -0.2132  0.0441
17362W        W34209  13.332   9.880  12.402 -0.0895 -0.0482 -0.0518
17363W        W34210   7.017  18.415   1.007  0.0165 -0.0244  0.0690
17364W        W34211   0.689   0.388  10.939  0.1149  0.1760  0.0946
17365W        W34212   0.522  15.198  14.738 -0.4572 -0.3976  0.0221
17366W        W34213   8.322  12.383   0.849 -0.0891  0.2717  0.1198
17367W        W34214   1.560   9.558   0.058 -0.4931  0.0298 -0.0223
17368W        W34215   8.013   5.299  13.880  0.2254 -0.2867 -0.0188
17369W        W34216   8.002  10.182   2.923 -0.1525 -0.1792  0.0709
17370W        W34217  15.461   7.944  11.237 -0.0295  0.1700 -0.0696
17371W        W34218  16.116   0.916   0.779 -0.2662  0.5559 -0.1312
17372W        W34219  14.713   1.305  14.872  0.1550 -0.1334  0.2619
17373W        W34220  16.761  10.140   1.302 -0.1988 -0.1398  0.0056
17374W        W34221   1.183   5.419   2.654 -0.3278 -0.0077  0.1025
17375W        W34222   5.129  15.534  12.341  0.2387  0.1505 -0.1768
17376W        W34223   2.346   5.593  13.399  0.3058  0.1146  0.1796
17377W        W34224   4.968  15.186   0.492 -0.1768  0.0959 -0.2357
17378W        W34225   6.954  17.715  10.836  0.2231 -0.1068 -0.1178
17379W        W34226  14.602   6.572   3.904 -0.0287  0.2599  0.2048
17380W        W34227  11.759  14.006  12.439  0.1960  0.1033 -0.0160
17381W        W34228   4.754   0.664   1.434 -0.2172 -0.0345 -0.0123
17382W        W34229   8.249   9.471   3.519 -0.2405 -0.2409 -0.1352
17383W        W34230  15.661  14.135   0.566  0.0204 -0.0749  0.1725
17384W        W34231  10.414   4.298  11.743  0.2886 -0.0670  0.1978
17385W        W34232   1.668  16.033   4.543 -0.0480 -0.0067 -0.0660
17386W        W34233  13.136  18.050   2.980 -0.0772  0.0575 -0.3055
17387W        W34234  14.791  14.754  15.027 -0.0842  0.0674 -0.0386
17388W        W34235  13.062  12.868   2.908  0.1406 -0.2665 -0.0401
17389W        W34236  13.622  18.648  12.820 -0.1338  0.1526 -0.1939
17390W        W34237  13.093  10.038   5.388 -0.0624  0.1263  0.0944
17391W        W34238   5.345   9.385  14.841  0.1562 -0.0901  0.2318
17392W        W34239   5.653   6.963  11.254  0.1970 -0.1770  0.3254
17393W        W34240  11.315  17.883  13.185 -0.0297 -0.1675  0.2696
17394W        W34241   3.907   8.075   1.864 -0.4110 -0.2066  0.0128
17395W        W34242  17.953   1.658  13.552  0.3045 -0.0083 -0.2291
17396W        W34243   7.442   9.032   2.275 -0.0309  0.3281 -0.2263
17397W        W34244   8.672   9.331   3.300  0.2089  0.1909  0.1154
17398W        W34245   9.052  15.301   1.937  0.0403  0.0183 -0.2107
17399W        W34246   0.295  14.404  11.241 -0.0870 -0.1333 -0.4484
17400W        W34247  11.072  15.807   0.117 -0.3846 -0.0618 -0.1241
17401W        W34248   2.617  11.934  13.579 -0.2097  0.0400 -0.0279
17402W        W34249  12.576  11.594   1.943  0.0907  0.1300 -0.2639
17403W        W34250  18.730  12.181   3.664 -0.1987 -0.0590 -0.0045
17404W        W34251  10.460   0.102  14.255  0.3292  0.0957  0.0237
17405W        W34252   7.346   2.677  15.301 -0.2714 -0.0094  0.3199
17406W        W34253   6.331  13.966   2.623 -0.1635 -0.0571  0.0302
17407W        W34254  14.090  11.392   5.191 -0.3845 -0.3053 -0.1411
17408W        W34255   3.134   8.004  14.707  0.1109  0.0301  0.0679
17409W        W34256  10.837   0.495   0.522 -0.1547  0.1765 -0.1961
17410W        W34257  14.648   5.453  11.878  0.2872 -0.0772  0.1574
17411W        W34258   8.990   2.927   2.199  0.0836 -0.0603 -0.0761
17412W        W34259  11.936   6.512  13.905  0.1336  0.0249 -0.2259
17413W        W34260  13.960  11.344  11.550  0.0003  0.1306 -0.0358
17414W        W34261  18.239  13.568  15.416 -0.2440 -0.0855  0.1199
17415W        W34262   2.563  15.521   9.249  0.1683 -0.3557 -0.0268
17416W        W34263  16.104  18.361   0.758  0.0147  0.0633 -0.0877
17417W        W34264   5.345   2.476  11.745  0.3889 -0.1140  0.3039
17418W        W34265  15.675   5.672   5.845 -0.2553  0.0257 -0.2891
17419W        W34266   0.575  16.833   1.812  0.1294  0.3483  0.0104
17420W        W34267   2.630   0.834  12.409 -0.3143  0.1240  0.2057
17421W        W34268   7.221   8.867  14.692  0.0820 -0.0527  0.0762
17422W        W34269   4.673   9.776  14.315  0.3020  0.0276  0.0190
17423W        W34270  16.590  10.260   4.097 -0.1852  0.0682 -0.0343
17424W        W34271   7.425   0.778   5.335 -0.0916 -0.0612 -0.0467
17425W        W34272  16.667  12.898   3.428  0.1346  0.0389 -0.3941
17426W        W34273  16.954  18.813  11.189  0.1863 -0.1631  0.1036
17427W        W34274   0.566  14.803   4.818 -0.0450  0.1922  0.3282
17428W        W34275   5.711   8.072   0.681  0.1934 -0.2619  0.4070
17429W        W34276   5.998   9.706   4.705 -0.2853  0.1681  0.0516
17430W        W34277  17.537   9.844   1.838  0.3907 -0.1704  0.1932
17431W        W34278   0.337   3.631   1.719  0.0510  0.1303  0.0198
17432W        W34279   1.132  10.158  15.531  0.1513  0.1788  0.1526
17433W        W34280  11.659  16.697   1.829  0.0731 -0.0182  0.1468
17434W        W34281   5.628  12.876  14.360 -0.0735  0.0517  0.0137
17435W        W34282   4.003  15.615  14.978  0.1449  0.2128 -0.0804
17436W        W34283   0.722  14.293  14.573 -0.0228 -0.1835  0.0754
17437W        W34284   7.151  16.312   2.263 -0.0077 -0.1696  0.0504
17438W        W34285   8.471  16.788   5.232  0.3772 -0.1671  0.1699
17439W        W34286  15.384   0.677   4.462  0.0812 -0.1928 -0.0325
17440W        W34287  17.841  18.821   3.869  0.2194  0.2601 -0.0416
17441W        W34288   6.566   7.463   0.680 -0.2298 -0.3339 -0.1361
17442W        W34289   4.435  18.643  12.623 -0.3311  0.1938 -0.0315
17443W        W34290   1.380   3.422   1.985  0.2404 -0.0531 -0.0298
17444W        W34291   6.591  14.231   1.887  0.1532  0.1415 -0.0619
17445W        W34292  17.822   3.821  13.219  0.2866 -0.0755  0.0365
17446W        W34293   3.915   2.550   1.819  0.0460 -0.2424 -0.1147
17447W        W34294   5.871   3.353   0.054  0.0662 -0.1907  0.0944
17448W        W34295  13.496  12.416  11.424 -0.3948  0.2125  0.1684
17449W        W34296   5.749  11.020  13.929  0.1532 -0.1293 -0.0603
17450W        W34297   0.191   1.886   4.676 -0.0341  0.0033 -0.3012
17451W        W34298   4.782  18.735  13.106  0.2689  0.0124  0.0976
17452W        W34299  10.255   5.082   0.778  0.2281  0.0818 -0.0171
17453W        W34300  17.516  11.632   2.062  0.0486  0.0487  0.1686
17454W        W34301   6.306   1.049  12.560  0.0413  0.0172  0.3674
17455W        W34302  16.767   0.255  13.200  0.3684 -0.0589 -0.1369
17456W        W34303   3.888   3.357  13.641  0.0173 -0.0801  0.2117
17457W        W34304  12.729  16.097  14.459  0.0364 -0.2070 -0.2106
17458W        W34305   1.861   5.629  13.536 -0.1852  0.3004 -0.0509
17459W        W34306   0.399  18.155   4.409 -0.3418 -0.0047  0.1531
17460W        W34307   6.671   1.367  12.648 -0.4311  0.0310 -0.2124
17461W        W34308   9.175  13.414  15.397  0.1324  0.1868  0.0808
17462W        W34309   8.747   7.711   3.991  0.0016  0.1913  0.0258
17463W        W34310  14.351  10.754   2.040  0.3872 -0.2728 -0.0429
17464W        W34311   9.758   4.574   3.024  0.0901  0.0316 -0.2104
17465W        W34312  13.079  15.349  13.162 -0.0038  0.1015  0.3457
17466W        W34313   0.422  10.591   3.953 -0.2155  0.1839 -0.3397
17467W        W34314   6.686  17.832   3.901  0.1487 -0.2428 -0.3265
17468W        W34315   7.523  17.779   4.235 -0.1561  0.0099 -0.1187
17469W        W34316  15.273   6.542   2.637 -0.0994 -0.1915  0.2543
17470W        W34317   3.697  15.090   1.656  0.1500  0.0335  0.2462
17471W        W34318  14.087   1.220   1.858 -0.1045 -0.2439  0.0406
17472W        W34319   9.878  17.802  10.759  0.0224  0.1956  0.2461
17473W        W34320   5.115  14.413   0.434 -0.0230 -0.2763  0.2127
17474W        W34321   5.205   7.544   1.899 -0.0392 -0.1080  0.1010
17475W        W34322   1.046  14.082   2.080  0.1051  0.0834 -0.0258
17476W        W34323   1.469   2.580   5.344  0.1396  0.0351  0.2572
17477W        W34324  13.230  15.815  11.859 -0.1049  0.1210  0.1648
17478W        W34325   6.512   2.019   0.526 -0.0725  0.1702 -0.0952
17479W        W34326  17.305   7.642  13.423 -0.0461  0.0554 -0.0886
17480W        W34327  17.040  10.310   0.863 -0.1456  0.0036  0.1676
17481W        W34328   6.753   4.220  14.583  0.1416 -0.1759 -0.1050
17482W        W34329  14.039  17.577   0.610 -0.0538  0.0637  0.1762
17483W        W34330   5.512  11.447   2.726 -0.1264 -0.0105  0.0311
17484W        W34331  10.953   6.420  15.001  0.2479  0.1810  0.1334
17485W        W34332   5.972   7.903  15.177 -0.0821 -0.1808  0.0537
17486W        W34333   6.544  13.897   4.493 -0.1237  0.5644 -0.1302
17487W        W34334   7.365   6.540   1.183  0.0654 -0.0032 -0.1572
17488W        W34335   2.409   4.927   1.173 -0.1004 -0.2922  0.0672
17489W        W34336   6.380  11.233   0.930 -0.1684  0.0061 -0.1772
17490W        W34337   1.579   6.474   4.586 -0.2832  0.1045  0.2033
17491W        W34338  18.587   9.390  12.322 -0.2727  0.1592  0.1612
17492W        W34339   8.178   5.578   3.230  0.0828 -0.1654  0.0473
17493W        W34340   5.546  16.697   4.512 -0.0313  0.0829  0.0446
17494W        W34341   4.137   5.292   2.941  0.0509  0.0019  0.0318
17495W        W34342   0.811   6.906   3.383  0.1103  0.1495 -0.0668
17496W        W34343  14.629   9.968   3.853  0.0656  0.0372 -0.0712
17497W        W34344  18.473  14.196   3.520 -0.0557 -0.0757 -0.3007
17498W        W34345  15.697  10.526   2.912 -0.1177 -0.0575  0.0321
17499W        W34346  16.130   8.425  14.595  0.3363 -0.1414 -0.2038
17500W        W34347   1.140   1.632   2.984  0.3388  0.0204  0.2025
17501W        W34348  15.278   5.103   1.362  0.0211  0.1708  0.0809
17502W        W34349   6.559   6.465  14.829  0.1486  0.0750  0.2089
17503W        W34350  15.489   6.853   2.139 -0.1993 -0.2577 -0.2160
17504W        W34351  13.535  16.623   0.686 -0.1469 -0.2074 -0.2375
17505W        W34352  17.715  10.244  10.139 -0.2007 -0.2005  0.1208
17506W        W34353  14.672   6.374   5.814 -0.1126  0.2226 -0.3998
17507W        W34354  16.351   0.826  15.457  0.1592  0.0334  0.2615
17508W        W34355   6.665   4.753   0.621  0.0387 -0.2721  0.1991
17509W        W34356   6.000  12.531   4.636  0.0779  0.1190  0.3327
17510W        W34357  10.493   5.355   4.978 -0.1322  0.0561 -0.0208
17511W        W34358   2.739   6.722   2.307  0.0427 -0.0677  0.0512
17512W        W34359  16.018   5.102   0.334  0.4474 -0.1603  0.2988
17513W        W34360   8.678   4.059   0.569  0.0747 -0.1760 -0.0397
17514W        W34361   1.019  13.440   1.490 -0.0282  0.2761  0.0558
17515W        W34362  14.166   0.665   0.465  0.2329  0.0751 -0.0436
17516W        W34363  16.628  18.770  15.039 -0.1321  0.1890  0.3823
17517W        W34364   2.021   4.811   1.505 -0.0885  0.2027  0.0174
17518W        W34365   5.618   7.316   4.782 -0.2434 -0.0972 -0.2159
17519W        W34366   3.034   1.111   1.776 -0.4830  0.1104  0.3886
17520W        W34367   7.389   4.395  12.221 -0.1653 -0.2851 -0.0569
17521W        W34368  11.486   1.026  11.382  0.5342 -0.0913  0.0891
17522W        W34369  15.742   1.131   2.980  0.1101 -0.1593 -0.0886
17523W        W34370  15.107   4.603   0.966 -0.0208 -0.0279  0.3587
17524W        W34371  17.814   1.987   5.230 -0.1297 -0.1025  0.0271
17525W        W34372  11.826  10.360  15.522  0.1051 -0.1072 -0.1599
17526W        W34373  17.745   2.307  15.313  0.0058  0.1402 -0.2867
17527W        W34374  10.704   1.121   2.836 -0.1891  0.0181  0.2377
17528W        W34375  10.447   6.528   4.965 -0.0102  0.0088  0.0490
17529W        W34376   0.080   1.749  15.478  0.1597 -0.3302  0.1256
17530W        W34377   9.868   8.926  14.781  0.0282  0.1369  0.1249
17531W        W34378  16.904   3.322  12.028 -0.1355 -0.0255 -0.3494
17532W        W34379  11.438   2.762  14.909 -0.0518  0.5497  0.2447
17533W        W34380  15.743   0.715  12.624 -0.1085 -0.0346  0.1405
17534W        W34381  11.120   7.226   4.527  0.2252 -0.3529 -0.2905
17535W        W34382   5.024   2.202   2.644  0.0198  0.3707  0.0713
17536W        W34383  10.637   8.324  10.983  0.1810 -0.0402 -0.0191
17537W        W34384   9.141  16.801  14.939  0.1410  0.2280 -0.2309
17538W        W34385   4.657  12.590  12.475  0.2819  0.1455 -0.0270
17539W        W34386  10.263   0.554  12.169 -0.2457 -0.1817 -0.0303
17540W        W34387  16.814   8.126  11.813  0.0608 -0.0693  0.0213
17541W        W34388   6.313  14.339  15.019  0.3638  0.2781 -0.0876
17542W        W34389  10.301  12.113   4.416  0.0472 -0.1757  0.4710
17543W        W34390   5.444   8.588  12.302  0.2264  0.5236 -0.0651
17544W        W34391  11.960  13.642  12.125  0.2003 -0.1210  0.1217
17545W        W34392   0.630  13.135   4.636 -0.2011 -0.0998  0.3605
17546W        W34393   7.235  13.136  13.821 -0.1431  0.3443  0.0507
17547W        W34394  16.708   5.236  12.053  0.0458  0.3094  0.1391
17548W        W34395   0.152   2.588  10.459 -0.0953  0.0563  0.1892
17549W        W34396  10.936  10.279   0.763 -0.1311  0.2963 -0.1959
17550W        W34397   2.563   1.010   1.540 -0.0147 -0.1884 -0.1475
17551W        W34398   7.571  18.792   3.131 -0.0111  0.0214  0.0904
17552W        W34399   2.182  13.166  15.556 -0.0303  0.1354 -0.1706
17553W        W34400   8.741   9.978  12.522 -0.1957  0.0900 -0.0018
17554W        W34401  15.622  10.276   3.408 -0.1790 -0.2689  0.0783
17555W        W34402   1.976   6.089  13.326  0.3662  0.0627  0.0615
17556W        W34403  16.815   4.669   1.273  0.2597  0.2051 -0.1079
17557W        W34404   2.068   7.538   0.564 -0.0271 -0.0583  0.1629
17558W        W34405   0.667  18.130  12.903 -0.0301  0.2039  0.0140
17559W        W34406  13.129  12.339   0.947 -0.0537 -0.0595  0.0675
17560W        W34407  11.913   1.274   0.481  0.1833 -0.0535  0.0626
17561W        W34408   1.015   4.267   2.313 -0.0373 -0.2036 -0.0090
17562W        W34409   5.121   9.677  14.081  0.3703  0.1124 -0.0669
17563W        W34410  16.830  15.202  14.915 -0.0206  0.3327  0.0314
17564W        W34411  11.802  11.289  13.940  0.0919  0.0983 -0.1613
17565W        W34412  17.860  14.713   0.269 -0.1451  0.0592  0.1934
17566W        W34413   4.422   8.010   1.527  0.0711 -0.0335  0.0811
17567W        W34414   3.103   2.932   1.916 -0.3850  0.3457 -0.1112
17568W        W34415  12.737   7.961   1.702 -0.1571 -0.1751 -0.1261
17569W        W34416   6.510   9.810   1.338  0.0219 -0.0577 -0.0639
17570W        W34417  14.627   3.200   5.576  0.0114 -0.0478  0.0509
17571W        W34418  11.222  15.930  10.623 -0.0581  0.0425  0.1188
17572W        W34419  17.175  16.045   0.937  0.0721 -0.3910  0.1436
17573W        W34420   2.741  17.397   1.724 -0.0499  0.1358  0.0340
17574W        W34421   7.531  10.554  12.408  0.0563  0.2256  0.0165
17575W        W34422   3.392   0.434   1.926 -0.0717 -0.0461  0.0071
17576W        W34423   7.942   3.974  12.977  0.0737  0.2252 -0.2377
17577W        W34424   7.365  16.053  14.269 -0.1786  0.0819  0.0435
17578W        W34425   8.858  11.935   5.675  0.1749  0.1492  0.2009
17579W        W34426   9.379  16.207   3.473  0.0114 -0.0118  0.0786
17580W        W34427   7.724  17.966  14.146  0.0063  0.0960 -0.1453
17581W        W34428   5.396  12.400  11.217 -0.0833  0.2400  0.3402
17582W        W34429  15.772  15.125  12.525 -0.2063  0.0335 -0.4495
17583W        W34430   0.734  12.322   0.866 -0.1903 -0.0296 -0.0095
17584W        W34431   9.416  12.773   3.053 -0.0364  0.1018 -0.2155
17585W        W34432   6.994   4.753  11.484 -0.1282 -0.0572 -0.4162
17586W        W34433  12.243  12.946  12.691 -0.0476  0.0143  0.1593
17587W        W34434  11.015   4.886  13.540 -0.1044  0.0878  0.2803
17588W        W34435   4.981   1.427   5.225 -0.1492  0.1835  0.1387
17589W        W34436   3.095  18.294  15.461  0.1387 -0.1123 -0.1401
17590W        W34437   0.476  12.814   0.320 -0.1531 -0.0483 -0.0329
17591W        W34438  10.964   7.251   3.074  0.0170  0.0294 -0.0343
17592W        W34439   8.137   1.391  11.410  0.1371 -0.0496 -0.1012
17593W        W34440  15.637   8.056   1.322  0.0138 -0.2636  0.0059
17594W        W34441   4.828  16.192  14.652 -0.1918 -0.1187  0.2377
17595W        W34442  16.021   7.253  11.427 -0.3153  0.0021 -0.1703
17596W        W34443   5.298   6.188   3.903  0.0632  0.0700 -0.1019
17597W        W34444  16.832   0.628   1.744 -0.0531 -0.2944  0.0579
17598W        W34445  17.032   0.956   4.269 -0.4538 -0.1043  0.1997
17599W        W34446   2.503   0.900   0.096  0.0612 -0.1657  0.2060
17600W        W34447   6.227   2.933   0.166  0.1526 -0.1966 -0.2711
17601W        W34448   6.421  16.963  14.819  0.2135  0.2554  0.2016
17602W        W34449  17.894  16.094   2.595 -0.2466 -0.2172  0.0189
17603W        W34450  17.396   7.901   1.513  0.0364  0.0450 -0.3517
17604W        W34451  16.718   7.631  11.876 -0.0042  0.2125  0.1556
17605W        W34452  16.945  18.788   2.534  0.1522 -0.2231  0.1037
17606W        W34453   9.615  15.549   2.778  0.1321 -0.0175  0.0910
17607W        W34454  16.024   3.153   1.776 -0.2333  0.3040  0.0472
17608W        W34455   0.338   5.696   4.458 -0.1030  0.0548 -0.1670
17609W        W34456   1.328  10.057   4.899 -0.0225 -0.0116  0.1883
17610W        W34457  11.380  14.601   0.339  0.0225  0.0826 -0.2690
17611W        W34458  12.328  18.112  15.391  0.0231  0.1186  0.0595
17612W        W34459   8.589   4.687  14.639 -0.0297 -0.0097 -0.0512
17613W        W34460  18.119   4.669   1.253 -0.0482 -0.3514 -0.0326
17614W        W34461   0.816  10.895   0.689 -0.5221  0.0364  0.0218
17615W        W34462   2.024   2.287  14.202 -0.3578  0.1825  0.5926
17616W        W34463   6.027   7.965  12.714 -0.1012 -0.0566  0.2278
17617W        W34464   4.043   4.107   1.570  0.0444  0.0248  0.0401
17618W        W34465  16.787   7.717  13.617 -0.3315  0.0185  0.0541
17619W        W34466   0.624  15.473   0.407  0.4226 -0.1744 -0.1723
17620W        W34467   6.720  18.812   1.266 -0.0029 -0.2539  0.4438
17621W        W34468   1.182  13.344  15.284 -0.3183  0.0708 -0.0741
17622W        W34469   5.340  10.357   0.784 -0.1298  0.2354 -0.3345
17623W        W34470   3.906   6.388   2.751 -0.0764  0.0914 -0.0940
17624W        W34471  11.183  10.465   5.230  0.0286  0.3325 -0.2340
17625W        W34472   0.898  16.995  11.257 -0.1451  0.2909  0.1234
17626W        W34473  12.187  16.195   4.667 -0.1449 -0.2826  0.1818
17627W        W34474  17.310   0.577   1.431  0.3265  0.3256  0.0539
17628W        W34475   9.334  16.688   2.203  0.2124 -0.3308 -0.0686
17629W        W34476  13.117  13.716   1.402 -0.1099  0.0414  0.0766
17630W        W34477   8.704   0.503   2.447 -0.2175  0.1145 -0.1044
17631W        W34478   2.230  14.221   4.368  0.1459 -0.0068 -0.2032
17632W        W34479   9.574   7.197   4.519  0.2565 -0.0484  0.0852
17633W        W34480   0.313   6.901   3.252 -0.3940  0.0643 -0.1547
17634W        W34481  16.313  17.210  10.996 -0.3218 -0.1075 -0.0719
17635W        W34482  13.074  16.063   1.685  0.2095  0.2421  0.1158
17636W        W34483   9.908   9.476  13.906 -0.0871 -0.0558 -0.2066
17637W        W34484   7.303   3.388   4.651 -0.2229  0.1105 -0.1483
17638W        W34485  12.569  16.219   1.584  0.1353 -0.0180 -0.2863
17639W        W34486  17.938  12.799  12.013 -0.1696  0.1866  0.1265
17640W        W34487  16.822   7.762   4.744 -0.1008 -0.2937  0.0852
17641W        W34488   6.921   4.757  11.964 -0.1219  0.3659 -0.4171
17642W        W34489  12.416  15.749  12.231 -0.2437  0.0381  0.0483
17643W        W34490  18.252  16.641  13.248 -0.1943  0.1087  0.1083
17644W        W34491  14.389  14.669  10.851  0.0588  0.2934  0.1349
17645W        W34492  17.063  11.911   2.030 -0.0630  0.0011  0.0912
17646W        W34493   5.147  14.469  11.801  0.1213 -0.0188 -0.0175
17647W        W34494  18.137   3.545  12.095  0.1360  0.2689 -0.0573
17648W        W34495   1.146  17.184   4.179  0.0960 -0.3450 -0.0758
17649W        W34496   9.541  18.390   3.803 -0.1915  0.4442 -0.4107
17650W        W34497  17.606   9.452  12.566  0.0112 -0.0864  0.0435
17651W        W34498   2.884   3.164   2.303 -0.1126  0.1865  0.0039
17652W        W34499  17.347   4.801   2.991  0.3306 -0.0439  0.0502
17653W        W34500  11.038   6.748  14.542  0.1471  0.0868 -0.0642
17654W        W34501  18.277  17.358   9.584  0.0875 -0.1720 -0.1357
17655W        W34502   0.670   2.440   9.628 -0.1627  0.0293  0.2573
17656W        W34503   4.800  12.424  14.875  0.1438 -0.0205  0.1781
17657W        W34504   5.053   1.717   1.764 -0.1598 -0.3349  0.1323
17658W        W34505   2.938   0.983  15.360  0.0098 -0.1311  0.0406
17659W        W34506   9.686  15.994   2.475  0.1651 -0.1117  0.0769
17660W        W34507  12.893  17.192  15.475  0.2773 -0.2134  0.1894
17661W        W34508  15.457  13.093  15.065 -0.0014  0.0924 -0.2319
17662W        W34509  18.719  16.547  10.872 -0.2848  0.2549 -0.0175
17663W        W34510   8.222   9.274  13.484  0.0296 -0.0900 -0.3003
17664W        W34511   3.277  10.142   4.945 -0.0168 -0.1676 -0.3188
17665W        W34512  14.321  11.565  10.493 -0.0309 -0.1624 -0.3416
17666W        W34513  16.195  11.018   1.715 -0.1264  0.2310 -0.1019
17667W        W34514  10.217   6.852  13.120  0.1498 -0.2152 -0.0461
17668W        W34515  16.807  11.722  12.187 -0.1140  0.1332 -0.4725
17669W        W34516  18.006   4.363  13.478 -0.3033  0.0207  0.0141
17670W        W34517  14.050  15.378   3.600 -0.1560  0.0624  0.1438
17671W        W34518   3.262   5.420  11.339 -0.0215 -0.2340  0.0097
17672W        W34519  16.578  16.415  15.521  0.1576 -0.0534  0.0737
17673W        W34520   5.764  17.378   0.075 -0.1847 -0.3406 -0.1547
17674W        W34521  10.258  13.425  11.615  0.0461 -0.0927  0.2981
17675W        W34522  12.273  15.713  11.511 -0.0160 -0.0201 -0.5662
17676W        W34523  11.293   7.386   1.731  0.0055  0.0817 -0.2117
17677W        W34524   4.355  11.241   0.989 -0.1393 -0.0681 -0.0307
17678W        W34525   7.061  12.697   5.757 -0.2593 -0.2899  0.0166
17679W        W34526   3.414   9.131   4.297 -0.3554  0.1387  0.0714
17680W        W34527   0.919   2.989  13.991 -0.1590 -0.1569  0.4920
17681W        W34528   4.877   6.287   4.232  0.2988  0.0221 -0.1071
17682W        W34529  10.999  16.204   2.689  0.0269 -0.1136 -0.1741
17683W        W34530  16.482  14.512   3.231  0.0127  0.1886 -0.0928
17684W        W34531  13.879   7.571  14.236 -0.0179 -0.0230 -0.0287
17685W        W34532  15.454  16.046  12.124  0.1162  0.0887 -0.1135
17686W        W34533   4.217   9.010   1.288  0.0550 -0.0406 -0.2039
17687W        W34534  13.835   0.517  11.540  0.0670 -0.1956  0.1074
17688W        W34535   5.916   2.124  13.798  0.1183 -0.1086 -0.0858
17689W        W34536   7.570   1.419   2.954  0.1245 -0.1608  0.0745
17690W        W34537  18.669  18.275   3.933  0.0624 -0.0301  0.0753
17691W        W34538  18.548   7.259  13.952  0.0847  0.1913 -0.2692
17692W        W34539  17.650   0.370   3.637  0.0506  0.0716 -0.1219
17693W        W34540  12.563  11.552  14.968  0.1036  0.0305 -0.1057
17694W        W34541  10.346  15.313  13.401 -0.0221 -0.0335  0.1798
17695W        W34542  11.548  14.791  12.396  0.3243  0.0630  0.3951
17696W        W34543   6.196  14.428  14.536 -0.0483  0.2500 -0.0704
17697W        W34544   2.519   0.780  15.136  0.1186  0.2714 -0.3189
17698W        W34545  13.517  18.419  11.298  0.1876  0.0421  0.3756
17699W        W34546  17.283  12.652   1.419 -0.2767 -0.0924  0.1011
17700W        W34547   1.184   2.503  13.931 -0.2219  0.3041 -0.0459
17701W        W34548  17.355  13.530   1.266  0.6342  0.3169  0.1126
17702W        W34549  15.034   7.608   4.955  0.0054 -0.0586 -0.1319
17703W        W34550  11.424   2.527  12.482  0.1848 -0.1589 -0.2046
17704W        W34551  10.613  15.853   5.555 -0.0547 -0.3346  0.1956
17705W        W34552  14.040  13.336   0.271 -0.0331 -0.3633 -0.0573
17706W        W34553  13.276  17.519   1.098 -0.0202  0.2223  0.3450
17707W        W34554  18.826   0.243   1.218 -0.2797 -0.0249  0.1082
17708W        W34555  16.955   4.209   2.429  0.1045  0.0766 -0.0463
17709W        W34556  16.999  14.818  14.526 -0.0177 -0.0198  0.1301
17710W        W34557   0.749   6.956   4.633  0.0406  0.2937 -0.0171
17711W        W34558   1.566   9.880  11.341  0.1135  0.2656  0.2692
17712W        W34559  12.133   9.830   0.407 -0.0625 -0.1361  0.0623
17713W        W34560   4.466   7.454   1.482  0.0923  0.1531  0.1625
17714W        W34561   5.927   2.142   3.597 -0.1786  0.3416  0.0354
17715W        W34562   1.734   4.220  15.006  0.2540 -0.0070 -0.0791
17716W        W34563  17.638   3.488  11.841  0.1963 -0.0576  0.0447
17717W        W34564   4.917   2.285   5.202  0.1317  0.3928 -0.0366
17718W        W34565   7.035  10.663  13.567 -0.0824 -0.2449 -0.3246
17719W        W34566   5.260  16.379   3.747  0.1075  0.1736 -0.0735
17720W        W34567  12.458  14.614  10.863  0.1708  0.0768  0.0350
17721W        W34568   1.790  13.048   1.511 -0.5033  0.0419  0.1412
17722W        W34569   6.152   5.326   5.014  0.2425  0.1160 -0.0768
17723W        W34570   2.008  17.582  11.734  0.0751 -0.0273 -0.0669
17724W        W34571   0.175   8.608   5.033  0.0705  0.2089  0.3008
17725W        W34572  11.757   6.078   2.312  0.0539 -0.0628  0.0821
17726W        W34573  11.543   2.710  13.983  0.0412 -0.3214 -0.2080
17727W        W34574   8.358   7.826  10.929 -0.1335  0.1905  0.0322
17728W        W34575   6.468   1.485  12.214  0.0194  0.0241  0.0364
17729W        W34576  10.908   0.870  15.177 -0.0886 -0.3943 -0.0864
17730W        W34577  16.666  15.284  14.226  0.2931 -0.1413  0.0420
17731W        W34578   4.942  10.714   3.220  0.0960 -0.0368  0.1413
17732W        W34579   6.201  10.643  11.781 -0.2102  0.1727  0.1984
17733W        W34580   3.272   8.991  12.173 -0.0766 -0.0076  0.2239
17734W        W34581   2.661  13.018   5.126 -0.1728  0.1282  0.0917
17735W        W34582   4.067   2.189   0.848 -0.2672  0.1356  0.1104
17736W        W34583  10.254  14.663   4.818 -0.1352 -0.0123  0.1258
17737W        W34584  18.543   8.501   0.325  0.0160  0.0483  0.4944
17738W        W34585   2.666  11.571   0.669  0.1539  0.0485  0.3868
17739W        W34586  13.524  13.131  15.035 -0.0567 -0.0314  0.2065
17740W        W34587  10.840   0.164  11.154 -0.0361  0.0637  0.1130
17741W        W34588   0.488   2.823  14.010 -0.1318 -0.0521 -0.1469
17742W        W34589  15.167  18.029   3.538  0.2192 -0.0994 -0.3917
17743W        W34590   7.696  16.183  10.923 -0.0215  0.0695  0.1655
17744W        W34591  12.243  13.947   1.542  0.1158 -0.0350 -0.1628
17745W        W34592  15.944   4.811   3.792  0.0334 -0.0812  0.0214
17746W        W34593   2.127   4.652  11.912 -0.2039 -0.0681  0.1353
17747W        W34594   6.549  11.469   0.493 -0.6841 -0.2185  0.0157
17748W        W34595  10.910   6.682   0.180 -0.0023 -0.1127 -0.0034
17749W        W34596   3.891   4.919   4.052  0.1491  0.1798 -0.0043
17750W        W34597  13.054   4.887   1.240 -0.0241 -0.1439  0.0905
17751W        W34598   5.713  10.845  11.846 -0.0652 -0.1251  0.2195
17752W        W34599   9.661  12.696   2.607  0.1182 -0.4376  0.3614
17753W        W34600   4.731  16.229   1.971  0.0503 -0.0445  0.0979
17754W        W34601  16.076   6.245   4.798 -0.1588  0.2312 -0.1953
17755W        W34602   0.831   3.781   0.682  0.3239 -0.1862 -0.0714
17756W        W34603  16.936  16.124  14.219 -0.0070  0.1023 -0.1876
17757W        W34604   6.033   4.021   2.522  0.0012 -0.0553  0.0392
17758W        W34605  17.253  10.188  15.044  0.2986  0.0643  0.0103
17759W        W34606   2.390  12.217  14.362 -0.0164 -0.2845  0.1814
17760W        W34607  17.673   3.668   2.912  0.0113  0.1694 -0.2732
17761W        W34608   8.969   5.499   3.637  0.0973 -0.2292 -0.0699
17762W        W34609  14.019  18.842   4.845 -0.0445 -0.0697  0.0765
17763W        W34610  12.558   0.478  10.957  0.0381 -0.1999  0.2074
17764W        W34611   1.881   4.363   3.525  0.0167  0.0900  0.0995
17765W        W34612   1.146  17.362   0.663  0.0378 -0.3035  0.1992
17766W        W34613   4.768   9.863  11.905  0.2471  0.2444  0.0511
17767W        W34614  17.355   6.471  12.121 -0.1710 -0.2046  0.0607
17768W        W34615   5.398  10.641  15.003 -0.3724  0.1362 -0.3034
17769W        W34616  14.704  15.575  13.234 -0.3320 -0.1059 -0.4216
17770W        W34617   9.026   3.135   4.039 -0.4132  0.3736  0.0134
17771W        W34618  16.572  11.064   4.776 -0.3494 -0.2009  0.3619
17772W        W34619   6.314   4.292  15.557 -0.1331  0.1081  0.0277
17773W        W34620  18.839  10.910  13.845 -0.0069  0.0386 -0.0780
17774W        W34621  13.056   3.525  14.199 -0.4475 -0.0692  0.0786
17775W        W34622  15.429  16.290  10.016  0.2260  0.0804 -0.0751
17776W        W34623   1.835   7.304  14.235  0.0218  0.4261 -0.1168
17777W        W34624   4.787  17.392   3.811 -0.1931 -0.1308  0.0733
17778W        W34625  10.320   1.033  12.056  0.1801  0.0577 -0.2578
17779W        W34626   1.420  13.291  13.986  0.1304  0.0508  0.0037
17780W        W34627   3.665   6.166  14.914 -0.1544 -0.1653 -0.4263
17781W        W34628  15.013   7.253   4.483 -0.0728  0.0984  0.2688
17782W        W34629   9.643   6.589  12.393  0.1937  0.3092 -0.0031
17783W        W34630   8.261  18.691  14.882 -0.2313 -0.1748  0.0365
17784W        W34631   1.491   4.921   2.960  0.1229 -0.0355 -0.1658
17785W        W34632   4.741   4.293   3.679 -0.0541  0.2399 -0.0232
17786W        W34633  17.561   9.674  13.104  0.0945  0.0602  0.0839
17787W        W34634   9.409  18.034   4.158  0.1491  0.1758 -0.0668
17788W        W34635  16.069  10.222   2.766  0.1601 -0.0310  0.0647
17789W        W34636   7.827   9.237  11.902 -0.2890 -0.2731 -0.1430
17790W        W34637   7.906   5.509  14.888  0.1988  0.0147  0.1578
17791W        W34638   9.527   8.089   0.314  0.0497 -0.1548  0.1251
17792W        W34639  18.088   2.370   1.761  0.0765  0.1959  0.1063
17793W        W34640   5.119   4.055   4.114  0.0435  0.1010  0.0335
17794W        W34641  13.961  10.997   2.190  0.1337 -0.1902 -0.1790
17795W        W34642  14.180   4.374   4.400  0.0275  0.1523 -0.1211
17796W        W34643  17.997  14.886   1.469 -0.1782 -0.1216  0.0166
17797W        W34644  16.531   7.610   1.484  0.0416  0.0257 -0.0407
17798W        W34645  15.114  18.132   1.118  0.1781 -0.1827 -0.0368
17799W        W34646  10.842  16.872   1.386 -0.2448 -0.2579 -0.0934
17800W        W34647  14.057  10.393   0.108 -0.0612  0.0514 -0.2244
17801W        W34648   1.748  18.181   1.002 -0.2085  0.1549  0.2753
17802W        W34649   2.710   9.740   4.293  0.1636 -0.0339 -0.2604
17803W        W34650  13.452   6.276  13.680 -0.2198 -0.0572  0.0529
17804W        W34651  15.212   7.392   3.590 -0.1661  0.0190 -0.1031
17805W        W34652  10.843   3.974  13.084 -0.0862 -0.0714 -0.0384
17806W        W34653   5.288   6.019  13.560 -0.0807 -0.1024  0.2389
17807W        W34654  11.046   9.713  14.495 -0.2922  0.2830 -0.0498
17808W        W34655   9.714  10.721  12.258 -0.1410  0.0273  0.0444
17809W        W34656   4.672  10.421  12.995 -0.1784 -0.0821  0.0179
17810W        W34657  10.077  12.619   4.303 -0.2244 -0.0185 -0.1351
17811W        W34658   1.576   6.054   4.188 -0.0196 -0.1693  0.2905
17812W        W34659   7.816  15.432  14.722  0.0957 -0.2626  0.0689
17813W        W34660  12.505   5.699   0.533  0.1533 -0.1045  0.2564
17814W        W34661   5.908   3.271  12.057  0.0448  0.0174 -0.0183
17815W        W34662   4.721  14.305  11.047  0.2208  0.0117 -0.0805
17816W        W34663  17.601   2.740   4.875  0.0997 -0.1209  0.0337
17817W        W34664  12.793  17.186  11.832  0.2395  0.0084 -0.2371
17818W        W34665   9.439  12.258   2.628  0.1133  0.1123 -0.0264
17819W        W34666  10.217  16.975   0.323 -0.2594 -0.1429 -0.0785
17820W        W34667  17.573   8.718   3.485 -0.1522 -0.2447  0.2155
17821W        W34668   1.865   2.805   4.236 -0.1757 -0.1132 -0.1995
17822W        W34669   4.987   3.846  12.991 -0.2275  0.0751  0.2891
17823W        W34670   7.709   9.485   3.532  0.1507  0.3066 -0.6641
17824W        W34671   0.495   9.594  13.915 -0.1099  0.0367  0.0123
17825W        W34672  11.071   9.712   5.436  0.1499 -0.0034 -0.0907
17826W        W34673   0.731   4.089  15.333 -0.1557 -0.1828  0.2253
17827W        W34674   0.914   6.879  12.767 -0.0727  0.0228  0.0304
17828W        W34675   7.280  10.919  11.018 -0.1513  0.0298 -0.0307
17829W        W34676  14.705  11.485   3.757  0.0403 -0.0737  0.1940
17830W        W34677  18.350  18.025  14.876 -0.1048  0.0440  0.0918
17831W        W34678  14.819  12.587   4.781 -0.0195  0.0178 -0.0547
17832W        W34679  10.771   1.498  14.948  0.0612 -0.0508 -0.1070
17833W        W34680  11.649  10.836   2.759  0.1441 -0.0204  0.1850
17834W        W34681   3.459   1.001   9.904  0.4023 -0.0203  0.0151
17835W        W34682  13.102   6.276   2.477  0.1063 -0.2024  0.1059
17836W        W34683  16.906   4.816   2.569  0.0457  0.2377 -0.0351
17837W        W34684  11.986  11.629  13.119 -0.1203 -0.2705  0.0803
17838W        W34685   9.532   1.601   1.148  0.0098  0.0743 -0.1613
17839W        W34686   3.166  10.255   2.766 -0.0961  0.4070 -0.0014
17840W        W34687   9.064  17.544   4.441 -0.2011 -0.2787 -0.0246
17841W        W34688  17.324   7.918   4.817  0.2117  0.1476 -0.1881
17842W        W34689   7.860   7.094  11.803  0.0702 -0.0657 -0.0172
17843W        W34690   6.307  11.492  14.689 -0.2783 -0.1311 -0.0115
17844W        W34691  17.264  18.674  13.866  0.1096 -0.0163  0.3489
17845W        W34692  11.836   6.578   4.644  0.0540 -0.4811 -0.1261
17846W        W34693  16.979   3.995  11.524  0.0412 -0.1073  0.2688
17847W        W34694  12.168   9.511   1.343  0.0202  0.1696 -0.2025
17848W        W34695   7.293  12.302  11.317  0.0676  0.0148  0.0320
17849W        W34696  17.337  11.630   2.518  0.3137 -0.1212 -0.0864
17850W        W34697  18.579  16.673   1.264  0.1672  0.2795 -0.1287
17851W        W34698   1.555   2.657  12.193 -0.3524  0.1010 -0.0918
17852W        W34699   5.679   2.975   0.305  0.2162  0.0412  0.0214
17853W        W34700  13.906   5.309  11.611 -0.0069  0.3205  0.4745
17854W        W34701  15.202   1.720   0.149  0.0906 -0.0469  0.1511
17855W        W34702  11.309   3.269   2.533  0.3661 -0.1111 -0.2245
17856W        W34703   5.469  18.181  12.053  0.1977 -0.0514 -0.1036
17857W        W34704  12.010   6.274  11.612 -0.3671  0.1665  0.0310
17858W        W34705  13.377   8.365  13.597 -0.0259 -0.1722  0.1161
17859W        W34706   2.385  15.331   3.656 -0.0412 -0.2122  0.1458
17860W        W34707  15.546  11.671  15.260  0.1611  0.2333  0.1180
17861W        W34708  13.463   5.460  10.921  0.1311  0.0015  0.2073
17862W        W34709  11.721  15.487   5.293 -0.1642  0.0524 -0.0291
17863W        W34710   5.193   6.792  11.262  0.1939 -0.0568 -0.1272
17864W        W34711   8.957  16.357  14.754  0.0820 -0.0194 -0.1139
17865W        W34712  15.926   2.595  13.362 -0.0890  0.0419 -0.2107
17866W        W34713   8.633  13.086   4.766 -0.0546  0.1184  0.0216
17867W        W34714   7.055  14.361  14.354 -0.0493  0.2863 -0.0184
17868W        W34715   4.757  11.943  11.323 -0.1226 -0.2008 -0.1377
17869W        W34716   0.090   3.267   2.936  0.0129  0.0292  0.1982
17870W        W34717   2.094   8.238  11.297 -0.4138  0.2866  0.1340
17871W        W34718  10.922   1.222  12.871 -0.2393 -0.4255  0.1495
17872W        W34719  14.484   1.648  15.204 -0.2422 -0.1419 -0.0031
17873W        W34720   4.084   8.776   4.300 -0.2133 -0.1522 -0.0364
17874W        W34721   7.557   8.826   4.949  0.0437  0.3244  0.2932
17875W        W34722  16.793   2.142  11.697 -0.1406 -0.0590  0.0712
17876W        W34723  11.807   1.741  14.091 -0.3186  0.1481 -0.2326
17877W        W34724  14.551   1.632   3.790  0.1082  0.4392  0.0645
17878W        W34725   8.805   6.818   5.614 -0.3115 -0.3032  0.1525
17879W        W34726   0.642  10.507  14.216  0.1592  0.2240  0.0824
17880W        W34727   5.697  17.743   2.976  0.2802 -0.2309 -0.1663
17881W        W34728  12.087   3.343   3.113  0.1445  0.1650 -0.2975
17882W        W34729   7.570  12.175  15.058 -0.0333  0.1750  0.2776
17883W        W34730  12.608  15.901   4.603 -0.0607  0.0688 -0.0890
17884W        W34731   1.914  13.120   2.049  0.0506 -0.3110  0.0478
17885W        W34732   2.618   1.188   3.343  0.0113  0.1453  0.0068
17886W        W34733   3.136   0.794  11.320  0.2681 -0.0550 -0.1282
17887W        W34734  14.666   0.317   1.707 -0.0897 -0.0627 -0.4081
17888W        W34735   4.176   3.093   1.026  0.0786  0.2942 -0.1406
17889W        W34736   4.247   0.645  10.961 -0.0509  0.2205  0.0463
17890W        W34737   6.104   3.530  13.759  0.1073  0.1631  0.0981
17891W        W34738  10.069   2.487  13.086  0.0376  0.1363  0.1010
17892W        W34739   5.357  11.655  14.670 -0.0604  0.2204  0.0198
17893W        W34740  18.471   5.970   4.579  0.0459  0.0604  0.0017
17894W        W34741   6.366   1.123   4.595 -0.2129 -0.1618  0.1344
17895W        W34742  11.679  18.438  10.453 -0.1675  0.0520 -0.1307
17896W        W34743   0.603  18.542   0.171  0.0426 -0.2217 -0.4717
17897W        W34744  11.974   4.974   3.720  0.2011  0.0321 -0.1157
17898W        W34745  16.168   7.783   3.583 -0.1845  0.1892  0.3529
17899W        W34746  13.499  15.365  11.845 -0.0260 -0.0921 -0.2609
17900W        W34747   0.093   6.375  11.536 -0.0319  0.0064 -0.0056
17901W        W34748  13.275   4.779  14.808 -0.1057  0.0390 -0.1807
17902W        W34749  13.965   2.480   0.525 -0.0645 -0.1447 -0.1911
17903W        W34750   9.437   9.031  14.578  0.0046 -0.0655 -0.1140
17904W        W34751  15.227   4.908  11.055  0.0250 -0.2988 -0.0939
17905W        W34752   1.323  18.547  13.807  0.0667  0.0433 -0.1256
17906W        W34753   6.212   5.630   4.535  0.0513  0.1567 -0.1642
17907W        W34754   6.290  12.542  13.686  0.5884  0.0404  0.0184
17908W        W34755  11.709  17.384  11.612  0.0212  0.1194 -0.1005
17909W        W34756  18.481  15.108   4.136  0.0590 -0.1020  0.1018
17910W        W34757  14.966   4.007   3.831  0.1444  0.0709 -0.2205
17911W        W34758  11.720  11.504   3.813  0.2982  0.2221 -0.4211
17912W        W34759   2.828   8.259  12.171  0.1736 -0.1714  0.0394
17913W        W34760   3.562  15.988  15.081 -0.0091 -0.1050 -0.3466
17914W        W34761   9.785  17.637   3.030  0.0372 -0.1034  0.1424
17915W        W34762   5.066  11.816  15.095  0.1672  0.2655  0.0806
17916W        W34763   2.695   8.397   1.766 -0.1430 -0.2236 -0.2534
17917W        W34764   1.725  17.113  12.007 -0.2273 -0.1177 -0.4367
17918W        W34765  17.095   3.032  12.463 -0.2082  0.2657  0.1104
17919W        W34766  16.238   1.154  11.911  0.3582 -0.0439 -0.1967
17920W        W34767   3.621  10.298   1.759  0.2102 -0.1288 -0.4212
17921W        W34768  11.452  12.785   2.576  0.1549  0.1574  0.0665
17922W        W34769   6.788  16.639  13.963  0.0593  0.1801 -0.1209
17923W        W34770  12.401   0.255  15.360  0.0750 -0.1250 -0.0277
17924W        W34771   5.161  18.430  13.675  0.0197  0.2228 -0.0239
17925W        W34772  13.596   4.428   1.664 -0.0215  0.1414  0.2483
17926W        W34773   3.561  13.888  12.311  0.2319  0.2740  0.3030
17927W        W34774   3.991  14.865   0.684  0.0354 -0.3492  0.3759
17928W        W34775  12.386  18.408   2.866 -0.1154 -0.0631 -0.0107
17929W        W34776  13.548   9.810  13.410 -0.0273  0.1432  0.2515
17930W        W34777   7.340  17.487   4.666 -0.1025 -0.0058 -0.1301
17931W        W34778  13.809  16.472  10.846 -0.0627 -0.1415  0.0001
17932W        W34779  10.149   9.302  14.390  0.0776  0.0073 -0.0841
17933W        W34780   3.301   8.510   0.598  0.0978 -0.1323  0.0129
17934W        W34781  14.436  16.194  15.339  0.0544 -0.2394  0.1368
17935W        W34782   5.759   8.415   3.709  0.3531  0.2597 -0.0898
17936W        W34783   5.020   6.074   9.853  0.1498  0.0448 -0.1387
17937W        W34784   9.187   2.526  14.621  0.3355  0.2489 -0.3752
17938W        W34785   0.899   9.736  12.632  0.0193 -0.0385 -0.1034
17939W        W34786   4.022   3.439  14.116 -0.1877 -0.0112 -0.0074
17940W        W34787   3.755  13.033  12.460  0.2636 -0.0881 -0.1993
17941W        W34788  12.206  11.173   0.197  0.0666 -0.0087 -0.2978
17942W        W34789  17.027   8.300   1.539  0.0943  0.0212  0.0918
17943W        W34790   6.988   1.268   0.001 -0.0786 -0.0257  0.2537
17944W        W34791   1.242   2.713  11.687  0.0630  0.1515 -0.2279
17945W        W34792  13.404  10.568  14.906  0.1486 -0.1014  0.0509
17946W        W34793   7.429   8.166   1.879 -0.2705  0.2393  0.1867
17947W        W34794   1.755   1.028  14.990  0.0746 -0.1433 -0.2163
17948W        W34795   2.058  11.800   3.386  0.1757 -0.1122 -0.1210
17949W        W34796   1.124   2.477   3.492  0.3915  0.2223 -0.0056
17950W        W34797   5.583   9.396   3.479  0.0429 -0.0074  0.2345
17951W        W34798   4.766   1.244   1.168  0.0676 -0.1529 -0.1991
17952W        W34799  16.741   7.992   1.765 -0.0674  0.2020 -0.1535
17953W        W34800  16.056  11.846   4.085 -0.1553  0.0058  0.0041
17954W        W34801  18.515  10.561   4.663 -0.2038 -0.1396 -0.0119
17955W        W34802  16.208  10.643  13.319  0.0656 -0.2262  0.1131
17956W        W34803  18.458   0.382  15.244  0.1764 -0.1140 -0.1740
17957W        W34804  10.298   3.340  12.837  0.1203  0.2624  0.0568
17958W        W34805  16.812  13.383  11.637 -0.0877 -0.0044 -0.4291
17959W        W34806  11.277   7.349   3.639 -0.3001  0.0737 -0.1357
17960W        W34807   7.451  13.853   4.925 -0.1342 -0.1433 -0.0058
17961W        W34808  11.124  16.180  15.261 -0.1988 -0.0914  0.1174
17962W        W34809  17.298   1.727  12.966 -0.1484  0.0899  0.1437
17963W        W34810  16.780   6.165  11.446  0.0494 -0.2798 -0.0204
17964W        W34811   7.309   7.608  15.144  0.0503 -0.1094  0.0742
17965W        W34812  10.330  11.419   2.113  0.0182 -0.0648  0.0871
17966W        W34813  18.275  15.600   0.259 -0.2704  0.1514 -0.0347
17967W        W34814  16.233  18.022   0.307 -0.0740 -0.0712  0.0955
17968W        W34815  18.749  18.791  15.165  0.1554 -0.0977  0.1914
17969W        W34816  15.681   0.409   0.199 -0.0612 -0.0817 -0.0509
17970W        W34817  17.599  17.306  14.750  0.1476  0.1069 -0.0972
17971W        W34818  17.742   0.854   9.776 -0.0065 -0.1058  0.0558
17972W        W34819  17.766   7.253   4.341 -0.1449 -0.2708  0.4632
17973W        W34820   9.343   7.918   3.528 -0.4801 -0.1556  0.1120
17974W        W34821  11.852  13.532  14.809 -0.0460 -0.0403  0.0442
17975W        W34822   1.318   4.827  12.938  0.0640  0.1571  0.2661
17976W        W34823   7.638   5.573   3.913 -0.0909  0.0275 -0.4074
17977W        W34824   3.372   1.571   1.735  0.1293 -0.0196  0.0588
17978W        W34825  12.915  15.584   4.261 -0.1295 -0.0576 -0.3383
17979W        W34826  17.837  16.853   4.095 -0.4186 -0.0632  0.2254
17980W        W34827  14.668  10.730  14.613  0.1192 -0.3129 -0.2521
17981W        W34828   3.882  18.166  14.252 -0.0233  0.2257  0.2984
17982W        W34829  14.758  11.115   2.698 -0.2725  0.1605  0.2231
17983W        W34830  16.580  16.508   9.614 -0.1057  0.2253  0.1001
17984W        W34831   4.197   1.360   1.150 -0.2965  0.1101 -0.0123
17985W        W34832   3.849  13.141   3.805  0.0653  0.1112 -0.3533
17986W        W34833  10.318  11.465  14.079  0.0649  0.1320 -0.0552
17987W        W34834   9.657   8.608  12.395  0.0089 -0.2076  0.1598
17988W        W34835   8.709   8.978   0.404  0.0529 -0.0616 -0.0855
17989W        W34836  12.709   5.269  14.136 -0.0078  0.1146  0.3761
17990W        W34837   7.742   3.122   1.408 -0.3400 -0.2721  0.0849
17991W        W34838  13.154   8.672  11.694  0.1303  0.3245 -0.0027
17992W        W34839  15.221  18.054   0.585  0.2345 -0.1512  0.1511
17993W        W34840   7.103  17.276  11.401  0.0655  0.0072  0.0267
17994W        W34841  15.364  14.693  11.789  0.1017 -0.0944  0.0733
17995W        W34842   6.413  16.585   5.186  0.1422 -0.1201  0.0875
17996W        W34843  16.128  14.880   0.504  0.0339 -0.0310  0.1771
17997W        W34844  14.348   7.066   3.870  0.0991 -0.1003 -0.3364
17998W        W34845   5.603  12.983   3.462 -0.0886 -0.1947  0.2117
17999W        W34846   7.961   8.018   1.725 -0.1705  0.0105  0.0129
18000W        W34847   1.341  12.377   2.463  0.0048 -0.4375 -0.1201
18001W        W34848  17.133   5.278   3.123  0.1001  0.3218 -0.2937
18002W        W34849  13.014   4.007  10.761  0.0961  0.2320 -0.0897
18003W        W34850   2.904  12.416   1.803  0.0301 -0.1106 -0.1618
18004W        W34851   2.554   6.532   1.869  0.1753  0.0493  0.1183
18005W        W34852   4.637  15.501  11.879 -0.1879  0.1447 -0.0282
18006W        W34853  13.828   8.526  15.508 -0.0491  0.3592 -0.1332
18007W        W34854  11.371  12.938   1.753  0.3287 -0.0020 -0.0422
18008W        W34855  11.441   6.995   3.356  0.0253 -0.2458 -0.1017
18009W        W34856   3.083  15.272   0.110  0.1670 -0.1205  0.3323
18010W        W34857   1.249   7.160   3.513 -0.0768 -0.1469  0.0425
18011W        W34858   0.760   4.011   3.689 -0.5040  0.1576 -0.3585
18012W        W34859   5.293  14.682  14.111 -0.3196 -0.0370 -0.1302
18013W        W34860  18.572   0.244  10.714 -0.1247 -0.2185  0.0163
18014W        W34861  14.412   3.030   0.031 -0.0124 -0.1951  0.0291
18015W        W34862   0.877  10.581   5.023  0.0493  0.2204  0.0143
18016W        W34863   9.294   9.409   4.548 -0.2498 -0.1257 -0.0828
18017W        W34864  17.287   5.974  12.127  0.1911  0.3003 -0.1543
18018W        W34865   1.032   9.960   3.803  0.2329  0.0306 -0.2096
18019W        W34866  15.198  12.251   2.030 -0.1595 -0.0990 -0.1473
18020W        W34867  10.059  17.333  13.372 -0.0864 -0.1723  0.2780
18021W        W34868  18.150  17.578   3.388  0.1013  0.1633  0.1314
18022W        W34869   1.713   9.292  10.583 -0.0057 -0.0951  0.0458
18023W        W34870  17.899  12.365   3.018  0.2755 -0.0062  0.1401
18024W        W34871   3.763   5.742  13.557  0.0261 -0.0035  0.1308
18025W        W34872  13.525  18.617  13.838 -0.1593 -0.0304  0.2197
18026W        W34873  12.635   4.212   1.974 -0.2092 -0.0375  0.1547
18027W        W34874   5.823   0.646  11.348  0.1565  0.0532  0.0902
18028W        W34875   6.652   3.907   0.181 -0.0289  0.0447  0.1276
18029W        W34876  10.272   8.371  14.593  0.2719 -0.3464  0.0917
18030W        W34877   0.778  14.679   2.788  0.0767 -0.2028 -0.0625
18031W        W34878   7.233  12.862   4.768  0.1212  0.1812 -0.3308
18032W        W34879   6.392  18.102   5.194 -0.0016 -0.1298  0.1177
18033W        W34880   2.565  11.780   3.928  0.0944 -0.2220  0.3788
18034W        W34881   4.262  16.927  12.156  0.1641  0.0608  0.2131
18035W        W34882   8.141  15.288   4.313  0.3641 -0.1396  0.1288
18036W        W34883   5.036  12.001   0.429 -0.1321 -0.1323 -0.0002
18037W        W34884   5.680   6.376  14.903 -0.1450  0.1468  0.0595
18038W        W34885   2.077   6.499   0.170 -0.1086  0.0617 -0.1529
18039W        W34886  11.639   0.525   2.087  0.0010 -0.3760  0.2650
18040W        W34887   1.099  18.050  11.620  0.3289 -0.0223  0.1682
18041W        W34888  14.356   8.886  14.935 -0.0691  0.0463  0.0721
18042W        W34889  17.038  14.724   0.059  0.1650  0.1748  0.0888
18043W        W34890  18.075  14.266  13.526 -0.1105 -0.1432 -0.2062
18044W        W34891   6.018  15.585  12.713 -0.2357  0.0413  0.1528
18045W        W34892   2.854  10.490   4.884  0.1183 -0.1274  0.2755
18046W        W34893  13.632   1.899   2.023  0.0853 -0.0784 -0.1566
18047W        W34894  13.645   6.611  14.949  0.1648  0.0088 -0.0646
18048W        W34895   1.752  10.979  13.823  0.2173 -0.2601 -0.2430
18049W        W34896  13.685   1.578   5.515 -0.2204  0.0343  0.1871
18050W        W34897  10.044   1.473  12.275  0.2464  0.2850  0.1456
18051W        W34898   1.851  13.183  12.072  0.0240 -0.0791 -0.1055
18052W        W34899   7.577   2.983  10.823  0.0550 -0.2124 -0.2678
18053W        W34900   6.591   5.902  14.814  0.1223 -0.0273 -0.1395
18054W        W34901   0.148  15.865   3.896  0.1811 -0.1142 -0.1263
18055W        W34902   7.140  12.920  14.862 -0.0268 -0.0629  0.0601
18056W        W34903  18.505   0.164  12.523  0.0635 -0.3603  0.1009
18057W        W34904   2.387  14.616   2.543  0.0705  0.2408  0.2998
18058W        W34905   5.960  13.385   1.273 -0.0114 -0.0639  0.0048
18059W        W34906   5.773  12.579   2.279 -0.1583  0.1575  0.0237
18060W        W34907  12.785  10.738   3.358  0.0556 -0.2378  0.0358
18061W        W34908  12.951  14.751  10.298 -0.1728 -0.3534  0.0585
18062W        W34909   0.767   4.798   2.197  0.0367 -0.0959 -0.0064
18063W        W34910   3.731  10.516  11.374  0.1738 -0.1506  0.0930
18064W        W34911  18.354  17.176   4.811  0.1001  0.1371 -0.3136
18065W        W34912  10.079   0.951  10.280 -0.4718 -0.1085 -0.0053
18066W        W34913  13.811   9.248   3.755  0.1658 -0.3434 -0.1335
18067W        W34914  14.853   0.459   0.055 -0.1662  0.1705  0.0272
18068W        W34915  11.251   4.808  13.066 -0.0840 -0.0034 -0.0382
18069W        W34916  10.866  17.532  15.300 -0.3993  0.2484  0.1981
18070W        W34917  18.046   7.580  13.612  0.1902  0.1672  0.0764
18071W        W34918   3.610   6.719  15.057 -0.3456 -0.0366  0.3813
18072W        W34919  10.677   8.602  15.300  0.2870 -0.2632  0.1303
18073W        W34920   6.066  14.821   4.583 -0.2760 -0.2423 -0.1111
18074W        W34921   2.313  16.951   2.863 -0.0060  0.3918 -0.0205
18075W        W34922   2.734   0.033  13.197  0.1504  0.1661  0.3005
18076W        W34923   6.511   5.419   1.775  0.3493 -0.2288 -0.1310
18077W        W34924   6.383   4.019  12.185  0.2622  0.3854 -0.2381
18078W        W34925  12.982   7.128   0.749  0.2536 -0.0573  0.1845
18079W        W34926  10.253  16.757   4.259 -0.0053  0.1281  0.1906
18080W        W34927  16.678  15.230  11.104 -0.2618  0.1691 -0.1555
18081W        W34928   8.721  11.244   1.136  0.1817  0.2304  0.2448
18082W        W34929   4.606   8.884  11.423  0.1972 -0.0177 -0.0040
18083W        W34930   0.643   4.984  13.747  0.2296 -0.0080  0.0118
18084W        W34931   5.235  10.182   3.794 -0.0241 -0.0786 -0.2092
18085W        W34932   8.975  16.814  12.507 -0.1417 -0.1689  0.1886
18086W        W34933  13.407  14.423  14.564 -0.0279 -0.1771  0.1422
18087W        W34934   3.628   9.158   2.946  0.2639  0.0153  0.0556
18088W        W34935   7.056   4.306   4.736  0.0789 -0.1095  0.3055
18089W        W34936  12.948   7.517   4.283 -0.1090 -0.0612 -0.0613
18090W        W34937  10.618   9.862   4.143  0.3519 -0.1407 -0.3185
18091W        W34938   1.066  18.693   2.899  0.1290 -0.2064 -0.0162
18092W        W34939  17.778   4.933   0.992 -0.2053  0.1095 -0.3330
18093W        W34940  14.365   7.903  14.508  0.0834  0.1032 -0.0508
18094W        W34941   3.028   4.416  13.655  0.2294 -0.3363 -0.0176
18095W        W34942  13.328   7.159   4.350  0.1365  0.0737  0.3111
18096W        W34943  13.965  15.990  10.852  0.2111  0.0718 -0.3708
18097W        W34944   2.101   8.022  14.884  0.1383  0.1993  0.1810
18098W        W34945   9.745   1.702   4.492 -0.2402 -0.3796 -0.0544
18099W        W34946   8.968  18.736  12.175 -0.1891 -0.0137  0.0320
18100W        W34947   5.278   2.892   0.793  0.2316 -0.2011 -0.0802
18101W        W34948   5.289   1.806   0.604 -0.1127  0.0483  0.1261
18102W        W34949   8.378   7.677  13.066  0.0409  0.1079 -0.3608
18103W        W34950   6.365   8.515  12.775  0.0319 -0.0708 -0.2364
18104W        W34951  14.759   5.787   2.971  0.0973  0.3997  0.1705
18105W        W34952   1.824   3.829   3.394 -0.1345 -0.0909 -0.0356
18106W        W34953  13.494  13.638   3.690 -0.1081 -0.0520  0.1361
18107W        W34954   0.650   7.339   3.111 -0.0393 -0.1078  0.2483
18108W        W34955  17.985  17.095  11.835 -0.1255 -0.2153  0.0585
18109W        W34956  10.288  12.088   0.844 -0.1561  0.0458 -0.2061
18110W        W34957  17.765   5.771   3.145  0.2109  0.1690  0.0098
18111W        W34958  13.029   8.240  15.206 -0.1345  0.1241  0.0054
18112W        W34959  16.080   2.614  15.153 -0.3189  0.0179 -0.2809
18113W        W34960   4.270   8.676   0.832 -0.4801 -0.1915  0.1477
18114W        W34961  15.676   5.482   5.399  0.2121 -0.1396 -0.0114
18115W        W34962   9.726  15.205  14.754 -0.0514  0.1999 -0.0959
18116W        W34963  14.370  10.380  15.205 -0.1287  0.0062 -0.0667
18117W        W34964   6.446   3.795   2.309  0.2531 -0.2795 -0.0894
18118W        W34965  12.684   1.146   0.853  0.2259 -0.2519 -0.0166
18119W        W34966  16.522  15.710  11.404  0.2476 -0.2454  0.2436
18120W        W34967   0.151  12.528   1.884  0.2044 -0.3529 -0.1016
18121W        W34968   4.295   7.792  13.063  0.1425  0.2729 -0.2859
18122W        W34969  12.881   7.914   0.046  0.2927  0.1739  0.0233
18123W        W34970  15.405   5.793   4.042 -0.0898 -0.0037 -0.2722
18124W        W34971  10.445   7.198   1.749 -0.0887 -0.0046 -0.0040
18125W        W34972   3.523   3.497   0.510  0.1741  0.1251 -0.0567
18126W        W34973   6.430   6.592   1.658 -0.1142  0.0877  0.2298
18127W        W34974  12.752  18.020   5.122  0.1797 -0.2816  0.0145
18128W        W34975   7.818  15.759  13.796 -0.1839 -0.0277 -0.1348
18129W        W34976   6.779   6.107   2.285  0.0806  0.2571 -0.0844
18130W        W34977   2.809   3.356   0.160  0.3273 -0.3224 -0.2720
18131W        W34978  12.432  10.203  11.354 -0.3089 -0.1316 -0.2270
18132W        W34979  14.858   1.257  15.401 -0.2661 -0.1002 -0.2234
18133W        W34980   5.092   0.685   0.106  0.0042  0.0641 -0.0903
18134W        W34981  15.055  15.132   0.588  0.0745 -0.0014  0.0563
18135W        W34982  13.114   7.746  12.200  0.0854  0.1253 -0.0682
18136W        W34983  16.929   0.911  11.350 -0.0407  0.2238  0.3084
18137W        W34984  17.126   3.263  13.097 -0.1193 -0.4965 -0.0037
18138W        W34985  10.149  18.396  12.783 -0.6904 -0.2576  0.2047
18139W        W34986  10.475  12.584   1.526  0.2523 -0.0389  0.4707
18140W        W34987  18.717  14.565   1.559 -0.0248 -0.2470 -0.0323
18141W        W34988  17.178  15.994  14.702  0.3073  0.0237  0.1399
18142W        W34989   1.738   1.838   3.906  0.4697  0.0198 -0.2325
18143W        W34990   1.312  14.831  11.409  0.2249 -0.0675 -0.2061
18144W        W34991  11.165   9.518  13.148  0.2406  0.3765 -0.0218
18145W        W34992   3.052   2.717  14.992 -0.0208  0.0105  0.2024
18146W        W34993   9.161  11.844   2.572 -0.3716  0.0137  0.1240
18147W        W34994  18.529  14.378  15.333 -0.1935 -0.1657  0.1651
18148W        W34995   4.362  17.759  13.753 -0.2462  0.2830 -0.1461
18149W        W34996   0.606   9.680   5.887 -0.2155 -0.4191  0.1702
18150W        W34997   8.199   1.027  12.255  0.2165  0.0349  0.0560
18151W        W34998  18.202   5.857   2.932  0.1642 -0.0655 -0.0049
18152W        W34999  14.997   0.624   2.705  0.1588 -0.1134 -0.1157
18153W        W35000   8.293  14.939  11.069  0.1450  0.0697 -0.3794
18154W        W35001   6.969   7.429  11.875  0.2111  0.0347 -0.2982
18155W        W35002   4.100  11.527  11.236 -0.3207 -0.0040 -0.1490
18156W        W35003  10.248   6.339  11.336 -0.2125  0.0069 -0.3006
18157W        W35004  11.827  16.230  12.653  0.1481  0.0251 -0.1009
18158W        W35005  14.987  15.533  11.912  0.1490 -0.0845  0.0861
18159W        W35006   6.266   9.850   3.980  0.0511 -0.2379  0.2241
18160W        W35007   3.006  14.276  14.882  0.1650 -0.2204 -0.0285
18161W        W35008  11.554  15.484   2.574  0.1007 -0.1374  0.0810
18162W        W35009  13.856   4.376  15.475 -0.1160  0.1210 -0.2775
18163W        W35010  15.603   3.298   3.891 -0.0280  0.0376 -0.1418
18164W        W35011   8.721  18.835   0.520 -0.0160 -0.0738  0.4057
18165W        W35012  10.506   1.087   0.977 -0.4203 -0.2912  0.0447
18166W        W35013   3.259  15.473   0.984  0.1003  0.4239  0.1260
18167W        W35014  11.439   2.297   3.145 -0.2109 -0.0407  0.0499
18168W        W35015   0.571  10.149  12.050 -0.1082  0.1678 -0.3415
18169W        W35016   8.955  10.780   4.394 -0.0878 -0.0486  0.1085
18170W        W35017   5.561  15.277  11.392  0.0829 -0.1743 -0.0739
18171W        W35018   2.809  11.460   1.916 -0.2679 -0.0346 -0.2289
18172W        W35019  14.044   6.513   5.677 -0.4133  0.0613 -0.0548
18173W        W35020  12.939   1.973  11.945 -0.1447  0.0877  0.1834
18174W        W35021   2.093  17.885   3.805  0.0785  0.1292  0.0295
18175W        W35022   5.428  15.907   2.107 -0.1013  0.2029 -0.3576
18176W        W35023  18.188   5.310  12.010  0.0664 -0.0664 -0.0540
18177W        W35024  11.322  15.454   9.230  0.2689  0.0857  0.1215
18178W        W35025   7.684   8.325   2.648 -0.0852 -0.2993  0.1918
18179W        W35026  12.377   9.103   3.910  0.1676  0.0881  0.0437
18180W        W35027   4.461  13.244  11.395 -0.0627 -0.0230 -0.1381
18181W        W35028  13.678   3.643  14.267 -0.0386 -0.2095  0.3528
18182W        W35029   5.915   2.205  14.312 -0.0529  0.0952 -0.2216
18183W        W35030   9.992   4.558  13.267 -0.1362 -0.1962  0.1576
18184W        W35031  11.419   8.812  14.061  0.5579 -0.1915  0.0811
18185W        W35032   0.910   4.664  13.350  0.0922 -0.4059  0.1135
18186W        W35033   1.239  14.725   1.527  0.2573 -0.0579 -0.2660
18187W        W35034   6.837  14.092  13.873  0.0047  0.0030 -0.2366
18188W        W35035   0.020   1.716  13.862 -0.1362 -0.2601  0.0059
18189W        W35036  15.268  17.822   4.614 -0.3508 -0.1902  0.3083
18190W        W35037   6.002  11.504  12.956  0.0818  0.2864  0.0570
18191W        W35038   9.500  14.343  14.783 -0.0421 -0.1429 -0.4970
18192W        W35039   0.327  16.039   1.635 -0.2974 -0.1451 -0.0753
18193W        W35040  16.280  11.031  12.998  0.0066 -0.1446 -0.1068
18194W        W35041  18.726   9.608   2.825 -0.0379  0.2023 -0.3486
18195W        W35042  17.128   4.784  11.121 -0.0288  0.7152 -0.2042
18196W        W35043   8.675  10.692  11.279 -0.0985  0.1838 -0.0161
18197W        W35044  10.356  13.935   4.947 -0.0691  0.0733  0.1149
18198W        W35045  12.109  10.035  10.574  0.0605 -0.1105  0.0829
18199W        W35046   5.895   6.920  14.958  0.0373  0.0736  0.4457
18200W        W35047   9.934   0.184   1.562 -0.2041  0.2137  0.1237
18201W        W35048   9.700   0.697   4.519  0.3733  0.1126  0.1455
18202W        W35049  11.173  15.910  11.411 -0.0984 -0.6434 -0.2568
18203W        W35050  14.129   8.790  12.818  0.1112  0.0212 -0.4866
18204W        W35051  18.433   9.762   0.672  0.2407  0.1593 -0.0656
18205W        W35052   9.064  12.270   5.224  0.1228 -0.1322  0.1940
18206W        W35053   2.001  13.122   5.098  0.0895  0.2197  0.3730
18207W        W35054  11.452   1.245   4.985 -0.0995 -0.3773 -0.0166
18208W        W35055   2.623   0.813  14.064 -0.2044 -0.1229 -0.0100
18209W        W35056   8.769  11.137  13.061 -0.1197 -0.0096  0.0326
18210W        W35057   6.860  17.150   0.902 -0.0275 -0.0006  0.1251
18211W        W35058  15.521   4.123   0.131 -0.2459  0.3754 -0.2246
18212W        W35059   2.792  17.589   5.028  0.0057 -0.1823  0.0693
18213W        W35060   8.006   6.129   3.359 -0.0084  0.0606  0.3075
18214W        W35061   4.783   6.607  14.737 -0.2015 -0.1905 -0.0691
18215W        W35062   9.736   1.758   0.729  0.2773 -0.0515  0.0864
18216W        W35063   7.096  12.269   5.514 -0.2447  0.0444 -0.1043
18217W        W35064  14.162   8.632  14.240  0.0340  0.0363 -0.1008
18218W        W35065   2.677   4.551  11.251  0.0581 -0.2043 -0.1158
18219W        W35066  14.215  13.732   0.495 -0.1491 -0.2213  0.1535
18220W        W35067   0.491   5.217  11.415 -0.0662 -0.3204 -0.2231
18221W        W35068   4.016   8.030   5.249  0.1133  0.0661 -0.0088
18222W        W35069   7.721   1.892  13.978 -0.2678 -0.1006  0.1169
18223W        W35070   2.543  15.305  10.455 -0.0175 -0.2294 -0.1743
18224W        W35071  17.401   8.909   5.703 -0.0309  0.1747 -0.1234
18225W        W35072   1.025  10.216   5.336  0.5435  0.2829 -0.1348
18226W        W35073   3.772  13.385   2.178  0.1826 -0.1548 -0.1013
18227W        W35074  15.781  17.189   1.934  0.0196 -0.0767  0.0058
18228W        W35075  18.109   9.451  12.383 -0.1479  0.0455  0.1571
18229W        W35076  17.067   0.444   0.206  0.2180  0.2070 -0.2229
18230W        W35077   2.620   0.243   4.997 -0.1932 -0.0925 -0.3368
18231W        W35078  17.819  12.028  12.401 -0.0895 -0.0108  0.1309
18232W        W35079   6.261   5.428   2.294  0.2180  0.1288  0.1829
18233W        W35080   3.497  10.484  12.205  0.1284 -0.1250 -0.0666
18234W        W35081   7.146  11.413   1.243 -0.0879  0.2463  0.0681
18235W        W35082  16.090   2.470   0.457 -0.1216 -0.0690  0.0976
18236W        W35083   2.651  12.761   0.967  0.0490  0.2652 -0.0619
18237W        W35084   2.614   2.937  11.666 -0.2612  0.1069  0.0141
18238W        W35085   5.100  11.202  13.776 -0.2670 -0.2188  0.2990
18239W        W35086  13.362   1.974   4.745 -0.1071 -0.0941  0.2724
18240W        W35087   7.666  10.873   4.467 -0.2295  0.2039  0.1764
18241W        W35088   0.773   1.872   4.667  0.1400  0.0180 -0.1970
18242W        W35089   7.557   7.431   2.435 -0.0814  0.1019 -0.4854
18243W        W35090   8.138   5.009  12.178  0.1015  0.2011 -0.1774
18244W        W35091   1.454  10.117  14.494  0.0967  0.1346 -0.4334
18245W        W35092   7.145  15.026   0.374 -0.1493  0.0153 -0.1091
18246W        W35093  17.373  16.007   0.471  0.0870  0.1796 -0.4108
18247W        W35094  16.231  15.005   2.098  0.1353 -0.0059 -0.1864
18248W        W35095  13.566  10.437  10.481  0.1196 -0.0412  0.1387
18249W        W35096   6.131  13.402  11.071  0.1590 -0.1280  0.1063
18250W        W35097  11.106   8.204   4.384  0.2821 -0.2349  0.3878
18251W        W35098  17.578  10.425   0.403 -0.0118  0.2110  0.1581
18252W        W35099   4.822   9.410   5.549 -0.3446 -0.1091 -0.0920
18253W        W35100   3.687  12.785  14.093 -0.3162  0.2355 -0.0242
18254W        W35101   0.651   7.589  14.823 -0.0593  0.1540 -0.0612
18255W        W35102   7.031  13.761  12.435  0.1483 -0.0259  0.0614
18256W        W35103   7.111  14.923  14.388 -0.0589 -0.0265  0.3709
18257W        W35104  16.420   5.041   5.545 -0.1589  0.1959 -0.0395
18258W        W35105  12.571  10.361  15.382 -0.1633  0.0510  0.2361
18259W        W35106   4.775   0.913  13.322  0.3120  0.1762  0.6048
18260W        W35107   5.874   4.016  12.368  0.3472 -0.2721 -0.3558
18261W        W35108   7.726   8.608  14.273  0.3742  0.1734 -0.0417
18262W        W35109   9.537  10.183  11.058 -0.1344  0.1843 -0.1963
18263W        W35110   3.079  14.541  10.857  0.0699  0.2175  0.0636
18264W        W35111   0.577  13.075   1.445  0.0932  0.1011  0.0638
18265W        W35112   3.770  11.594  14.245  0.2157  0.0291 -0.0391
18266W        W35113   6.705   2.024   1.303 -0.1729 -0.1126  0.0245
18267W        W35114  10.859   9.932   2.073 -0.0302 -0.1850 -0.0421
18268W        W35115   7.500   2.569   3.662  0.2653  0.0822  0.1601
18269W        W35116  10.466  13.432  12.549  0.1835 -0.2002  0.2703
18270W        W35117  12.006  10.483   6.003 -0.0210 -0.1081 -0.1045
18271W        W35118   9.234   1.230   0.182  0.3725 -0.0035 -0.0450
18272W        W35119   6.452  12.967  10.940  0.0381 -0.0907  0.2740
18273W        W35120  14.583   9.273  11.993  0.2836  0.1926 -0.1488
18274W        W35121  12.961  18.016   2.126 -0.0633 -0.0898  0.0688
18275W        W35122  15.058   1.500   4.584  0.1530 -0.0907 -0.0176
18276W        W35123  15.395  14.155   4.567  0.0352 -0.2400 -0.0908
18277W        W35124  12.796   6.104   4.343  0.1908  0.1036 -0.3467
18278W        W35125   8.164  14.069   1.879  0.1283  0.3490 -0.2870
18279W        W35126  14.402  11.247   1.180  0.3518 -0.1080 -0.2751
18280W        W35127  10.364  11.104   2.540  0.1252  0.0766  0.0520
18281W        W35128  13.525   0.925  14.349 -0.1011 -0.1422 -0.4651
18282W        W35129   4.180   3.307  11.488 -0.0121  0.0320 -0.1666
18283W        W35130   2.587   9.161   5.111 -0.0574  0.0764  0.3090
18284W        W35131   4.481   2.598  12.638  0.0269 -0.1719 -0.1720
18285W        W35132   1.584  14.319   3.870 -0.1748 -0.1609  0.1092
18286W        W35133   0.256  10.840  14.266 -0.1282 -0.1024  0.1423
18287W        W35134   3.715  15.778   4.982  0.1021 -0.2556 -0.1383
18288W        W35135  13.817   7.250  10.564  0.3285 -0.1208 -0.2383
18289W        W35136   0.019   5.599   5.315 -0.0670  0.0277 -0.1054
18290W        W35137  18.777   4.893   2.433 -0.2773 -0.0347 -0.2708
18291W        W35138  16.812  13.353   0.379  0.0236  0.3130  0.3901
18292W        W35139  17.192   1.443   4.643  0.1206  0.1987  0.1380
18293W        W35140   9.889   5.483  13.276 -0.2266 -0.0065 -0.2245
18294W        W35141   9.571  13.407  12.684  0.1132  0.1993 -0.1954
18295W        W35142  16.353  18.183  11.612 -0.0347 -0.1030 -0.0679
18296W        W35143  14.174   6.562   4.243  0.0235  0.0642 -0.1792
18297W        W35144   2.405   6.471  12.971  0.1414 -0.0061 -0.1039
18298W        W35145   9.794  10.182   5.281  0.1458  0.0044  0.0977
18299W        W35146  17.279   5.158   3.907 -0.1295 -0.1448 -0.2309
18300W        W35147   2.292   9.334   0.188 -0.1930  0.1251  0.0199
18301W        W35148   1.817   4.384   4.511 -0.0349  0.2283 -0.2863
18302W        W35149   7.492   9.027   3.574  0.1425  0.3539  0.0324
18303W        W35150  16.364  17.492   0.805 -0.1251 -0.1102  0.3512
18304W        W35151   2.323  15.429   1.446 -0.0926  0.0068 -0.0737
18305W        W35152  15.702  13.729  12.118  0.0013 -0.2152  0.3137
18306W        W35153   0.528  18.453  14.251 -0.1754  0.0454  0.2576
18307W        W35154  11.548   6.246   4.363  0.1387 -0.0791  0.1502
18308W        W35155   6.113  17.319  13.428  0.5878 -0.0103  0.4328
18309W        W35156   0.530   4.714   1.576 -0.1164 -0.0459  0.2603
18310W        W35157  14.706   5.177  14.559 -0.1574  0.0640 -0.3906
18311W        W35158   3.326  18.135   0.453 -0.0193  0.0627  0.0741
18312W        W35159  11.714  14.214   5.334 -0.0752 -0.1032 -0.0065
18313W        W35160   6.117   2.461  13.426 -0.0734  0.0033  0.3081
18314W        W35161   7.073   7.314  13.241  0.0968  0.1684  0.2319
18315W        W35162  11.086   8.030  13.056 -0.1796  0.0975  0.2283
18316W        W35163   8.836   8.195  11.707  0.1210  0.1950 -0.0018
18317W        W35164   2.146  16.170  14.744  0.1346  0.1064 -0.1628
18318W        W35165   8.125   8.754  12.142 -0.0388  0.0841 -0.0135
18319W        W35166   0.367   2.206   1.905  0.0415  0.3764  0.2543
18320W        W35167  11.178  11.784   2.621 -0.0422  0.0874  0.2103
18321W        W35168  11.707  12.050   3.343  0.2374  0.1556  0.1318
18322W        W35169  18.320  12.172  14.736  0.1198  0.0429  0.4159
18323W        W35170  10.559   0.909  14.655 -0.2433  0.0773 -0.0348
18324W        W35171   9.758  15.812  11.805  0.2822 -0.0108  0.2163
18325W        W35172   3.455   9.471  14.294  0.0787  0.0133 -0.2832
18326W        W35173  13.608   9.598   3.054 -0.0921 -0.0659 -0.3201
18327W        W35174   0.165   1.094   0.887 -0.0126  0.1855  0.0080
18328W        W35175   4.185  11.941   0.502  0.4009 -0.0729  0.3285
18329W        W35176  16.771   9.504  14.003  0.2343 -0.2313 -0.0107
18330W        W35177   0.235  11.901  12.973  0.0094 -0.0572  0.0658
18331W        W35178  13.291  12.994  11.812 -0.4868  0.1562 -0.1528
18332W        W35179   7.400  16.398   3.749  0.2486  0.1775 -0.2048
18333W        W35180  18.150  17.609  11.841 -0.1140  0.1643  0.2980
18334W        W35181  13.004   6.802  14.389  0.3318  0.1151  0.1386
18335W        W35182  12.751   9.235  12.361 -0.0050 -0.1537  0.6183
18336W        W35183  12.944   0.665   0.922  0.0033  0.5571 -0.1189
18337W        W35184   9.143  13.992  14.355 -0.1339 -0.0478  0.0338
18338W        W35185  10.290  11.082   5.409  0.2690 -0.0633 -0.0425
18339W        W35186  14.578  16.746  13.930  0.1731 -0.0267  0.2177
18340W        W35187   3.101   0.685  12.630  0.1525  0.1219  0.1117
18341W        W35188  10.202  14.189   3.400 -0.0093 -0.3358 -0.2785
18342W        W35189  18.588  17.538  14.812 -0.1976 -0.0946  0.0013
18343W        W35190  13.919   0.649   5.346 -0.0011  0.1679  0.5052
18344W        W35191  10.049  14.077  15.527 -0.2015 -0.0550  0.2826
18345W        W35192  14.310  16.347   0.789  0.0017 -0.2075 -0.3103
18346W        W35193  14.743   3.059   0.854 -0.0140 -0.2201  0.1519
18347W        W35194  13.261   7.766  11.738 -0.3895  0.1221  0.0065
18348W        W35195   3.162   7.962  12.633 -0.1725 -0.0397  0.1766
18349W        W35196   3.044  15.540  15.231  0.0388 -0.0370  0.0064
18350W        W35197   1.185  18.613  15.556 -0.1282  0.2066  0.0592
18351W        W35198   7.836   9.555   4.478  0.0724  0.0747 -0.0914
18352W        W35199  13.779  15.073  13.692 -0.1414  0.0278  0.0034
18353W        W35200   5.500  15.449  10.371  0.3812  0.0877  0.2011
18354W        W35201  12.680   4.245   3.446 -0.1619 -0.3850  0.0868
18355W        W35202   1.744   0.248  14.329 -0.1126  0.0423  0.2990
18356W        W35203   2.451   9.733  13.514  0.2106  0.0427 -0.1854
18357W        W35204  18.045   8.896   5.130  0.2639  0.0609 -0.0659
18358W        W35205  13.272  17.533  14.124 -0.0947 -0.0839  0.3110
18359W        W35206   6.219  11.477   2.604  0.4011  0.0848 -0.3520
18360W        W35207   3.314  18.374   1.867 -0.3776  0.2710  0.1653
18361W        W35208  18.623   6.113  12.588  0.5350  0.1719 -0.0083
18362W        W35209   0.426  14.696   4.058 -0.0488 -0.0896 -0.2203
18363W        W35210   3.990  10.128  12.307  0.0774  0.1347 -0.4691
18364W        W35211   9.417  14.917   4.753 -0.2372 -0.1408  0.0193
18365W        W35212  17.889   8.520  13.438  0.1389  0.1266 -0.0081
18366W        W35213  11.817  16.619  11.605  0.1405  0.0023 -0.2710
18367W        W35214   1.175   4.258   4.992  0.3625  0.3096  0.0458
18368W        W35215   5.193   1.960   1.280  0.1743 -0.1424  0.0167
18369W        W35216   7.243  10.991  13.956  0.0671  0.1076  0.2017
18370W        W35217   8.155   0.964  11.689 -0.0262  0.0277 -0.2712
18371W        W35218  16.712   7.746  12.443 -0.0592  0.0202  0.0264
18372W        W35219   1.371   8.274  13.929 -0.1870 -0.0023 -0.2307
18373W        W35220  14.147   5.623   5.674 -0.3320 -0.1597 -0.0464
18374W        W35221  17.431  16.156  14.037 -0.4066  0.4656  0.2249
18375W        W35222   5.987  17.868   4.005  0.1418  0.1071 -0.0234
18376W        W35223   5.372  16.903  12.092  0.2504  0.0283 -0.0830
18377W        W35224  10.058  15.221   2.735  0.1654  0.2394  0.0792
18378W        W35225  10.028   0.559   3.163 -0.1961  0.6751 -0.1929
18379W        W35226   3.389  17.966  10.394  0.2966  0.3318 -0.0750
18380W        W35227   6.556  13.800  15.044 -0.1818  0.1152  0.1302
18381W        W35228   8.756   6.964   2.751 -0.3576  0.1022  0.1346
18382W        W35229   5.397   9.888  14.968  0.3635  0.3122  0.1004
18383W        W35230  16.847  11.545   2.363  0.0981  0.1430 -0.0477
18384W        W35231   8.245   6.580  13.123 -0.1951 -0.1704  0.1198
18385W        W35232   3.988  14.105   3.658  0.0231  0.2359  0.2169
18386W        W35233  10.483   1.807   5.126  0.1817  0.0180  0.1534
18387W        W35234   1.223  11.250  13.720 -0.0383  0.2509 -0.0048
18388W        W35235   8.820   6.168  11.255 -0.0441 -0.4104  0.1349
18389W        W35236   0.200   9.032  13.939  0.0626  0.3753 -0.4518
18390W        W35237   8.372   7.172  15.207  0.4457 -0.1731 -0.0112
18391W        W35238  14.739   8.890   0.892 -0.1030  0.1640  0.0247
18392W        W35239   5.229   0.202   1.520 -0.1210  0.1275 -0.0792
18393W        W35240  16.476   7.458   5.006 -0.0209 -0.2519 -0.2317
18394W        W35241  12.067  18.034  12.122  0.0792  0.2235 -0.1284
18395W        W35242  12.625   3.194  10.931 -0.0062 -0.1651  0.1100
18396W        W35243   9.266   2.075  12.149 -0.2801  0.1192  0.0018
18397W        W35244  17.158  10.483   4.487 -0.2711 -0.3073  0.0052
18398W        W35245   2.978   6.626   1.034  0.1157  0.0205 -0.2790
18399W        W35246  17.940  18.449  15.061  0.3865 -0.1851  0.1729
18400W        W35247  17.658  17.419  12.072  0.0536  0.2711 -0.0722
18401W        W35248  15.224   7.194   2.408 -0.1597 -0.1217 -0.3034
18402W        W35249  11.796   3.210   0.861  0.2451 -0.2738 -0.2336
18403W        W35250   2.292   6.200   4.501  0.1865 -0.2146 -0.1987
18404W        W35251   4.541  13.321  14.496 -0.0972 -0.0116  0.0335
18405W        W35252   0.321   9.012  12.427  0.1263  0.0054 -0.1204
18406W        W35253  15.728  12.491   3.204 -0.0618 -0.4835  0.0511
18407W        W35254   8.311   0.281   0.758 -0.1427 -0.2595 -0.2230
18408W        W35255   7.081   1.542  10.554 -0.1358 -0.0758  0.0332
18409W        W35256   0.548  17.484   1.487 -0.3101  0.0938 -0.1817
18410W        W35257  12.224  17.530   2.696 -0.1290 -0.0150 -0.0554
18411W        W35258   6.335  15.265   1.054 -0.2136 -0.0166 -0.1053
18412W        W35259  14.443  15.908  13.494  0.2921  0.3078 -0.2696
18413W        W35260  12.430   9.910  14.325  0.0163 -0.1061  0.1187
18414W        W35261  10.078  10.332   3.238 -0.0338 -0.0309 -0.0975
18415W        W35262   0.602  17.690   2.997 -0.3964 -0.0039 -0.2991
18416W        W35263   8.346  10.745  12.154  0.0505  0.2938  0.3569
18417W        W35264  10.417   5.137  11.982 -0.1270  0.0713  0.1123
18418W        W35265   5.399   6.781  15.072 -0.0685  0.1293  0.2854
18419W        W35266  12.754  10.089  13.112  0.0480 -0.2363  0.0433
18420W        W35267   0.475  15.222   4.346  0.0969  0.2792  0.0112
18421W        W35268   2.561  13.095  14.366 -0.2280  0.1529 -0.0816
18422W        W35269  11.719   3.424  13.325 -0.1594  0.2018 -0.2756
18423W        W35270   8.424   0.775   1.539  0.0674 -0.0019  0.0659
18424W        W35271  15.833  11.982   0.579  0.0932 -0.0037 -0.0599
18425W        W35272  11.338  16.441   0.708 -0.4147 -0.1764  0.0522
18426W        W35273  17.408  12.532   3.141 -0.2962 -0.1279 -0.0828
18427W        W35274  10.578   1.409   1.383  0.2199  0.2594 -0.1070
18428W        W35275  13.690   0.540   0.711 -0.0362  0.2652 -0.0798
18429W        W35276   9.763  14.234  13.764  0.0817 -0.1262  0.0113
18430W        W35277   6.888   7.693  14.475 -0.0655 -0.0970 -0.0415
18431W        W35278   1.860  14.218  11.955 -0.1689  0.0612  0.1273
18432W        W35279   8.460  18.503  11.904 -0.0039  0.0965 -0.1103
18433W        W35280  14.446  18.539   4.859  0.0967 -0.0684  0.1123
18434W        W35281   4.049   5.443  10.693  0.0821  0.0006 -0.1959
18435W        W35282  14.832   6.924   2.673 -0.1192  0.0062  0.0416
18436W        W35283  18.233   2.517   0.599  0.1396 -0.1250 -0.1423
18437W        W35284   5.245  16.827  11.052  0.0197  0.0284  0.0850
18438W        W35285  12.338  16.264  14.981 -0.2976 -0.1687  0.1151
18439W        W35286   3.209   0.147   0.696 -0.0264 -0.2362  0.3099
18440W        W35287  14.274  15.672   3.296 -0.1467  0.0688 -0.2678
18441W        W35288   1.346   0.073  12.799 -0.3376  0.3856  0.0368
18442W        W35289   1.312  14.140  11.310  0.2793 -0.0690  0.2661
18443W        W35290   0.050   5.025  11.669  0.2160  0.0013 -0.1254
18444W        W35291   1.676   5.535   9.602 -0.1711  0.2801 -0.0620
18445W        W35292   3.367   2.448   2.104  0.0915  0.0873  0.1725
18446W        W35293   6.444  10.186   4.445 -0.3216  0.0910 -0.1408
18447W        W35294  10.620  17.704   1.521  0.1474  0.0222 -0.1851
18448W        W35295   7.878   3.731   4.247 -0.0097  0.3590 -0.3220
18449W        W35296   3.195   0.948  13.359 -0.0966  0.0638 -0.0917
18450W        W35297  18.227   9.750   1.958  0.0531  0.1187 -0.1055
18451W        W35298  10.735   3.582   5.421 -0.1378  0.1319  0.2460
18452W        W35299   9.528  12.641   0.385  0.1132  0.2092  0.0221
18453W        W35300   7.539  15.482  14.128  0.1928 -0.1380  0.1552
18454W        W35301  13.370  11.061   0.567 -0.1035  0.2428 -0.2414
18455W        W35302  12.505   4.768  14.162 -0.0380 -0.1248  0.2133
18456W        W35303  17.857  17.962  11.016  0.0234 -0.0717  0.2933
18457W        W35304   8.122   3.409  15.544  0.2136  0.0021  0.3212
18458W        W35305  17.459   8.176  13.340 -0.3296 -0.0519 -0.0654
18459W        W35306   9.676   0.887   2.305 -0.2239 -0.2750 -0.2515
18460W        W35307   7.694   1.728   3.516  0.0079  0.1674 -0.3616
18461W        W35308  11.246  15.675   1.765  0.1028  0.1678 -0.3723
18462W        W35309   9.571   5.267  10.364 -0.0237 -0.0425  0.2747
18463W        W35310   2.528   0.925   4.438  0.0235 -0.1746 -0.2295
18464W        W35311   8.974   8.791   1.686  0.3438  0.1015 -0.1383
18465W        W35312  17.982   4.754  11.474 -0.0948  0.1639 -0.3678
18466W        W35313   1.478   6.737   0.567  0.4963 -0.0890 -0.1286
18467W        W35314   2.509   5.646   0.115 -0.0135  0.1192  0.0634
18468W        W35315  10.143  15.507  14.393 -0.3695 -0.4119  0.0008
18469W        W35316   8.119  17.132   1.547  0.2875  0.1444  0.0198
18470W        W35317  15.080   7.227  12.929  0.0685  0.2751  0.0541
18471W        W35318   7.210  11.599  13.394  0.2760 -0.0231  0.1200
18472W        W35319   6.009   1.719  14.153 -0.2321  0.0565 -0.1914
18473W        W35320  15.958   3.506   5.238 -0.3518 -0.1091 -0.0657
18474W        W35321   4.145   1.811  14.077  0.1964 -0.1382 -0.1500
18475W        W35322  11.382   9.460  11.886  0.1625 -0.1074  0.1049
18476W        W35323   0.114   4.373   1.270 -0.0839 -0.2801 -0.1220
18477W        W35324  11.628   9.770  12.744  0.1345 -0.1282  0.0153
18478W        W35325   2.712  18.363   1.965 -0.0677 -0.2954 -0.0010
18479W        W35326  12.151   1.894  11.087  0.1219  0.0027 -0.1771
18480W        W35327   0.804  16.664   4.214  0.3043 -0.1181  0.0222
18481W        W35328  18.212   5.089   2.479  0.0765 -0.1467 -0.1567
18482W        W35329  10.696  18.121  11.941 -0.2711 -0.2035 -0.4097
18483W        W35330   0.873   7.740   2.810  0.0733  0.2230 -0.0609
18484W        W35331   5.925   8.976  11.466  0.0887 -0.0115  0.0938
18485W        W35332   3.103  17.224   4.263  0.0473  0.0517 -0.0546
18486W        W35333   3.365   7.686  11.347 -0.3092  0.2926  0.0967
18487W        W35334   5.911  15.218  12.409 -0.0253 -0.1640  0.1247
18488W        W35335  11.902   0.517   0.631  0.0394  0.2053  0.1651
18489W        W35336  13.381   1.718  11.788 -0.2460 -0.0514 -0.0433
18490W        W35337   6.739  17.992  12.177 -0.1147 -0.2214 -0.1279
18491W        W35338   0.779   9.179  12.536  0.0325 -0.3067  0.0982
18492W        W35339   5.170   2.402  13.149  0.0975 -0.0389  0.0610
18493W        W35340  18.585   7.809   4.764 -0.0594  0.0163 -0.2961
18494W        W35341   2.408  18.683   5.140 -0.0300  0.1350  0.0630
18495W        W35342   3.337  15.768   1.419 -0.1469 -0.3251  0.2152
18496W        W35343  12.794  10.407   0.334  0.1242 -0.3159  0.0231
18497W        W35344   6.647  14.991  13.640 -0.0485 -0.0379  0.1109
18498W        W35345   6.046   9.237  10.966 -0.0752  0.0181  0.1468
18499W        W35346  16.817   1.901   1.846  0.0735 -0.0132 -0.0172
18500W        W35347   8.952   9.581   2.248  0.0852  0.1089  0.2007
18501W        W35348   5.152  10.946  14.249 -0.0141  0.0092 -0.0034
18502W        W35349   6.523   6.514   2.286 -0.1138 -0.1956 -0.1420
18503W        W35350  10.319  10.124   3.679 -0.2013 -0.3658  0.2213
18504W        W35351   2.582  17.693  13.677 -0.1966 -0.2243 -0.0266
18505W        W35352  12.918   8.769   3.504 -0.1683 -0.2362  0.0610
18506W        W35353  12.918   3.189  12.463 -0.0376  0.1047 -0.0590
18507W        W35354  10.265  11.564   5.261  0.3195  0.3098 -0.1671
18508W        W35355   1.011   7.903   1.884 -0.1966 -0.0349  0.1618
18509W        W35356  17.262  17.809   2.410  0.3419  0.2005  0.1520
18510W        W35357   5.092   1.366   2.110 -0.0342 -0.0481  0.3979
18511W        W35358  14.341   3.573   3.459  0.1410 -0.1146  0.0456
18512W        W35359  10.982  17.649   4.669  0.0440  0.1343 -0.2142
18513W        W35360   9.809  15.114  13.075 -0.1519  0.1785 -0.3397
18514W        W35361   6.042   3.757  15.179  0.1096 -0.5039 -0.0286
18515W        W35362   2.077   8.360  15.287  0.1112 -0.0451 -0.0192
18516W        W35363   1.578  11.332   4.115 -0.1699 -0.1073 -0.0202
18517W        W35364  12.600  13.809   3.313 -0.1777 -0.0196 -0.1793
18518W        W35365  18.578  15.573  13.474 -0.2139  0.2690 -0.0022
18519W        W35366   6.028  10.044  12.486  0.0481 -0.0100  0.2063
18520W        W35367   5.773  16.161  10.364 -0.0163 -0.1263 -0.0438
18521W        W35368   9.358   2.009   4.573 -0.2562  0.3570 -0.1594
18522W        W35369  17.476   2.102  11.001 -0.1601  0.1412 -0.0131
18523W        W35370   4.724  17.757  15.220 -0.4203  0.0459  0.2109
18524W        W35371   7.003   0.949   5.561  0.2352 -0.0433 -0.1796
18525W        W35372   6.935  18.561  13.992  0.0823  0.0886  0.1423
18526W        W35373   0.606  12.001  14.768 -0.2438 -0.1344  0.2633
18527W        W35374  14.591   0.050  12.038 -0.0135  0.1080  0.0930
18528W        W35375   9.374  13.231   4.296 -0.0571  0.1617  0.0474
18529W        W35376   8.824   9.753   3.026 -0.0446  0.0626  0.1455
18530W        W35377   7.638  16.322   1.098 -0.0043  0.0122 -0.2550
18531W        W35378   3.381  12.964  12.723 -0.0915  0.0907  0.0362
18532W        W35379  10.189  16.088   2.633 -0.0057 -0.0117 -0.1609
18533W        W35380   2.006  14.369   1.216 -0.1224 -0.4017 -0.0604
18534W        W35381  13.230   0.791   2.737 -0.1733 -0.0582 -0.5203
18535W        W35382  13.021   2.708   5.203  0.1369 -0.0238 -0.0616
18536W        W35383   3.279   2.710  13.920 -0.0322  0.1051  0.1975
18537W        W35384  11.962  13.171  12.308  0.2441  0.4105 -0.2824
18538W        W35385   1.870  13.906   1.180 -0.0767 -0.1407  0.1432
18539W        W35386   7.500  14.679  13.179 -0.2585  0.2219  0.4299
18540W        W35387   7.713  10.101  12.314  0.2363 -0.2893 -0.0729
18541W        W35388  13.864  17.813   4.992  0.2106  0.3551 -0.1079
18542W        W35389  17.789   0.973  11.383 -0.0811 -0.1664 -0.3521
18543W        W35390  10.881   1.131   4.551 -0.0773  0.2084 -0.2579
18544W        W35391   7.341  11.325   3.085  0.0194 -0.2842  0.3792
18545W        W35392  16.730   8.236  10.657  0.1094 -0.1848  0.1253
18546W        W35393  11.161  18.235   3.269  0.0779 -0.1252 -0.1583
18547W        W35394   4.247   1.398  12.734 -0.2521 -0.2356 -0.2499
18548W        W35395  16.115  14.154   4.208 -0.0826  0.4646 -0.0100
18549W        W35396   5.445   5.314   2.422 -0.0679  0.2400 -0.1817
18550W        W35397  18.290   8.132   1.061 -0.4817  0.1659  0.1223
18551W        W35398  16.965  12.254  12.901 -0.2726  0.2686 -0.1662
18552W        W35399  14.472  16.446  13.513 -0.0647  0.0515  0.2994
18553W        W35400   6.839  17.767  11.442  0.0064 -0.1031  0.1842
18554W        W35401   3.583  13.376  13.582  0.1711  0.0426  0.0865
18555W        W35402   7.012   1.067   5.079  0.2275 -0.1127  0.2030
18556W        W35403   7.440  15.759  13.144  0.0645  0.2136  0.1455
18557W        W35404  17.129  12.299  14.947  0.0114  0.1295  0.1096
18558W        W35405  17.863   5.457   5.022  0.2295  0.0996 -0.1438
18559W        W35406   7.427   2.053   5.031  0.1625  0.0700  0.0879
18560W        W35407   1.210  17.640   0.290 -0.2688 -0.1865  0.0533
18561W        W35408  17.031  13.024  12.284  0.2687 -0.4417  0.1931
18562W        W35409  15.111  15.685  11.430 -0.0612  0.2098 -0.2623
18563W        W35410  16.621  16.671   1.221  0.2420  0.3229  0.0119
18564W        W35411   3.335   9.092   3.764  0.0422 -0.3324 -0.2635
18565W        W35412   5.952   7.607  12.390  0.2278 -0.0106 -0.1871
18566W        W35413   0.862   5.232  11.852  0.2825 -0.0536 -0.3888
18567W        W35414   3.392  10.466   4.388 -0.4046 -0.1185  0.0730
18568W        W35415   3.613  12.251   0.410  0.0474  0.1101 -0.1226
18569W        W35416  12.014  12.706   0.273 -0.0430  0.0854 -0.1682
18570W        W35417  14.810   3.017  13.004 -0.0572  0.0262  0.1230
18571W        W35418  13.567   0.578  12.295  0.0044 -0.1122 -0.1174
18572W        W35419   8.251   7.120   4.771 -0.4586 -0.0770  0.2785
18573W        W35420  11.098   5.044   4.737  0.0692 -0.1030 -0.1493
18574W        W35421   4.797   1.268  12.067  0.1031  0.1386  0.1105
18575W        W35422  15.822  17.991  11.894 -0.3258 -0.0128 -0.1722
18576W        W35423  11.569  16.828  15.220  0.0597 -0.2143 -0.0356
18577W        W35424   5.185  10.540   4.138 -0.2332  0.0964  0.0232
18578W        W35425  17.899   1.020  14.417  0.1637 -0.1452 -0.1364
18579W        W35426  18.072  13.576  11.827  0.1010 -0.3031 -0.2699
18580W        W35427   3.299  14.551   3.529  0.0828 -0.0609  0.0549
18581W        W35428  17.987  13.033  12.547 -0.2201  0.2190 -0.1355
18582W        W35429   6.293  11.924   4.453 -0.3598 -0.2967 -0.0762
18583W        W35430  15.721  10.088  14.936  0.0787 -0.3097 -0.2015
18584W        W35431  17.543   5.644  14.344  0.0391 -0.3040 -0.1109
18585W        W35432   6.682   4.945   4.291  0.0187 -0.0824 -0.0133
18586W        W35433  12.738   9.475   3.814 -0.0970 -0.1205 -0.0513
18587W        W35434   4.565  11.652   0.422 -0.1556  0.0329  0.0676
18588W        W35435   6.546   9.686   4.974  0.0133  0.1291  0.2123
18589W        W35436  17.646  14.456  13.421 -0.1390  0.1459  0.1043
18590W        W35437   8.671  11.379  12.521  0.1987 -0.0157  0.2782
18591W        W35438   1.491  18.369  15.224  0.3562 -0.1841  0.4401
18592W        W35439  11.584  14.678   1.574 -0.1397  0.4473  0.0126
18593W        W35440   3.880  12.816   3.391 -0.1481  0.2473  0.0058
18594W        W35441   6.335  13.917  11.357 -0.1796  0.0883  0.4053
18595W        W35442  14.096  16.815   0.398 -0.2407  0.0179  0.0232
18596W        W35443  18.837   9.988  10.780  0.1786 -0.2634  0.0881
18597W        W35444   6.173   1.657  15.414 -0.0142 -0.1266  0.2072
18598W        W35445   8.765   9.887  13.582  0.0497  0.1268 -0.0609
18599W        W35446   1.788  16.358   0.522 -0.2282  0.0875 -0.0203
18600W        W35447  14.851   7.300   3.240  0.0116 -0.1565 -0.0941
18601W        W35448   6.240   1.518  10.991  0.2170 -0.1773 -0.3724
18602W        W35449   8.353  15.514   1.281  0.0201  0.2049 -0.1179
18603W        W35450  13.022   9.901   3.741  0.1233 -0.2614  0.3279
18604W        W35451  15.987  17.013   0.173  0.3565 -0.3458 -0.0300
18605W        W35452   9.489   0.127  14.262 -0.0952  0.1995  0.3081
18606W        W35453   7.435  17.046  12.755  0.1309 -0.0875 -0.1755
18607W        W35454  16.547  13.257   1.287  0.0969 -0.1639 -0.1268
18608W        W35455   9.353   1.867   3.946 -0.2561  0.0555  0.1951
18609W        W35456   6.539   1.021  14.292  0.1223  0.0153  0.2415
18610W        W35457   6.040   7.153  11.834  0.0461 -0.2981 -0.1660
18611W        W35458  17.833   2.809   0.368  0.0260 -0.0275 -0.3075
18612W        W35459  11.942   9.090   2.280 -0.3869  0.0662  0.0409
18613W        W35460  13.278  10.358   4.985 -0.1701 -0.0063 -0.0776
18614W        W35461   1.813  15.896  13.803  0.0883  0.0751 -0.0390
18615W        W35462   8.183  15.291   1.822  0.1145 -0.0642  0.2760
18616W        W35463   1.845  12.154  12.213 -0.1686  0.0898 -0.2705
18617W        W35464   6.170  14.836  12.244 -0.3845 -0.0576 -0.1606
18618W        W35465  17.646  15.998  14.975  0.2228  0.0455  0.0873
18619W        W35466   9.177   9.766  10.867 -0.0511  0.3455  0.0114
18620W        W35467   3.942   9.464   1.274 -0.0052 -0.0554 -0.0506
18621W        W35468  12.822  12.743   1.211  0.0112 -0.2052 -0.1977
18622W        W35469  11.175  17.221  13.548  0.1188 -0.0227 -0.2835
18623W        W35470   9.316   4.001   3.154 -0.1691 -0.0176  0.1027
18624W        W35471  12.674   6.652  11.125 -0.0690  0.3405 -0.0234
18625W        W35472  14.276  15.503  12.791 -0.0016 -0.3498  0.0911
18626W        W35473   5.370  14.462  12.733 -0.0147  0.0212  0.1249
18627W        W35474   0.036  18.129   1.276 -0.0588 -0.0455 -0.1757
18628W        W35475   5.072  16.605  12.474  0.1091 -0.1756  0.3655
18629W        W35476  17.984   2.076   9.808  0.0572  0.2357  0.2331
18630W        W35477  16.417   2.178   0.760  0.0989 -0.1783 -0.2323
18631W        W35478   7.470   1.885  13.031  0.2163 -0.1330  0.3866
18632W        W35479  17.287  13.558   3.841  0.0558 -0.0292 -0.1615
18633W        W35480  16.447   2.080  13.732  0.1714 -0.0667 -0.0425
18634W        W35481  16.051   4.698  14.227  0.2037 -0.1124  0.2555
18635W        W35482   7.793  12.739   4.907  0.0853 -0.2065 -0.0211
18636W        W35483  15.586  17.244   0.515 -0.4082  0.0649  0.1852
18637W        W35484  15.101   8.200   4.058 -0.1666  0.1496  0.1583
18638W        W35485   3.235  16.793  12.016  0.2317  0.0840  0.0616
18639W        W35486  17.762   3.809   0.188  0.0099  0.2447 -0.1417
18640W        W35487  13.980  12.942   2.624 -0.1611  0.2959 -0.0728
18641W        W35488   3.751   4.098  11.569 -0.2788  0.1665 -0.1998
18642W        W35489   4.704   2.479   4.157  0.0726  0.0166  0.0404
18643W        W35490  14.102  15.204  11.044 -0.1532 -0.2642 -0.0210
18644W        W35491   3.991   7.555  14.719 -0.1026  0.0178  0.0589
18645W        W35492   4.428  13.924   1.808 -0.0908  0.1607  0.2638
18646W        W35493  10.734   1.270   2.377  0.1651 -0.1076 -0.0321
18647W        W35494   0.227   1.525  12.695  0.2070  0.2338 -0.0991
18648W        W35495   7.859  11.428   2.203  0.3491  0.0199  0.0409
18649W        W35496   1.537   4.102   1.262 -0.2292 -0.1114  0.0547
18650W        W35497   7.223   7.263  11.080  0.2464  0.0622 -0.0357
18651W        W35498   4.573   0.461  14.592  0.1996  0.1927 -0.3458
18652W        W35499   2.048  16.427  13.867  0.1869  0.1470  0.2431
18653W        W35500  10.575  17.303   0.179  0.4225 -0.2368  0.0640
18654W        W35501   2.485   7.654   5.664 -0.2607 -0.3814 -0.5520
18655W        W35502  12.860  16.151  11.848  0.3025  0.0378  0.1913
18656W        W35503   4.332  16.102  11.540 -0.0120 -0.4340  0.1354
18657W        W35504   5.869  18.570   4.569  0.0568  0.1408 -0.1593
18658W        W35505  15.880  10.906   4.711  0.0261  0.0414  0.0368
18659W        W35506  15.320   9.260   5.424  0.0006  0.0381  0.2889
18660W        W35507  12.175  10.881   1.699  0.2195 -0.1663 -0.1377
18661W        W35508   9.490   6.824   5.099  0.2640  0.0227 -0.0537
18662W        W35509   7.816   4.969   2.009  0.0755  0.1068 -0.3202
18663W        W35510  14.401  11.202   2.291 -0.2253 -0.1384  0.2395
18664W        W35511   2.719  18.219  12.066  0.0977 -0.0891  0.1624
18665W        W35512  14.145  17.782   3.783 -0.0045  0.1051  0.1796
18666W        W35513   5.305   5.020   3.176  0.0150  0.1398  0.1339
18667W        W35514   5.078  11.115  13.257  0.1526 -0.1146 -0.0621
18668W        W35515  11.342   1.573  13.738 -0.0045 -0.1714 -0.0095
18669W        W35516   3.150   6.138  11.690  0.2577 -0.0930 -0.4204
18670W        W35517   9.476   3.595   2.825  0.1328 -0.1707  0.0637
18671W        W35518   8.081  16.025   2.121  0.0678 -0.0962 -0.3261
18672W        W35519  10.146   4.043   1.031  0.0328  0.0290 -0.0136
18673W        W35520  11.178  10.744   1.135  0.0559 -0.2501  0.1713
18674W        W35521  11.382  17.780   3.212  0.1694  0.2008 -0.1037
18675W        W35522   1.985  14.299   4.879  0.1450 -0.0955  0.1036
18676W        W35523   9.386   0.123   3.812  0.1683 -0.2943  0.0022
18677W        W35524   8.019   3.957   1.729  0.1690 -0.3541 -0.4464
18678W        W35525   0.185   6.775   1.302 -0.1176 -0.0259 -0.1492
18679W        W35526   4.795   9.933  12.768  0.3738  0.0880 -0.0322
18680W        W35527   3.702  18.111   0.120 -0.1557 -0.1826  0.1948
18681W        W35528  15.971  12.609   1.064 -0.1411 -0.0941 -0.2636
18682W        W35529   2.560   6.590  11.241 -0.1105 -0.1736  0.1608
18683W        W35530   9.451  17.796  14.724  0.1750  0.0493  0.1300
18684W        W35531  13.614  13.928   2.119  0.2467 -0.3072  0.0283
18685W        W35532   6.255   0.683   2.411 -0.0482 -0.0130 -0.2067
18686W        W35533  18.309  14.808  11.427 -0.0900  0.2848 -0.1397
18687W        W35534  14.012  17.145   1.425  0.2955 -0.3258 -0.2115
18688W        W35535   6.009   5.232   3.088 -0.0647 -0.0953 -0.2478
18689W        W35536   3.628  12.974  13.250  0.1581  0.0664 -0.0559
18690W        W35537   2.546  16.212   0.054 -0.0642 -0.1760  0.3043
18691W        W35538   4.504   8.508  14.851  0.2093  0.1153 -0.3951
18692W        W35539   1.288  15.897   0.030  0.0377 -0.1705 -0.0784
18693W        W35540   2.517  14.686  12.918 -0.3192  0.1023 -0.1205
18694W        W35541  15.969  13.423   1.518  0.0333  0.0745  0.2205
18695W        W35542   5.864   3.555   4.520  0.0816 -0.4745 -0.3442
18696W        W35543  16.135  11.368   2.549 -0.1351  0.0125 -0.1463
18697W        W35544   6.506  11.164   1.881 -0.0844  0.1189 -0.0823
18698W        W35545   8.061   2.652   3.260 -0.0953  0.2913 -0.0328
18699W        W35546  14.339   5.072   1.430 -0.3240  0.0719 -0.0939
18700W        W35547   3.821   4.258   2.658  0.2151 -0.2627  0.0042
18701W        W35548  15.462   7.921   2.734 -0.0794  0.1189 -0.2571
18702W        W35549  13.302   1.235  11.620 -0.2160  0.1857  0.1250
18703W        W35550   3.364   3.648  12.848 -0.1435 -0.1408 -0.1306
18704W        W35551  12.351   7.565   3.553  0.0621 -0.4910  0.1364
18705W        W35552   9.341  11.318  11.539  0.5264 -0.2906  0.0168
18706W        W35553  13.959   2.596   3.203  0.0628  0.1194 -0.0823
18707W        W35554  15.020  18.666   4.966 -0.0343  0.0679  0.1669
18708W        W35555   4.469  10.256   1.486  0.0598  0.0111 -0.1669
18709W        W35556   3.982  17.586  11.343  0.1035 -0.1630  0.0958
18710W        W35557  14.463  14.070  12.753  0.0745 -0.1644  0.1033
18711W        W35558  12.591   4.461   2.492 -0.3261  0.1427 -0.1670
18712W        W35559   9.354  18.580  13.968 -0.2381 -0.1011  0.2046
18713W        W35560   8.676   4.220   3.234 -0.3998  0.0545  0.2313
18714W        W35561  17.115   3.916  12.597 -0.0450  0.0767 -0.2456
18715W        W35562   9.471  13.387   0.355  0.0853  0.0181 -0.2422
18716W        W35563  11.555   5.004  12.193  0.1782  0.0057 -0.2896
18717W        W35564  13.313  17.998   0.929 -0.1328  0.1358 -0.2807
18718W        W35565  10.538   8.130  13.389  0.2269 -0.0840 -0.1049
18719W        W35566  15.782   6.967   3.212  0.1985  0.0815  0.0971
18720W        W35567   8.433  18.292   1.903 -0.0402  0.1921  0.2550
18721W        W35568  10.940   1.959   5.435 -0.0289  0.1021 -0.1542
18722W        W35569   0.928  18.443   5.110 -0.1838  0.2172  0.2159
18723W        W35570  14.882  10.382  13.646  0.1341  0.1463 -0.1068
18724W        W35571  13.660  12.086  12.927  0.2608  0.0565  0.0834
18725W        W35572   7.794   1.524   0.571  0.4205  0.0958 -0.0417
18726W        W35573   5.205  10.644  13.788 -0.0365  0.0069 -0.0094
18727W        W35574   4.786   8.240   4.271  0.1129 -0.0031  0.1298
18728W        W35575  10.863   6.087   2.937  0.2478  0.1519  0.1079
18729W        W35576  11.618  13.781   2.069  0.0173 -0.1737 -0.0472
18730W        W35577  16.654  17.772  10.861 -0.3553  0.1835 -0.1130
18731W        W35578  10.818   1.695  13.425  0.1061  0.0937 -0.2895
18732W        W35579  18.308   5.205   4.129  0.2615 -0.2297  0.0147
18733W        W35580   9.291   3.079   2.740  0.1799  0.2916  0.1754
18734W        W35581  12.532   0.475   0.749  0.3235  0.1162  0.2360
18735W        W35582  10.257  12.117   0.332  0.1662 -0.2432 -0.0376
18736W        W35583  15.725  10.913   2.251 -0.1329 -0.2647  0.1676
18737W        W35584  17.552   1.214   2.430  0.1167 -0.0392 -0.1778
18738W        W35585  12.129  13.810   3.585  0.0468 -0.0295  0.0084
18739W        W35586   2.142   8.001   2.100  0.0721 -0.1395 -0.1660
18740W        W35587  12.218  14.093   0.286  0.2311 -0.3981  0.0006
18741W        W35588   8.452   0.751  13.751  0.1212 -0.3467 -0.1463
18742W        W35589   2.114  14.307  15.045 -0.1777 -0.1702 -0.0408
18743W        W35590  14.873   6.471  14.829  0.0949  0.0826 -0.3722
18744W        W35591  12.565   7.170   4.490 -0.3211  0.2729  0.0748
18745W        W35592  11.136   6.172  13.532 -0.0368  0.2873  0.0062
18746W        W35593   7.185   7.239  13.775  0.1024 -0.0802 -0.0242
18747W        W35594   0.535  10.757  13.802  0.0074 -0.0871 -0.0558
18748W        W35595  12.389  15.145   2.286  0.1348 -0.3098 -0.2557
18749W        W35596  17.184   5.230  10.837 -0.0097  0.0195  0.2372
18750W        W35597  14.416   9.842   1.379  0.0412 -0.0846 -0.1201
18751W        W35598   0.667   3.148   1.221  0.0693  0.0364  0.1936
18752W        W35599   8.640  12.982  13.668  0.1557  0.1634 -0.1073
18753W        W35600   9.917   7.992  14.488 -0.0984 -0.1487  0.0748
18754W        W35601   2.568   0.314  14.969  0.0266 -0.4064  0.1408
18755W        W35602   4.205  15.695   3.773 -0.4580  0.0768 -0.0271
18756W        W35603  13.451  17.437  11.003  0.0024  0.3418  0.0094
18757W        W35604   3.739   4.297   3.940 -0.4196 -0.0149 -0.0945
18758W        W35605  11.520   5.972   3.130 -0.1354 -0.0520  0.1636
18759W        W35606   3.588   6.251  11.253 -0.0429  0.0923  0.0314
18760W        W35607   6.186  17.437   4.753  0.0295 -0.3621 -0.1762
18761W        W35608   3.737   9.186  15.227 -0.1532  0.0359  0.2367
18762W        W35609  18.242  16.495  14.223  0.1362  0.3385 -0.3473
18763W        W35610  18.818   1.198   3.587  0.1339  0.0112 -0.1601
18764W        W35611   1.752   0.197   1.125  0.1497 -0.0971  0.2596
18765W        W35612  18.143   6.332  14.615  0.2370  0.2724  0.1251
18766W        W35613  17.471   0.444  15.455  0.0851 -0.1883  0.0195
18767W        W35614   2.949  14.595  12.166  0.2175  0.2463  0.2076
18768W        W35615   2.198  14.666   4.555 -0.1959 -0.0664 -0.1215
18769W        W35616   8.745  12.587  11.895  0.0425  0.1916 -0.2433
18770W        W35617  15.078  14.813  13.129 -0.1502  0.0116  0.1585
18771W        W35618   1.011  18.152   0.194 -0.0417  0.2044 -0.2342
18772W        W35619  18.127   8.293   0.561 -0.0231  0.0015 -0.2534
18773W        W35620  17.489  17.384   5.288  0.0550 -0.2942 -0.0847
18774W        W35621  18.689   8.526   0.830  0.4129 -0.0069 -0.1318
18775W        W35622   4.440  17.711  11.198  0.1957 -0.0663  0.1092
18776W        W35623  17.500  16.094  13.563 -0.4943  0.1994 -0.1022
18777W        W35624   4.380   5.137   0.164  0.0006  0.3370 -0.1076
18778W        W35625  17.458  10.479  13.492  0.0403  0.1183  0.0051
18779W        W35626   6.485  15.308  13.287 -0.2166 -0.2805  0.1521
18780W        W35627   3.767  15.262  12.800  0.0451 -0.2474 -0.0172
18781W        W35628  13.649  18.130   4.717  0.1769 -0.2917 -0.0660
18782W        W35629   4.308  14.677  13.362 -0.0478  0.1282 -0.0448
18783W        W35630   7.380   7.122   4.742  0.0129  0.3707 -0.0074
18784W        W35631   2.853   3.064   1.491 -0.2056 -0.1320 -0.1376
18785W        W35632  10.351   5.563   2.432 -0.0495  0.1255 -0.2423
18786W        W35633  10.171   9.797  12.987 -0.0010  0.4121 -0.0308
18787W        W35634   5.299  17.519  10.942 -0.2300 -0.0952 -0.2537
18788W        W35635   4.324   3.576   4.161  0.1202  0.0571 -0.0640
18789W        W35636   4.957   7.122   0.890 -0.1435 -0.0560  0.0068
18790W        W35637  17.460  10.679  12.713  0.0334  0.4059  0.1562
18791W        W35638  17.922  18.012  15.328 -0.1540 -0.3562 -0.1400
18792W        W35639  11.360   3.776  13.224 -0.4285  0.0746  0.1245
18793W        W35640   2.872   5.187  12.072 -0.0507 -0.0281  0.1590
18794W        W35641   0.377   7.880   0.425  0.0902  0.0598 -0.1482
18795W        W35642   8.909   3.396   0.322 -0.0993 -0.0529  0.1380
18796W        W35643   2.580  14.750  11.213 -0.2423 -0.2837  0.1404
18797W        W35644   2.955  15.736  11.286 -0.0582  0.0974 -0.0677
18798W        W35645   3.575   7.158   3.393  0.1276  0.2247 -0.0356
18799W        W35646   3.736  17.631   2.477  0.1898  0.2100 -0.0756
18800W        W35647   7.514  14.762   1.218  0.0953 -0.0980 -0.1329
18801W        W35648   6.090   3.703   2.007  0.1660 -0.0890 -0.0197
18802W        W35649   2.949   3.145   2.827 -0.1550 -0.1029  0.1509
18803W        W35650   4.103  16.317  14.131  0.0747  0.1663 -0.3158
18804W        W35651  18.815   2.611  14.827  0.0663  0.1221 -0.1232
18805W        W35652   5.491  12.060   5.049  0.0747 -0.1159  0.1482
18806W        W35653  11.038  18.641  15.360 -0.0021  0.0642 -0.0985
18807W        W35654  14.902   0.771   3.564 -0.1023 -0.1469 -0.2533
18808W        W35655   6.892  11.150  13.535  0.1309 -0.1149  0.4784
18809W        W35656   6.444  12.268  13.268 -0.1699  0.2446 -0.0273
18810W        W35657  16.609   1.173   3.968  0.0727 -0.2204  0.0326
18811W        W35658   8.767  18.288  15.495  0.0173 -0.3433 -0.0889
18812W        W35659   5.901  10.943   9.980 -0.1438  0.0077 -0.1621
18813W        W35660   5.985   1.565   1.057  0.3177 -0.2324  0.0638
18814W        W35661   2.928   0.468  15.527 -0.1234  0.1440 -0.0171
18815W        W35662  15.345  12.963  10.796 -0.2086 -0.2182  0.0042
18816W        W35663   1.469  14.568   0.857 -0.1236  0.3483  0.2114
18817W        W35664  18.575  14.088  12.624  0.1632  0.0473  0.1650
18818W        W35665  11.477   8.507  12.317  0.4637 -0.1003  0.1030
18819W        W35666   1.807   3.388  11.081  0.0201  0.1641  0.1716
18820W        W35667  16.736   1.304   4.475  0.2697  0.2714 -0.0016
18821W        W35668   6.920  18.114   0.640 -0.0117  0.1191  0.1804
18822W        W35669   5.378  11.414  10.582 -0.3669 -0.1352  0.3119
18823W        W35670   4.429   7.307  14.845  0.1668  0.0843 -0.1124
18824W        W35671   8.945  18.578   1.819  0.0727  0.1660  0.0014
18825W        W35672   6.020  13.414  12.605  0.2581 -0.3652  0.2188
18826W        W35673  16.901  17.523   2.662  0.1641 -0.2011  0.0600
18827W        W35674   4.485   4.330  14.215 -0.1609  0.1062 -0.0797
18828W        W35675   8.546   2.428   0.366  0.0736 -0.2921 -0.0742
18829W        W35676   3.241   1.300  11.207  0.0363 -0.1303 -0.1514
18830W        W35677  14.164   1.882   0.583 -0.0971 -0.1017 -0.2857
18831W        W35678   9.012  13.002   1.044 -0.2083 -0.1167  0.1422
18832W        W35679  18.296   8.561  14.355  0.0094  0.0248  0.1253
18833W        W35680  12.782   5.798  12.472  0.0587 -0.2510  0.1628
18834W        W35681  15.014   2.926  13.901  0.3000  0.1619 -0.0679
18835W        W35682  18.544   8.664   1.284  0.1095 -0.2487  0.0979
18836W        W35683  17.598   4.179  14.853  0.0444  0.2298 -0.0346
18837W        W35684   3.934   5.655  14.060  0.1138  0.0955 -0.0456
18838W        W35685   8.420  14.299  14.833  0.1892  0.4598 -0.0465
18839W        W35686   0.028   8.240  10.475  0.0323  0.0328  0.0802
18840W        W35687   8.021   7.100  13.063 -0.0962 -0.0679 -0.1878
18841W        W35688  13.997   9.366   2.780 -0.1947  0.1880 -0.1033
18842W        W35689   9.550   4.858   2.527  0.0507 -0.1215  0.0151
18843W        W35690   7.244   8.320   3.039 -0.0628 -0.0474 -0.1908
18844W        W35691  13.741  15.048   4.875  0.1248 -0.1054  0.2636
18845W        W35692  11.766  16.943   2.422 -0.0920  0.1004  0.2886
18846W        W35693  10.610   4.718  13.777  0.2679  0.1538 -0.2024
18847W        W35694  15.191   2.766   1.870  0.1383  0.2515 -0.3629
18848W        W35695   1.812   0.628   4.914 -0.0327  0.1124  0.0167
18849W        W35696   4.568  13.862  10.268 -0.2310 -0.1499  0.3689
18850W        W35697   1.277   0.876  14.790 -0.1901 -0.1911  0.0705
18851W        W35698  10.365  15.912  10.929  0.3643  0.0830  0.0677
18852W        W35699   9.080   2.987  15.534  0.1729 -0.0101  0.3123
18853W        W35700  14.942   7.244  11.641 -0.0868 -0.1301 -0.0883
18854W        W35701  16.308   5.192   6.297  0.1647  0.2642 -0.2193
18855W        W35702   1.031   6.893   2.889 -0.0315 -0.0756  0.2180
18856W        W35703  18.714  16.925  15.180  0.2623 -0.0411 -0.1539
18857W        W35704   9.445  14.524  11.331  0.2416  0.0741 -0.0793
18858W        W35705   8.754   5.388   4.600  0.2115 -0.1651  0.4721
18859W        W35706  10.581  16.235  12.264 -0.0312  0.4795 -0.1554
18860W        W35707  15.272   0.746  12.801  0.1823 -0.0272  0.0212
18861W        W35708  14.734   9.915   4.512 -0.2217 -0.0767 -0.1641
18862W        W35709  17.824  16.816   0.313  0.0542 -0.2672 -0.0418
18863W        W35710   1.926   7.270   5.127 -0.0434 -0.3017  0.3239
18864W        W35711   2.686  11.767   0.186 -0.0540 -0.0638  0.3447
18865W        W35712   8.198  14.410   3.650 -0.3055  0.1288  0.1016
18866W        W35713   5.335  15.612   2.991 -0.1708 -0.2634  0.0987
18867W        W35714   1.626  10.465  15.244 -0.0400  0.0660 -0.0148
18868W        W35715  13.933   1.213  13.994 -0.1025  0.0241  0.4493
18869W        W35716  12.545  18.603  11.359 -0.3029  0.0227  0.0373
18870W        W35717   7.244   9.752  14.873 -0.2162 -0.1389  0.1260
18871W        W35718   2.092   7.761   1.247  0.0827  0.4006 -0.0316
18872W        W35719   3.694  10.825   0.253 -0.2728  0.1130  0.1882
18873W        W35720  17.743   6.470   1.223 -0.0631 -0.2934  0.0778
18874W        W35721   4.192  18.740   2.301  0.4324  0.1673 -0.1251
18875W        W35722  14.765   7.901  10.412 -0.0698 -0.2157 -0.0590
18876W        W35723   7.188   8.838   4.055 -0.3846  0.0143 -0.1374
18877W        W35724   3.844  10.518   0.619 -0.0327 -0.2675  0.1393
18878W        W35725  14.480   7.762  13.377  0.3817 -0.4189 -0.0798
18879W        W35726   5.691   8.928   3.587 -0.2194  0.0304  0.2179
18880W        W35727  11.486   6.671  14.803  0.1758  0.1965  0.0724
18881W        W35728   6.219  16.276   4.788  0.6915 -0.1297 -0.0981
18882W        W35729  16.764   4.983   0.804 -0.1783  0.0717 -0.3123
18883W        W35730   2.768  18.739  13.733  0.0386 -0.1585 -0.1202
18884W        W35731  11.276  13.760  15.506 -0.0211  0.1783  0.2161
18885W        W35732  18.117  14.479  14.863 -0.1493  0.1734  0.0894
18886W        W35733  18.572   0.337  13.046 -0.0145 -0.0680 -0.1560
18887W        W35734  15.598   7.864  13.941  0.3001  0.0502  0.0263
18888W        W35735  13.822   2.443  11.118  0.2242 -0.1504  0.2181
18889W        W35736  16.572  11.645  11.241  0.1746  0.1669 -0.1268
18890W        W35737   2.384   1.812   1.763  0.1581 -0.5309  0.1098
18891W        W35738   1.087   9.385  12.952 -0.0858  0.2021 -0.0983
18892W        W35739   4.710   1.786  13.950 -0.1452  0.4315 -0.1339
18893W        W35740  15.467   4.634   2.619  0.1472 -0.4669  0.0317
18894W        W35741   9.842   6.801  11.553  0.0384  0.1767  0.0718
18895W        W35742   4.256   2.556  13.054 -0.2898  0.1550 -0.1149
18896W        W35743  11.827  17.481   2.399  0.0804  0.0827  0.2916
18897W        W35744  14.085   1.401   0.475  0.0840  0.0883 -0.0394
18898W        W35745  16.706  15.575   1.458  0.2713  0.2288 -0.0553
18899W        W35746  14.474   9.297  11.161  0.0575  0.0601 -0.2169
18900W        W35747   9.623   0.540  14.627 -0.1617  0.1285 -0.0277
18901W        W35748  14.004   5.780   0.346 -0.1611  0.1153  0.2861
18902W        W35749  15.767  18.148   2.679 -0.3456 -0.2399 -0.1995
18903W        W35750   8.113   7.196  14.370  0.0016  0.0495 -0.1799
18904W        W35751  18.807  13.848   0.251  0.1028 -0.0275 -0.0723
18905W        W35752   0.148  12.208   0.888  0.1100 -0.2419  0.1496
18906W        W35753   5.435   2.866  13.218  0.0770 -0.0394  0.0897
18907W        W35754   5.015   3.832  13.512 -0.2879 -0.5979  0.2872
18908W        W35755   5.651   5.968  14.624 -0.0928 -0.0874 -0.0189
18909W        W35756   4.413  14.020   2.697 -0.1215  0.0324  0.1856
18910W        W35757   0.216  18.240  11.813  0.3419  0.2852  0.1682
18911W        W35758  14.424  14.863   1.271 -0.4496  0.2601 -0.1174
18912W        W35759   5.037  13.672  13.131  0.1623  0.1526 -0.3202
18913W        W35760  18.296  15.376   5.077  0.0017 -0.0081  0.0066
18914W        W35761  17.573  13.054   1.018  0.3205  0.1546  0.1579
18915W        W35762  18.650   8.112  12.256  0.0226 -0.1796  0.3868
18916W        W35763   4.320   7.796   0.547 -0.1954 -0.3351  0.0400
18917W        W35764   0.672  13.230  12.650  0.0670  0.1197  0.4805
18918W        W35765   6.995   4.079  13.049 -0.2002  0.1323 -0.2284
18919W        W35766  13.905   8.822   2.535 -0.0194 -0.0529  0.1923
18920W        W35767   6.018  13.878  10.896  0.1802 -0.3406  0.1686
18921W        W35768   5.490  12.579   4.755  0.0050  0.1178  0.4077
18922W        W35769   5.288   8.542   3.467 -0.0689 -0.2814 -0.0670
18923W        W35770  14.217   6.921  13.908  0.0619 -0.1892 -0.1338
18924W        W35771  11.779  10.365  14.566 -0.1652 -0.3089 -0.2015
18925W        W35772  11.999   9.938   2.651 -0.2070 -0.0911  0.2581
18926W        W35773   8.009  18.434  13.712 -0.1433  0.4045  0.1022
18927W        W35774   4.612  18.235  11.284  0.0796  0.1381 -0.1597
18928W        W35775  14.851  18.159  12.695 -0.1093  0.1600  0.0288
18929W        W35776  16.479   8.364   0.612 -0.0724 -0.2540 -0.0734
18930W        W35777  17.010  16.814  15.290  0.0724 -0.2702 -0.0844
18931W        W35778   4.910   5.055  11.576  0.6402 -0.0081  0.0801
18932W        W35779   7.746  11.842   3.978  0.2247 -0.0471  0.1600
18933W        W35780   8.021   1.285   4.914  0.3037  0.0961  0.1668
18934W        W35781   8.259   4.967   3.957  0.0914  0.1362  0.0015
18935W        W35782   8.523  12.156   1.279  0.2062  0.0480 -0.2214
18936W        W35783  10.476  11.594   4.393 -0.0679 -0.0019  0.0972
18937W        W35784   7.634   1.599   4.123  0.1337 -0.0261 -0.0332
18938W        W35785   8.265   7.059   1.023  0.0037 -0.1247  0.2707
18939W        W35786   4.580  10.286  11.591 -0.0514  0.3330 -0.0961
18940W        W35787  16.466   8.441   4.221  0.0543  0.5486 -0.3894
18941W        W35788  16.823  15.046  10.643  0.0281 -0.2195 -0.1921
18942W        W35789   8.575  15.639   2.985  0.3512 -0.0551  0.1384
18943W        W35790  14.897  14.089   4.577  0.1592  0.1103 -0.0824
18944W        W35791   6.360   3.626  11.228 -0.4365 -0.0828  0.0064
18945W        W35792  17.078   6.333  13.667 -0.0369 -0.3551  0.3010
18946W        W35793   9.731  16.854   1.855  0.0886 -0.1926 -0.1891
18947W        W35794   8.969   5.193  13.039 -0.2328  0.4725 -0.0528
18948W        W35795  12.322   0.122   4.739  0.1603 -0.2594  0.1445
18949W        W35796   2.064  13.485  12.791  0.2540 -0.0245 -0.2598
18950W        W35797   1.619  13.971   1.724 -0.4287 -0.3159 -0.1170
18951W        W35798  12.221  12.813  11.041 -0.1042 -0.2723 -0.1021
18952W        W35799   1.977  13.574   0.825 -0.1419 -0.0927 -0.0340
18953W        W35800  17.800  11.834   2.674  0.0181  0.3199 -0.1076
18954W        W35801  17.320   6.342   0.984  0.0240 -0.0696 -0.2318
18955W        W35802   9.031   5.680  12.947  0.0243 -0.2033  0.3713
18956W        W35803   7.919   2.255   2.849 -0.3300  0.1941  0.3895
18957W        W35804  13.681  17.093   2.686  0.0127  0.2300  0.0505
18958W        W35805   3.341   2.526   4.114 -0.0774 -0.0648  0.1792
18959W        W35806  13.467   6.260   2.821 -0.4139  0.3798 -0.3464
18960W        W35807   7.541  13.012   3.681 -0.2774  0.1068 -0.2107
18961W        W35808   7.157  12.267   1.534 -0.0450  0.0061  0.1838
18962W        W35809   4.090  10.509   4.128  0.2596 -0.1815  0.3027
18963W        W35810  13.044  18.383  14.322  0.1866 -0.0360 -0.0165
18964W        W35811  14.847   0.238  13.937 -0.3333 -0.0224  0.4613
18965W        W35812  12.103   6.837  12.589 -0.0744  0.0112 -0.0226
18966W        W35813  13.569   5.382  14.898 -0.0264 -0.4045  0.2082
18967W        W35814   4.276   3.649  13.716 -0.1074 -0.1267  0.1903
18968W        W35815  11.723  10.720   4.560 -0.1426 -0.0209  0.0124
18969W        W35816  17.360   7.842   2.932  0.1242 -0.3633 -0.2462
18970W        W35817  11.798  17.667  12.437 -0.0248  0.1287 -0.1130
18971W        W35818   2.680  11.064   1.676 -0.2287 -0.2613  0.1724
18972W        W35819  11.128  14.747  13.809 -0.1990  0.1924 -0.4610
18973W        W35820   1.117  10.503   0.840 -0.2498 -0.1284  0.1752
18974W        W35821  13.545  12.829   3.176  0.1442  0.1814  0.3650
18975W        W35822  10.804   2.481   0.806 -0.0218 -0.3080 -0.0650
18976W        W35823  14.746  14.658   1.879 -0.0642  0.1189  0.1638
18977W        W35824  14.315  13.606  13.982 -0.0340 -0.1018  0.0499
18978W        W35825  11.986   7.209   2.438  0.2611 -0.2280  0.0767
18979W        W35826   0.024   2.703   3.879  0.2070  0.3739 -0.0520
18980W        W35827  13.628  10.228   1.889 -0.2838 -0.1394 -0.2445
18981W        W35828  10.411  12.914  13.591  0.0656 -0.2470 -0.0496
18982W        W35829   6.623   5.654  13.974  0.0654  0.1661  0.3401
18983W        W35830  12.980  12.750  13.272  0.1418 -0.1446 -0.0955
18984W        W35831  15.993   2.225  10.880 -0.0313 -0.1798 -0.0394
18985W        W35832   8.630   4.011   5.067 -0.2566 -0.2080 -0.0128
18986W        W35833   7.613  17.999   9.499  0.3611  0.0454 -0.1069
18987W        W35834  15.040   7.075  11.148 -0.1178  0.0730  0.0209
18988W        W35835   0.587   2.800   4.943  0.1260  0.2065  0.1303
18989W        W35836   3.293   4.151   2.783 -0.3720  0.2474 -0.0363
18990W        W35837   6.241   4.097  11.430 -0.0023 -0.1785 -0.1725
18991W        W35838  18.558  15.252  12.824  0.1401 -0.1558 -0.0413
18992W        W35839   3.248   4.238   5.540  0.0079  0.0246  0.1305
18993W        W35840  10.940  16.824  10.894  0.2529 -0.0834  0.0706
18994W        W35841  16.139  16.306   0.182 -0.3180  0.1013 -0.1554
18995W        W35842   8.642  14.812   3.100 -0.2120 -0.2820  0.2130
18996W        W35843  16.574  10.996  11.610 -0.0799  0.0600  0.1784
18997W        W35844   3.800   2.363   4.327 -0.0635  0.0012 -0.0031
18998W        W35845  10.919  18.312   2.793  0.2287 -0.1206 -0.0535
18999W        W35846   6.563  14.855   4.727  0.4512 -0.1262  0.0113
19000W        W35847   8.345   3.929   4.208  0.3147 -0.0496 -0.0328
19001W        W35848   9.887  18.838  11.472 -0.1087 -0.0599  0.1967
19002W        W35849  16.079  12.738   1.821  0.1345 -0.0814  0.2048
19003W        W35850  14.318   3.207  13.496  0.0447  0.0153  0.0646
19004W        W35851   9.695  10.189  11.507 -0.0145  0.0070 -0.1313
19005W        W35852   4.331  17.234  13.723  0.2350 -0.0747  0.2950
19006W        W35853   2.599   7.437   3.358 -0.0477 -0.1338  0.0113
19007W        W35854   1.644  15.790   1.889  0.1012 -0.2375  0.0617
19008W        W35855  14.225   5.150  15.247 -0.0253  0.1618  0.0911
19009W        W35856   5.425  14.193   2.604  0.1831 -0.0301 -0.0142
19010W        W35857  16.200   3.975   5.193  0.1934 -0.0023 -0.1196
19011W        W35858   4.666  16.123  13.443 -0.3152  0.2874 -0.1229
19012W        W35859  17.913  12.542  13.479 -0.0509  0.1862  0.1659
19013W        W35860  11.889  10.380  12.542 -0.0561  0.0151 -0.1340
19014W        W35861   1.592  16.581   5.499  0.2295 -0.1072 -0.5380
19015W        W35862  16.412  12.007   5.060 -0.3199 -0.1956  0.3002
19016W        W35863   9.123  11.362   1.445 -0.0583  0.0088 -0.1535
19017W        W35864   8.759  12.311  12.773  0.0459 -0.0983  0.4966
19018W        W35865  16.444  15.271  11.703  0.2046  0.0157 -0.0374
19019W        W35866  15.619  10.032   3.011 -0.2057  0.0351  0.3586
19020W        W35867  17.559   6.131  12.742 -0.1844 -0.0699  0.0658
19021W        W35868   7.909  16.552   3.955 -0.0117  0.1669 -0.0048
19022W        W35869   8.786   3.602  13.881 -0.0900  0.3172  0.0119
19023W        W35870   0.187  11.330  14.279 -0.0454  0.1079 -0.1208
19024W        W35871   1.357  17.515   2.414 -0.0753 -0.1298 -0.3252
19025W        W35872   3.930  13.737   3.060 -0.4186 -0.1624 -0.0288
19026W        W35873   8.834   6.155  11.772  0.1993 -0.1438  0.2208
19027W        W35874   0.583  17.654   3.521 -0.0590  0.1751  0.2340
19028W        W35875   5.520  11.893  14.208 -0.0419  0.2145  0.0984
19029W        W35876  16.342   5.866  15.094 -0.2420 -0.2105  0.0714
19030W        W35877   0.154   5.573   0.055 -0.1547  0.1171 -0.1095
19031W        W35878  12.091  13.988  12.835 -0.1722  0.0435  0.0222
19032W        W35879   6.229  15.799  15.374 -0.0007  0.0314 -0.2639
19033W        W35880   8.647   3.583  11.743 -0.2683  0.1197  0.3675
19034W        W35881  13.859  17.206  12.919  0.0490  0.2550  0.2219
19035W        W35882   8.430   8.888  11.142  0.0080 -0.1187  0.1533
19036W        W35883   4.642   4.495   2.717 -0.0397  0.1384 -0.0953
19037W        W35884  14.797  14.582  13.580 -0.2160  0.0395  0.2078
19038W        W35885   0.954   6.568  12.110  0.1817 -0.2235 -0.3343
19039W        W35886  18.685  14.081   3.985 -0.0172 -0.3005 -0.2011
19040W        W35887   0.990  16.389   2.820  0.1046 -0.2579  0.2805
19041W        W35888   6.827   3.406   1.395  0.0665  0.0936  0.2994
19042W        W35889   3.454   3.486   3.613 -0.1225  0.3696 -0.2138
19043W        W35890   4.320  12.936  15.078  0.0153 -0.1137 -0.1201
19044W        W35891  16.794   1.338  11.636 -0.0835  0.3749  0.0921
19045W        W35892   8.359   6.843   3.830 -0.0310 -0.2734  0.1104
19046W        W35893  17.628   5.141  14.312 -0.0038  0.5449  0.0610
19047W        W35894  16.382   1.926  12.866 -0.1311  0.1121 -0.0943
19048W        W35895   5.197  13.053  12.525 -0.1441 -0.0608  0.0303
19049W        W35896  18.505   5.117  10.985 -0.0434  0.0159 -0.0769
19050W        W35897  14.389  13.867   4.741 -0.1658 -0.0865  0.1594
19051W        W35898  12.880   0.343  12.665  0.1559  0.0275 -0.0240
19052W        W35899   9.229  18.009  13.789  0.0035  0.0155 -0.1352
19053W        W35900   5.409  16.791  10.480  0.1031  0.2315 -0.1622
19054W        W35901   7.054  13.795  15.233  0.3694 -0.0736 -0.0162
19055W        W35902   5.318  16.037   3.292 -0.1018  0.0958  0.0706
19056W        W35903   9.236  11.495  10.557  0.1519  0.2198 -0.2891
19057W        W35904   9.880  17.757  15.508 -0.1041  0.1619  0.0279
19058W        W35905  15.154   5.573   4.552  0.1526  0.2088 -0.2092
19059W        W35906   5.270  14.674  12.282 -0.0589 -0.2728 -0.1232
19060W        W35907   7.945  18.439   1.941 -0.0848 -0.0084 -0.0749
19061W        W35908   1.558   9.647   2.730 -0.0586  0.1112  0.3129
19062W        W35909   4.368  15.042  12.068 -0.2298  0.0000  0.2269
19063W        W35910   4.834   0.410  11.495  0.2811 -0.0771 -0.0010
19064W        W35911  17.387  14.523   0.364 -0.1970 -0.2148  0.1678
19065W        W35912  14.789  12.786  12.411 -0.4610 -0.0985  0.2569
19066W        W35913   0.733  16.235  12.559  0.2239  0.0839 -0.0548
19067W        W35914   1.414   5.507  15.319 -0.0150  0.0508  0.0039
19068W        W35915   9.343  11.669  14.261  0.0712 -0.1206  0.0349
19069W        W35916  17.291  14.802   4.503  0.0845  0.1287 -0.0254
19070W        W35917  15.515  13.903  13.203  0.0532  0.2206 -0.0752
19071W        W35918   7.665   9.924   3.962  0.3339  0.1161 -0.2694
19072W        W35919  10.292  13.933  11.273 -0.1257 -0.0873  0.0948
19073W        W35920  14.689  15.098   4.553 -0.0416 -0.1644 -0.1631
19074W        W35921  17.696   9.326  11.533  0.0471  0.1686 -0.0343
19075W        W35922   8.189   1.252  13.151  0.0084 -0.1956  0.1678
19076W        W35923  10.212   8.588  11.223  0.0442 -0.0535 -0.0275
19077W        W35924   8.799  14.107   3.473 -0.0133 -0.3068  0.1554
19078W        W35925   8.558  13.632   2.441 -0.0266 -0.1125 -0.0687
19079W        W35926   3.877   5.838   0.567 -0.1573 -0.1358 -0.2462
19080W        W35927  14.432   7.485   1.783 -0.4552 -0.1893  0.0487
19081W        W35928  13.448  10.622  13.012 -0.2086 -0.2626  0.3427
19082W        W35929   2.895  14.542   3.800  0.0365 -0.2595  0.2205
19083W        W35930   3.467  18.087  14.670  0.1481 -0.1442  0.3059
19084W        W35931  18.126   1.798   2.196 -0.1291  0.4010  0.2181
19085W        W35932   4.060  12.711  12.784  0.0791 -0.1343  0.0089
19086W        W35933  14.043   2.958  11.905  0.1100  0.1171 -0.0557
19087W        W35934   2.122   1.489   1.491  0.0806  0.1312  0.0888
19088W        W35935   3.647  15.698  12.575  0.0220 -0.1582 -0.0734
19089W        W35936   9.631   2.248  12.491 -0.1118  0.0588  0.0150
19090W        W35937   2.643  12.409  15.241 -0.1409  0.0420  0.1973
19091W        W35938  11.757   7.282  15.390  0.0630 -0.2727 -0.1982
19092W        W35939   4.428  11.121   2.706 -0.0414 -0.2646 -0.1166
19093W        W35940  18.335   8.050  11.855  0.0299  0.3396  0.1548
19094W        W35941  17.557   5.958   2.166 -0.1171  0.3450 -0.3033
19095W        W35942  16.530   5.523   4.683  0.0470  0.2502 -0.2072
19096W        W35943  11.919  18.692   0.019  0.1717 -0.3304  0.1571
19097W        W35944  17.874   2.302  14.782 -0.1340 -0.2140  0.1551
19098W        W35945   0.620  11.639  15.319 -0.0375  0.0989  0.4289
19099W        W35946   7.507   9.592  11.123  0.0072  0.3873  0.0939
19100W        W35947  14.570   0.845   0.087  0.0006 -0.1091  0.1357
19101W        W35948  13.752  12.443  12.620 -0.0448  0.0092  0.0370
19102W        W35949   0.146  14.137   3.610 -0.0759  0.2105 -0.2923
19103W        W35950  17.410   7.912  14.673 -0.0263 -0.0757  0.1117
19104W        W35951   3.922   0.897   3.254 -0.1964  0.0796  0.1067
19105W        W35952   2.147  11.213   4.054  0.2231 -0.2226 -0.0802
19106W        W35953   1.916   1.763   3.162  0.1214  0.1687  0.1259
19107W        W35954   0.628  11.009   5.158 -0.0799 -0.0295  0.0779
19108W        W35955   6.204  18.330   2.845  0.1287  0.2430 -0.2926
19109W        W35956   0.049   5.145   4.148  0.0846 -0.0426 -0.1480
19110W        W35957  16.118   5.495  12.847  0.0886 -0.1137  0.2754
19111W        W35958   5.474  18.683  11.864 -0.2210 -0.1816  0.0019
19112W        W35959   5.776   2.775   4.181  0.2160  0.1521  0.1553
19113W        W35960   4.997   8.142   2.749 -0.3105 -0.1670 -0.0965
19114W        W35961  18.471  18.794   0.019 -0.2077 -0.0209  0.0780
19115W        W35962   6.061  14.545   0.478 -0.2033  0.0693 -0.2886
19116W        W35963  14.084   5.099   0.638 -0.1340  0.0736 -0.1520
19117W        W35964  12.444   3.731  11.066 -0.0854  0.3972 -0.2050
19118W        W35965  16.690  15.061   0.213 -0.2022  0.1380 -0.0489
19119W        W35966   0.534   2.097  13.310  0.1818 -0.5381 -0.0766
19120W        W35967  15.118  11.877  13.952  0.0913 -0.1023 -0.0116
19121W        W35968   6.922   5.998  13.301  0.3173  0.1677  0.3649
19122W        W35969  13.973   6.984   5.395  0.3915  0.1283 -0.2599
19123W        W35970   1.121   3.044   2.942  0.0941  0.2997  0.0952
19124W        W35971   0.135  10.622   2.880  0.2577 -0.0158  0.2812
19125W        W35972  11.174   1.100   0.126 -0.2754 -0.2111  0.0304
19126W        W35973   6.995   6.070   5.910  0.3238 -0.0520 -0.0402
19127W        W35974   2.788  15.964  13.111  0.0587 -0.0619 -0.0667
19128W        W35975  13.759  16.964  11.464  0.0306 -0.0101  0.0296
19129W        W35976   8.720   9.856   0.023 -0.2633  0.2058 -0.0803
19130W        W35977  18.209   8.651   0.952  0.1145  0.1909  0.1757
19131W        W35978   9.342  11.157  12.054  0.2334  0.0952 -0.0124
19132W        W35979  13.698   8.350   3.869  0.1791  0.4701  0.0424
19133W        W35980   1.038   2.684  15.240 -0.1540  0.0935  0.2268
19134W        W35981  15.950   4.205   0.295  0.0552 -0.1928  0.2429
19135W        W35982  16.346   1.453  14.196 -0.1833 -0.0466 -0.1226
19136W        W35983   2.506   5.304  12.396  0.0837  0.1924 -0.0639
19137W        W35984   1.463   5.371   0.287  0.2171 -0.0252  0.1242
19138W        W35985  11.658  12.100   1.539  0.0161 -0.0107 -0.2637
19139W        W35986  17.840   5.304   4.301 -0.0171  0.0868  0.1687
19140W        W35987   9.104   7.708  14.349  0.0258 -0.2738 -0.0693
19141W        W35988   8.865   2.230  15.457  0.0955  0.0513 -0.0425
19142W        W35989  15.594   2.722   1.037  0.3247 -0.1835 -0.0734
19143W        W35990   6.650   6.274   0.710  0.0968  0.2252  0.0769
19144W        W35991  14.565   1.268   4.877  0.1896  0.0577 -0.1756
19145W        W35992   2.263  13.814  15.132  0.1382 -0.0819 -0.1512
19146W        W35993   4.982   2.938  13.413 -0.1559  0.0115  0.3536
19147W        W35994  17.484   0.617   4.385  0.0619  0.1023 -0.0280
19148W        W35995   2.745  18.225   4.453  0.0561  0.1114 -0.1768
19149W        W35996  18.074   9.464  12.978 -0.1221 -0.1306  0.0979
19150W        W35997   8.151   3.630  13.920  0.2101 -0.0082 -0.0154
19151W        W35998  13.735   7.950  13.855  0.0636  0.0656 -0.2151
19152W        W35999  17.507  12.050   1.702  0.1962  0.0671  0.0157
19153W        W36000  12.145   4.863   2.445  0.0676  0.0440 -0.2832
19154W        W36001   0.165   2.684   1.806 -0.1678 -0.0549  0.0133
19155W        W36002  11.477  12.262   2.451 -0.1861 -0.0776  0.4081
19156W        W36003  16.412   0.777   2.011  0.0245 -0.0873 -0.4470
19157W        W36004   6.826  13.068  13.002 -0.0983 -0.0425  0.1044
19158W        W36005  13.601  18.687   2.624  0.2158 -0.0292  0.2942
19159W        W36006   5.077  12.703  12.102 -0.1784 -0.2436 -0.1097
19160W        W36007  11.404   5.391  12.985  0.0188 -0.0720  0.0771
19161W        W36008   9.522   3.676  11.836 -0.2688  0.1848  0.2404
19162W        W36009  18.761   2.979   3.456  0.0671  0.0341 -0.3343
19163W        W36010   2.337  11.953   0.488  0.2337 -0.0494 -0.3290
19164W        W36011  15.539  10.422  11.275 -0.2205  0.1157 -0.2913
19165W        W36012   8.922   5.989   1.946 -0.4246  0.1745 -0.0809
19166W        W36013   7.317   3.895  12.090 -0.2681 -0.1585 -0.2113
19167W        W36014   9.999  17.137   1.477 -0.0578  0.0219 -0.0575
19168W        W36015  18.149   1.133  13.120 -0.0044 -0.1790  0.0427
19169W        W36016  16.204  17.333   1.693 -0.5341  0.2806 -0.3434
19170W        W36017  14.488   0.375   1.234 -0.3766  0.0155 -0.0462
19171W        W36018   1.138   0.152   3.819  0.1745 -0.0490 -0.1771
19172W        W36019  16.129   8.462  12.047  0.4324 -0.2078  0.0137
19173W        W36020  15.453   8.472   4.993 -0.0767  0.2421 -0.3219
19174W        W36021   9.916  12.940  14.913 -0.2722  0.0480  0.2818
19175W        W36022  17.385  11.287  14.052  0.0747 -0.1608  0.1221
19176W        W36023   6.004  15.210   4.949  0.0264 -0.1655  0.0176
19177W        W36024   0.703   8.607   3.374  0.2924  0.0242  0.1337
19178W        W36025   0.996  15.614   1.147  0.0438 -0.1968 -0.0586
19179W        W36026   3.731   1.984   3.395  0.0250  0.0303 -0.3411
19180W        W36027   2.321  12.897   0.666 -0.2549  0.1951  0.1135
19181W        W36028   6.478   8.736   2.232 -0.0121 -0.1755 -0.3212
19182W        W36029   6.869   0.393  11.246 -0.2091 -0.0281  0.2622
19183W        W36030   8.053  12.609  12.289  0.0622  0.1591  0.2292
19184W        W36031   3.302   3.545  11.874 -0.2109 -0.0631  0.3241
19185W        W36032   2.220   5.362  11.065 -0.0338 -0.0105  0.0051
19186W        W36033  15.245  16.362  14.917  0.0095  0.0525  0.1823
19187W        W36034  12.267   2.093   5.803  0.1992  0.0001  0.3685
19188W        W36035   8.108  17.932  12.855 -0.0844  0.0113 -0.1225
19189W        W36036  17.318   2.005  10.505  0.1905  0.0762 -0.0512
19190W        W36037  13.461  15.899  14.063 -0.4483  0.1400 -0.1981
19191W        W36038   3.827   9.713  12.102  0.4194  0.3760  0.0378
19192W        W36039  15.552  15.197  13.420  0.0932 -0.0367 -0.2752
19193W        W36040   4.011   1.366  14.831 -0.4108 -0.4102 -0.0670
19194W        W36041   1.350   9.221   3.767  0.2764 -0.1950  0.1273
19195W        W36042  16.043   7.845   1.442  0.0341 -0.5043 -0.2513
19196W        W36043  18.533   2.642  10.823 -0.1624  0.1509  0.0502
19197W        W36044   4.818   8.262   1.673  0.2701 -0.2914  0.1368
19198W        W36045  12.150   5.040   4.333 -0.0840 -0.2122  0.0222
19199W        W36046  12.905   1.508  15.134 -0.0701  0.0480  0.1002
19200W        W36047  18.672  11.058   0.707  0.5060  0.0530  0.0398
19201W        W36048  10.199  12.980   4.781 -0.0032  0.0089  0.1858
19202W        W36049  13.332  15.310   4.491  0.2215 -0.1152  0.0140
19203W        W36050  18.648  17.677  13.624 -0.1124 -0.0423  0.2158
19204W        W36051   0.272  16.248  11.554  0.1772 -0.1290 -0.0240
19205W        W36052   0.462  11.874  12.425  0.2370  0.0382  0.0611
19206W        W36053  13.385   8.729   2.572  0.0243 -0.0729 -0.0271
19207W        W36054  18.404   3.002  12.142 -0.0657  0.0258 -0.1324
19208W        W36055   9.469  11.698  12.414  0.2553  0.0090  0.0027
19209W        W36056  15.763   8.576   1.096  0.2943 -0.3425 -0.2258
19210W        W36057   8.034   6.834  12.678  0.0110  0.3218 -0.3117
19211W        W36058   2.810  10.289   1.142 -0.0268  0.4722  0.2337
19212W        W36059  10.436   0.307   2.445 -0.0855  0.1191 -0.0909
19213W        W36060  10.774  15.163  10.867  0.0076 -0.1529 -0.0005
19214W        W36061   7.648  13.063   4.567 -0.0414  0.1547 -0.3224
19215W        W36062   6.031   9.708  13.332  0.1280 -0.4006 -0.0266
19216W        W36063  10.082   2.093  12.285 -0.1234 -0.0467  0.0986
19217W        W36064   0.313  13.025  15.302 -0.2376  0.1477  0.0111
19218W        W36065   7.577   3.659   3.771  0.1763  0.3877 -0.1151
19219W        W36066  15.609  15.249   4.676  0.1422  0.0737  0.0809
19220W        W36067   8.897  18.702  13.184  0.0284 -0.1294 -0.1109
19221W        W36068  12.235  15.271  14.441 -0.1930  0.0700 -0.3432
19222W        W36069   8.019   0.595   3.638  0.1597  0.2449 -0.3360
19223W        W36070   8.638   4.684   1.396  0.0587 -0.1915 -0.0845
19224W        W36071   6.205  15.865   4.261  0.1064  0.2532 -0.0288
19225W        W36072   5.605  14.533   2.251  0.0734 -0.2585 -0.1821
19226W        W36073  10.814   5.777   5.214 -0.2198  0.0674  0.1244
19227W        W36074   3.979  12.321   4.911  0.1779  0.1237 -0.1977
19228W        W36075   3.387   4.786   3.232  0.0289 -0.2073  0.2093
19229W        W36076   4.832  18.277  15.229  0.2493 -0.0330  0.1875
19230W        W36077   7.397  18.196  15.260  0.3117 -0.0144  0.3138
19231W        W36078  13.695   5.976  10.968 -0.0838  0.4140  0.5289
19232W        W36079   5.971   9.285   9.555  0.0662 -0.4518 -0.0696
19233W        W36080   1.070  14.127  13.068  0.0778  0.0004 -0.3276
19234W        W36081  16.942   5.172   4.818 -0.1032 -0.1124  0.3079
19235W        W36082  16.655   3.049  10.139  0.2816  0.1110 -0.0408
19236W        W36083   6.903  10.321   2.251  0.0025  0.0020  0.1937
19237W        W36084  12.140  15.748   4.946  0.0797  0.1598  0.2345
19238W        W36085   2.666  16.768   0.834  0.2268 -0.1053 -0.3679
19239W        W36086  13.720  18.327   2.296  0.0688  0.0173 -0.1192
19240W        W36087  11.797   8.751   4.604  0.1171  0.0786 -0.2781
19241W        W36088   4.373   7.473   0.184 -0.1585  0.0475  0.1048
19242W        W36089  13.498   9.025   0.574  0.1834 -0.2631 -0.2336
19243W        W36090   2.219   4.739   4.569 -0.1458  0.1686  0.1345
19244W        W36091  18.804  17.425  15.320  0.0109 -0.0025 -0.3691
19245W        W36092  11.529   2.448   2.327  0.1498 -0.4568 -0.0513
19246W        W36093  10.210   4.836   4.099  0.0894  0.0039 -0.1058
19247W        W36094   5.940   0.525  13.817 -0.2332 -0.0446  0.3144
19248W        W36095   0.813  13.845   0.692  0.2443 -0.0277  0.0272
19249W        W36096  15.479   5.161  11.527  0.0854  0.1415  0.1614
19250W        W36097   9.843   2.507  11.499 -0.0968  0.0581 -0.1336
19251W        W36098   0.635   1.816   2.945  0.3765 -0.0102 -0.1278
19252W        W36099   4.092  15.783  12.795 -0.0926  0.1338 -0.0839
19253W        W36100   2.405  15.124   9.988 -0.1904 -0.2064 -0.1733
19254W        W36101   2.364  13.705   0.078 -0.3075  0.0306 -0.2255
19255W        W36102  18.568  15.989   3.709  0.2101 -0.0362  0.0101
19256W        W36103   6.065   7.703  11.851 -0.0244  0.0183 -0.0557
19257W        W36104  15.148   6.772   1.807  0.0935  0.2389 -0.0978
19258W        W36105  11.708  12.757   0.757 -0.1420  0.4310  0.0957
19259W        W36106  12.691   0.372   4.366 -0.2944  0.1599  0.1598
19260W        W36107   3.682  11.020   0.805 -0.1172 -0.2265 -0.0455
19261W        W36108  15.661  18.723  15.432  0.3308 -0.1710  0.0146
19262W        W36109  13.359   5.063   4.731 -0.0451 -0.1670 -0.1796
19263W        W36110   2.988   6.834   1.588 -0.0672 -0.1667  0.1249
19264W        W36111  15.145   3.560  11.204  0.0245 -0.0024  0.0964
19265W        W36112   1.528  18.396   0.559  0.1416  0.2077 -0.0689
19266W        W36113   0.459  17.646  12.990 -0.0066  0.0554 -0.1085
19267W        W36114   4.953  15.204  10.922  0.0574  0.2551  0.0103
19268W        W36115   3.511  18.127   4.413 -0.3133 -0.2474 -0.0356
19269W        W36116  12.022  15.480   0.467 -0.0648 -0.1941  0.1258
19270W        W36117   0.574  14.549  15.556  0.0223 -0.2257 -0.4566
19271W        W36118   6.454   7.003   5.071  0.0549 -0.2872  0.0668
19272W        W36119  18.297   5.689   5.128 -0.1495 -0.0232 -0.0983
19273W        W36120   5.332   9.139  14.219 -0.3014 -0.2698 -0.0943
19274W        W36121  16.227  11.734   1.784  0.3996  0.2743 -0.2223
19275W        W36122   7.437  14.137   5.447 -0.1374  0.0791 -0.0419
19276W        W36123   5.600  12.482  14.769 -0.1160  0.0151 -0.0248
19277W        W36124   0.562  11.627  14.338 -0.0355  0.0258  0.2144
19278W        W36125   6.459   8.318   3.482  0.0188 -0.0505 -0.4267
19279W        W36126  15.066  13.178   4.628 -0.1180 -0.3460 -0.0866
19280W        W36127   3.273   2.397  15.469  0.2126 -0.1364  0.0622
19281W        W36128   7.271   5.796  11.559 -0.1196 -0.4197 -0.3739
19282W        W36129   3.045   3.823   0.744  0.0696 -0.0878  0.1194
19283W        W36130  18.624   6.106   3.176 -0.2016  0.1450  0.4251
19284W        W36131  17.174   5.412  12.177  0.0528  0.2365 -0.3609
19285W        W36132  15.681   4.587   0.102  0.0959  0.2325  0.1676
19286W        W36133  13.647   7.217  12.328  0.3971 -0.1359  0.0411
19287W        W36134  18.373   0.841   4.677  0.0495  0.1120  0.1271
19288W        W36135   3.873   5.452   1.524  0.2309 -0.1023  0.1245
19289W        W36136   8.354  11.160   1.519 -0.1950  0.1294 -0.0467
19290W        W36137  10.161  12.152   2.546 -0.3813 -0.1260  0.2148
19291W        W36138   6.550  10.653   3.735 -0.1789  0.0281  0.0389
19292W        W36139   4.385   9.855  14.992 -0.0635  0.3812 -0.3025
19293W        W36140  13.096  17.159  14.962  0.0568 -0.0545 -0.3225
19294W        W36141   8.188  12.420   0.336  0.1265  0.1028 -0.0675
19295W        W36142   7.828   8.226   9.718  0.2097 -0.1349 -0.0656
19296W        W36143   0.031   4.737   4.544  0.1612 -0.1566  0.0145
19297W        W36144   1.322   4.304   0.025  0.1319  0.3086  0.0453
19298W        W36145  14.640  11.309  10.817  0.0113 -0.0450 -0.0988
19299W        W36146   7.799  14.237   0.466  0.1503 -0.1379  0.0278
19300W        W36147   9.862  16.687   1.339  0.1879 -0.2375 -0.3237
19301W        W36148  15.631  16.044  14.913 -0.0859 -0.1115  0.3411
19302W        W36149  17.248  18.122   0.094  0.1578 -0.1785 -0.0791
19303W        W36150   3.582  11.616  11.433 -0.0445 -0.2324 -0.0239
19304W        W36151  14.212  13.371  13.327  0.2934 -0.1157 -0.0514
19305W        W36152  17.004  16.462   2.510  0.1270 -0.1022 -0.1212
19306W        W36153  14.111   1.441  11.132  0.3190 -0.0962 -0.0227
19307W        W36154  16.274   9.407  11.963  0.1262  0.0224  0.1008
19308W        W36155   6.607   5.563   0.006  0.0638 -0.0549  0.0276
19309W        W36156  17.535   7.026   2.985 -0.0682  0.0121 -0.0255
19310W        W36157   4.693   8.945   0.331 -0.3871 -0.0601  0.1672
19311W        W36158   5.093   4.916   2.336 -0.0309  0.1588 -0.0225
19312W        W36159   1.810   3.081   3.694  0.2507  0.1231 -0.3099
19313W        W36160   9.091   1.739  11.263 -0.1414  0.3557  0.0140
19314W        W36161   1.525  17.314   3.731 -0.0954  0.0353 -0.2426
19315W        W36162   0.993  10.387  13.877  0.1986 -0.0050 -0.3290
19316W        W36163  18.596  18.513  12.537 -0.3282 -0.2827  0.1556
19317W        W36164  13.168   0.510   3.099  0.0937  0.0680  0.2821
19318W        W36165  16.079  10.717   2.706 -0.1888  0.0850  0.0121
19319W        W36166   1.933  10.885   3.304 -0.3122  0.5045  0.0205
19320W        W36167   3.527  12.429  12.157  0.0397  0.0830 -0.1677
19321W        W36168   0.948  15.002   5.270  0.3733  0.1552  0.0946
19322W        W36169  10.418  12.493   4.692  0.1218 -0.1323  0.3657
19323W        W36170  16.155  17.876   1.690 -0.0972  0.0769 -0.2943
19324W        W36171  18.770   0.557   2.878 -0.1142  0.1672 -0.1568
19325W        W36172   5.584  18.258   2.003 -0.1311  0.0840  0.0047
19326W        W36173  15.307   0.855  14.438  0.1579 -0.0291  0.2790
19327W        W36174   4.330  14.473   0.631  0.0596  0.1302  0.1847
19328W        W36175  16.253   7.571   0.106  0.1089 -0.0265 -0.0650
19329W        W36176  15.532  18.138  15.075  0.0287 -0.2118  0.0485
19330W        W36177   5.317  16.670  13.105  0.2500 -0.2173 -0.2127
19331W        W36178   3.311  15.938  10.991 -0.3031  0.1119  0.3797
19332W        W36179   9.573   2.984   0.999 -0.0900 -0.4163 -0.1967
19333W        W36180   0.415   0.854   5.656 -0.0936 -0.0356 -0.1010
19334W        W36181  15.679   7.061   0.598  0.1605 -0.0891 -0.0300
19335W        W36182   0.445  15.442   3.859  0.0129 -0.1192 -0.0871
19336W        W36183   1.857  12.060   5.773  0.0905  0.2826 -0.1497
19337W        W36184   8.242  18.706   2.229 -0.2899  0.3305  0.1382
19338W        W36185  17.767   2.351   0.527  0.4902  0.1019  0.1839
19339W        W36186   5.912  14.255  12.765 -0.2596  0.0306  0.1417
19340W        W36187   8.730   3.066  10.858  0.2111  0.0241  0.2453
19341W        W36188  10.939  15.155  14.377  0.1787 -0.0467  0.0377
19342W        W36189   8.178  10.556  11.180  0.1063  0.0743 -0.1536
19343W        W36190  13.468   2.406   3.522  0.0604  0.2716 -0.0147
19344W        W36191   1.239  14.849   3.448 -0.0094  0.0001 -0.1639
19345W        W36192  10.727   3.282  13.851  0.0423 -0.0043 -0.0861
19346W        W36193   6.889  12.360   2.198  0.2186 -0.2537  0.2139
19347W        W36194  14.720   0.879  13.115  0.4034 -0.0458 -0.1464
19348W        W36195  14.636   6.471   4.984  0.0597  0.1283 -0.0002
19349W        W36196   9.425   8.786  12.763  0.1289  0.1214 -0.0764
19350W        W36197  17.957   4.539  14.221 -0.0512  0.1741 -0.1976
19351W        W36198   7.940   0.615   2.796  0.2722  0.0802  0.1494
19352W        W36199  16.672   0.935  10.891  0.0591  0.1410 -0.0187
19353W        W36200   4.336   7.981   5.600 -0.0876  0.2337  0.1624
19354W        W36201   7.199   6.911   0.331  0.1436  0.2109 -0.3273
19355W        W36202   8.659  14.454   4.551  0.2299 -0.1195  0.1259
19356W        W36203  13.417   9.261  10.715  0.2682 -0.2338  0.0202
19357W        W36204  13.117   7.994  14.245  0.0520 -0.0571  0.2999
19358W        W36205   9.210   2.319   5.959 -0.1640 -0.0460  0.0350
19359W        W36206  12.870  13.670   2.399 -0.2357  0.0390 -0.1610
19360W        W36207  13.907  11.394  13.626 -0.2476 -0.0247 -0.2012
19361W        W36208   3.437   1.063   3.470  0.0751 -0.2305 -0.1438
19362W        W36209  17.196   6.788   0.212 -0.0774  0.0213  0.2017
19363W        W36210  16.581  16.193   2.152 -0.2104 -0.1308 -0.1152
19364W        W36211  14.371   2.807   0.511  0.0939  0.0551 -0.1099
19365W        W36212   0.489  11.313   4.717 -0.1831 -0.1831  0.2595
19366W        W36213  17.022   3.072   0.518 -0.0907  0.2027 -0.4486
19367W        W36214   6.355  10.727  10.748 -0.3876 -0.2091 -0.1452
19368W        W36215   0.992   8.288   4.669  0.0750  0.2793  0.1319
19369W        W36216   5.236   0.704  13.388  0.2126 -0.0079 -0.1608
19370W        W36217  15.398  17.401  11.085  0.0636 -0.3551  0.3988
19371W        W36218  17.346  13.416  14.880  0.2313  0.0670  0.2179
19372W        W36219   3.112   8.105  11.189  0.0287 -0.1538  0.3089
19373W        W36220   9.700  12.746   0.809  0.0016 -0.1194 -0.3335
19374W        W36221  14.666  11.739  13.659 -0.3407  0.1888  0.2127
19375W        W36222  10.509  10.170  15.521 -0.0322  0.2762 -0.1000
19376W        W36223  10.622  13.755  11.942 -0.0362  0.2989 -0.1600
19377W        W36224   1.318   7.254   1.354 -0.3024  0.0226 -0.0574
19378W        W36225  16.479  11.802  14.152  0.0404 -0.2389  0.2374
19379W        W36226   5.720  11.979  14.819  0.0993  0.2787 -0.1135
19380W        W36227  11.321  14.690  11.895  0.2426 -0.2696 -0.0297
19381W        W36228   8.340   9.122   4.677 -0.2527  0.0551 -0.0604
19382W        W36229   6.901   7.552  10.716  0.0068  0.1260 -0.2179
19383W        W36230  13.401  17.013   1.443 -0.0106  0.1275  0.1815
19384W        W36231  10.458   7.080  13.568 -0.1107  0.1262 -0.1693
19385W        W36232   7.344   5.743   3.049 -0.0600 -0.0673  0.1497
19386W        W36233   8.540  16.229   0.772  0.0164 -0.0435 -0.0169
19387W        W36234  13.727   0.751   2.228  0.0048  0.1659  0.0534
19388W        W36235  12.622   9.776   1.278  0.2251 -0.1681  0.0162
19389W        W36236   0.471   6.414   1.099  0.4686 -0.1951  0.1115
19390W        W36237   1.413   1.222  13.363  0.1135  0.0470  0.2862
19391W        W36238   6.995  13.062   3.968 -0.1634 -0.1125  0.1479
19392W        W36239   6.244  14.398   2.799 -0.3680  0.1080 -0.1777
19393W        W36240   9.592   1.226  12.243  0.4527  0.3181  0.1554
19394W        W36241  18.684   6.877   0.684 -0.0302 -0.0752  0.1707
19395W        W36242  12.472  10.476   1.803  0.3650 -0.0051  0.3779
19396W        W36243  11.831  13.662   1.625  0.0151  0.0145  0.2016
19397W        W36244   5.346  13.782   3.935  0.0691  0.2087  0.1756
19398W        W36245   9.926   9.474  12.521 -0.1049  0.2923  0.0228
19399W        W36246  11.735   6.919  11.327 -0.2413 -0.0768  0.2420
19400W        W36247  14.289  16.362  12.052  0.0051  0.0463 -0.2506
19401W        W36248   1.841   5.895  11.329 -0.1402  0.1501  0.0139
19402W        W36249   5.693   5.959   0.425  0.0733  0.1558  0.3666
19403W        W36250  16.844  13.270  14.997  0.0988  0.3509 -0.0091
19404W        W36251  11.864   9.558   2.253 -0.0369  0.0132 -0.0585
19405W        W36252  12.149   3.263   4.319  0.1666  0.0792 -0.1153
19406W        W36253   5.246  12.279   2.299 -0.0005 -0.0331 -0.0560
19407W        W36254   6.465   9.762   9.488 -0.1681  0.1546 -0.1218
19408W        W36255  11.032  11.738  12.767 -0.0715  0.2085  0.2630
19409W        W36256  14.231   8.178   3.180  0.1261  0.1812 -0.0524
19410W        W36257  10.038   3.760   2.818 -0.0173  0.0997  0.1345
19411W        W36258  17.924  10.161  15.539  0.1478 -0.0421 -0.0225
19412W        W36259   0.929   0.440  11.474 -0.4065 -0.1609  0.2770
19413W        W36260   0.961  11.229  12.998 -0.0400 -0.0537  0.2435
19414W        W36261   7.217  12.525   3.237 -0.3998 -0.0656  0.2721
19415W        W36262  15.970   1.755  10.763  0.1734 -0.0601 -0.1338
19416W        W36263  16.400   6.584   0.656 -0.1810  0.1031  0.1171
19417W        W36264   8.191   5.589   2.642  0.1084 -0.2304 -0.0161
19418W        W36265  15.615   1.708  14.899 -0.2309 -0.1746  0.1157
19419W        W36266  16.904   0.487  10.990  0.4034 -0.0419  0.1219
19420W        W36267  15.131   3.649  12.679 -0.0819  0.1755  0.2344
19421W        W36268   9.923   0.589   2.660  0.3714  0.2382  0.0575
19422W        W36269  13.368   3.024   5.095  0.2151 -0.0331 -0.1679
19423W        W36270   6.161   6.195   4.634 -0.1524 -0.0145 -0.1002
19424W        W36271  15.417  15.886   3.445  0.0989  0.1133 -0.1749
19425W        W36272   3.742   7.772   4.214 -0.1546  0.1384 -0.0093
19426W        W36273   9.180   4.409  10.831  0.0620 -0.0123 -0.0628
19427W        W36274   9.485  18.554  11.246 -0.1379  0.1735 -0.0835
19428W        W36275  10.142  12.775  11.558 -0.0156 -0.0555 -0.1957
19429W        W36276  15.320  15.009   3.943  0.1216 -0.0260  0.3252
19430W        W36277   8.143   3.280  13.530 -0.0348 -0.1356  0.0308
19431W        W36278  13.742  11.757   3.334  0.3357 -0.1613 -0.1040
19432W        W36279   4.178   7.933  14.965  0.3114 -0.2621  0.0042
19433W        W36280   0.953  12.677   0.492 -0.0295  0.3146 -0.4290
19434W        W36281  16.304   3.797   2.033  0.1056 -0.1980  0.1007
19435W        W36282   8.114  11.150  11.197  0.1044 -0.2713  0.1022
19436W        W36283   2.281  16.913  12.890 -0.0188 -0.2355 -0.0380
19437W        W36284   1.348   6.192   2.302  0.1815  0.0561 -0.1613
19438W        W36285  10.783   0.856  11.055  0.3321 -0.0507  0.1270
19439W        W36286   6.522   5.535   5.393  0.2671 -0.1751 -0.0747
19440W        W36287  10.421   2.070   2.470 -0.3346  0.0923  0.0930
19441W        W36288  13.256   0.179  13.518  0.0606 -0.0755 -0.1525
19442W        W36289   5.207  17.101   3.259  0.0939 -0.1996  0.0505
19443W        W36290  10.978   2.261   4.496 -0.2409  0.0397  0.0920
19444W        W36291   2.337   4.147  14.276  0.0228  0.1375  0.1440
19445W        W36292   3.818   9.556   5.466  0.1165  0.4499  0.1456
19446W        W36293  12.109   4.242  15.372  0.4173 -0.0616  0.0647
19447W        W36294  10.588  11.816   4.854  0.0330 -0.0977 -0.0133
19448W        W36295  18.457  11.263   3.854  0.2299  0.3849  0.0575
19449W        W36296  17.171   1.316  13.187 -0.2031  0.3031  0.3533
19450W        W36297   6.931   5.101   0.390 -0.1817  0.3923 -0.1672
19451W        W36298  17.377  17.511   0.891 -0.1098  0.0896  0.1816
19452W        W36299   0.214  18.622   2.139 -0.0754  0.2625  0.1481
19453W        W36300  12.907  17.516  11.046 -0.2434  0.2408  0.1348
19454W        W36301   9.231   8.564  11.625 -0.2075 -0.0377 -0.0758
19455W        W36302  14.153   2.182  11.511 -0.1229  0.0801  0.1136
19456W        W36303  12.540   4.947   3.930  0.0186  0.0930  0.0298
19457W        W36304   6.368   3.526   3.275 -0.0752 -0.0137  0.2472
19458W        W36305   2.630   6.043   3.404  0.1570  0.1400 -0.2514
19459W        W36306   6.041   8.755   0.499  0.0293  0.0832  0.2721
19460W        W36307  17.350   8.296   0.926 -0.2429  0.0186 -0.0909
19461W        W36308   7.115  15.992   4.592  0.0461  0.1414  0.0290
19462W        W36309   6.114  14.499   1.503 -0.0766 -0.1611  0.1281
19463W        W36310  14.428   5.072  11.627  0.1062  0.0397  0.0771
19464W        W36311   9.158  15.108   1.476  0.1387 -0.1904 -0.2167
19465W        W36312   9.555  11.625  15.333  0.0366 -0.0522  0.4980
19466W        W36313  15.729  13.033  13.101 -0.1376 -0.2596 -0.0453
19467W        W36314  11.083  15.700   2.636 -0.1185  0.1585  0.0115
19468W        W36315   8.477  18.307   3.075 -0.0853  0.3555 -0.1386
19469W        W36316  14.637  10.913   0.585 -0.2091  0.0458  0.2440
19470W        W36317  14.242  15.596  14.744 -0.2673 -0.2977  0.1576
19471W        W36318  16.925  18.039   2.176 -0.0418 -0.1074  0.3479
19472W        W36319  13.075   4.021   3.722 -0.1389  0.0713 -0.2087
19473W        W36320   1.452   2.933   3.333 -0.3812  0.2672  0.2338
19474W        W36321   5.505  17.017   3.649  0.1225 -0.0445  0.0171
19475W        W36322   4.797  13.517   2.043  0.1343 -0.1586  0.2162
19476W        W36323  10.362   4.355   3.913  0.3321 -0.1085 -0.0771
19477W        W36324   8.637  11.979   5.179 -0.0163 -0.0433 -0.1394
19478W        W36325  12.059   2.059  13.747  0.1483  0.3038 -0.1178
19479W        W36326  14.897  12.594  11.937  0.3180  0.0422  0.0699
19480W        W36327   9.691   2.523  14.771  0.2477 -0.1015  0.2311
19481W        W36328   2.485   2.281   4.526  0.0982 -0.0598  0.2478
19482W        W36329   2.792  17.121   3.618  0.1769  0.1082 -0.0793
19483W        W36330  16.813   7.100   3.036  0.0719  0.1946 -0.0541
19484W        W36331   3.914   6.672  13.566  0.0710 -0.5049  0.0815
19485W        W36332   7.317  17.264  13.816 -0.1264 -0.0812 -0.1082
19486W        W36333   9.099  18.616   3.611 -0.0668 -0.1927  0.2603
19487W        W36334   5.682  16.782   0.757 -0.0358  0.2266  0.5175
19488W        W36335   9.770   6.203   1.937  0.0379  0.1617  0.0755
19489W        W36336   5.925  15.409  10.671 -0.0220  0.0914 -0.0361
19490W        W36337  13.848  10.136  12.234 -0.3131  0.2700  0.1775
19491W        W36338   7.145  11.910   1.117 -0.1366  0.3829 -0.1054
19492W        W36339   5.355   5.818   2.581  0.2648  0.2821  0.1485
19493W        W36340   0.327  16.464   2.126 -0.0565 -0.0703  0.0656
19494W        W36341  17.984  13.478  13.797  0.2080  0.0082  0.0928
19495W        W36342  11.923   8.339  12.477  0.3120 -0.4596  0.1712
19496W        W36343   4.123   7.883  15.520 -0.1136  0.0709  0.4899
19497W        W36344  17.470   3.666   3.984 -0.0507 -0.0370 -0.0757
19498W        W36345  14.132   2.050  13.981 -0.0831 -0.2751  0.1451
19499W        W36346  12.864  15.483  10.445  0.0388  0.1297  0.0658
19500W        W36347  14.742   7.218  12.220  0.2327  0.1547  0.1428
19501W        W36348   6.700  17.115   0.416  0.3312 -0.0991  0.3484
19502W        W36349   3.286  15.185   1.413  0.2659  0.0472 -0.0802
19503W        W36350  15.867  14.602   0.835  0.2068  0.0427 -0.1674
19504W        W36351  13.725  14.353  12.021  0.4034  0.0145  0.4562
19505W        W36352   9.586   5.815  11.417  0.1037  0.3130  0.1343
19506W        W36353   3.989   8.310  14.133 -0.1695 -0.2104 -0.0744
19507W        W36354  14.541   0.581  11.365 -0.0614  0.0320  0.0988
19508W        W36355   5.753   2.656   5.134  0.2639  0.2721  0.4776
19509W        W36356  16.491   4.152   4.796  0.0555  0.3697 -0.0954
19510W        W36357   3.256   1.651   4.161 -0.1180 -0.4913 -0.2663
19511W        W36358   6.776   0.657   4.056 -0.4381  0.0983  0.2841
19512W        W36359  18.840   5.957   2.478  0.1555  0.2681  0.1955
19513W        W36360  16.807  18.355  11.949  0.2128 -0.1071 -0.2016
19514W        W36361   6.650  16.928   1.914 -0.0867 -0.0209 -0.0827
19515W        W36362   6.991  11.130   1.648 -0.0936 -0.1399  0.1841
19516W        W36363  12.760   5.437  12.860 -0.0632 -0.3123 -0.1750
19517W        W36364   7.616   3.901  11.661  0.2667  0.0751 -0.1095
19518W        W36365   6.850   9.031  13.307 -0.2167  0.1259  0.0352
19519W        W36366   6.792  11.323   0.018  0.0760 -0.0379  0.3401
19520W        W36367   7.645   7.766  12.455 -0.1248 -0.0520  0.0961
19521W        W36368  13.268  17.223  13.716 -0.2798  0.0806 -0.0754
19522W        W36369   8.143   0.270  10.767 -0.2002  0.1888  0.2348
19523W        W36370   5.094  16.185   2.343 -0.1156 -0.0568 -0.0588
19524W        W36371  12.914   3.260   4.322 -0.0072  0.2102 -0.1127
19525W        W36372  16.212   7.048  12.234  0.0498 -0.4380  0.1388
19526W        W36373   5.086  11.253  11.046  0.1757  0.0624  0.1570
19527W        W36374  14.736  18.557  10.811  0.2290  0.0163 -0.2487
19528W        W36375  12.511   1.079  15.094 -0.1172  0.3115  0.1152
19529W        W36376   9.289   6.141  13.035  0.0150  0.4174  0.0223
19530W        W36377   0.943  15.517   4.458 -0.1386  0.0713  0.0231
19531W        W36378   2.872  15.558   4.786 -0.3885 -0.0238  0.0555
19532W        W36379   0.000   6.103   0.353 -0.1605 -0.2891 -0.0811
19533W        W36380  14.089  12.606   0.815 -0.2834  0.4460 -0.2870
19534W        W36381   8.745   5.068   3.988 -0.0058 -0.1584  0.0690
19535W        W36382   9.003  14.204  12.202  0.0291 -0.1252  0.1290
19536W        W36383   3.695  12.295  13.995  0.0205 -0.0304  0.1375
19537W        W36384   5.986   7.678   2.830 -0.2087 -0.1656  0.2051
19538W        W36385  18.708   6.228  14.876  0.0430  0.0031  0.1733
19539W        W36386   8.733  13.152   0.660  0.0230  0.2697 -0.1748
19540W        W36387   0.926   0.598   1.130 -0.0860 -0.3033  0.1859
19541W        W36388  10.461   1.198   3.953 -0.0282  0.2187 -0.0091
19542W        W36389   6.140  11.178   0.483 -0.0527  0.1019 -0.2077
19543W        W36390   2.374  14.390   3.886  0.1607  0.0110  0.2328
19544W        W36391  14.750   6.411  11.749  0.0780 -0.4064  0.2927
19545W        W36392  14.535  16.777   0.785  0.1143 -0.1482 -0.4545
19546W        W36393  17.164   7.223  12.038  0.1470  0.0475  0.1957
19547W        W36394   8.902  14.263   4.074 -0.0286  0.0987  0.3160
19548W        W36395  13.285   3.017   1.063 -0.0652 -0.1105  0.1439
19549W        W36396  18.302   9.506   2.404  0.2589  0.2186  0.0055
19550W        W36397   6.964   8.445  10.999 -0.2829  0.0412  0.2726
19551W        W36398   3.297  13.612   0.749 -0.0643 -0.0716  0.0633
19552W        W36399  10.258  15.936   0.782 -0.0876 -0.1184  0.0238
19553W        W36400  17.834   3.574   1.428  0.3281  0.1300  0.2376
19554W        W36401   1.052  16.319  15.505 -0.1112 -0.2444  0.1663
19555W        W36402   0.856   5.167   5.233  0.1560  0.2585  0.3114
19556W        W36403  15.328   9.315   0.709 -0.2787  0.1440 -0.0549
19557W        W36404   7.479   2.886  12.344  0.0943  0.0819  0.0563
19558W        W36405  10.423   2.429   3.071 -0.2331 -0.0685 -0.0123
19559W        W36406   7.255  18.563   5.470  0.2583  0.3295 -0.0628
19560W        W36407   2.856  15.953   9.209 -0.1038  0.2082  0.1053
19561W        W36408  16.673   7.927   0.762 -0.3477  0.0299  0.2091
19562W        W36409  13.905  18.490   1.698 -0.0500  0.1192  0.0283
19563W        W36410  16.679  16.282   0.869  0.0189 -0.0777 -0.1174
19564W        W36411   3.054  15.966  14.050 -0.1004  0.2639  0.0091
19565W        W36412   7.535   7.933  10.653 -0.2841 -0.3268  0.0261
19566W        W36413   8.186   4.346  14.434  0.2025  0.0101  0.3902
19567W        W36414   0.305  18.796  10.764 -0.0329 -0.4921  0.3173
19568W        W36415  11.793   5.793  13.353  0.4513 -0.1220 -0.1122
19569W        W36416   3.915   7.579  11.201  0.3574  0.1002  0.1488
19570W        W36417  18.239   7.634  14.086 -0.3327 -0.0655  0.0302
19571W        W36418   0.794  10.213   2.063 -0.1835 -0.1079 -0.0463
19572W        W36419  11.067   7.690   5.278 -0.1388 -0.3563  0.0378
19573W        W36420   0.059  12.756   1.441  0.0334  0.0547 -0.0057
19574W        W36421   7.352  15.385  10.480  0.0714 -0.1823 -0.0896
19575W        W36422   9.452   6.932  13.683 -0.0370  0.1998  0.4677
19576W        W36423  18.709  15.509   0.468  0.0085 -0.3187 -0.0449
19577W        W36424  17.175   1.072   1.645  0.0836 -0.1555 -0.0576
19578W        W36425   7.999   5.228   1.300 -0.3568  0.1190 -0.2701
19579W        W36426   9.731  14.908   0.598 -0.0375 -0.1028 -0.0537
19580W        W36427   1.069   3.639  11.530  0.3144  0.3409 -0.0750
19581W        W36428   6.643   5.410   4.645 -0.0485 -0.0331  0.2329
19582W        W36429  13.287   4.495   2.485 -0.1040  0.2599  0.2095
19583W        W36430   9.978  14.313   5.129 -0.0677  0.3386 -0.0987
19584W        W36431   3.027   1.394  14.407  0.2073 -0.1351 -0.0255
19585W        W36432   1.265   7.195   2.523 -0.2802 -0.0937  0.1967
19586W        W36433  16.839   3.807   2.066  0.1913 -0.0464 -0.0373
19587W        W36434   0.465   1.618  12.266  0.3387  0.1815 -0.0055
19588W        W36435  16.452   9.127   2.085 -0.1279 -0.1534 -0.0897
19589W        W36436   2.120   2.073   4.899  0.0798  0.2811  0.0283
19590W        W36437  12.667  12.916   4.578  0.0356  0.0562 -0.5577
19591W        W36438   4.807   4.021   2.893  0.0575  0.0100 -0.0990
19592W        W36439   8.276  15.298  13.402  0.1529  0.1845  0.0775
19593W        W36440  11.294   5.732   3.557  0.1889 -0.0329  0.1051
19594W        W36441  12.740   6.644  14.747 -0.2224 -0.0266  0.1523
19595W        W36442  15.024   7.943   3.571  0.2927 -0.0581  0.3019
19596W        W36443   2.518  17.622   0.013 -0.0598  0.3143 -0.1124
19597W        W36444   9.964   8.364   1.905  0.2607  0.1064 -0.0975
19598W        W36445  16.313  11.011   3.100  0.1062  0.1819  0.0549
19599W        W36446  12.395   3.193  15.068  0.0695 -0.2151  0.2983
19600W        W36447   0.131   0.713   0.361  0.2316 -0.1134 -0.0428
19601W        W36448  11.739  11.151   1.863  0.0402  0.3725  0.0211
19602W        W36449   5.956   8.233  13.647 -0.0244  0.0829 -0.1709
19603W        W36450   0.217   8.211  13.632  0.0930  0.0827  0.0781
19604W        W36451   1.449  11.912  14.074  0.0097 -0.1463  0.5446
19605W        W36452   3.215   5.167   1.112 -0.1391 -0.3783 -0.0121
19606W        W36453   3.746   8.239   3.412  0.2048 -0.1451  0.0043
19607W        W36454   4.559   7.117   3.016  0.1104  0.2297 -0.2948
19608W        W36455  17.892   6.860  13.483 -0.1774 -0.1515 -0.1721
19609W        W36456  10.977  15.994   4.741 -0.2161 -0.3395 -0.0227
19610W        W36457   8.073  15.723   3.002 -0.2584 -0.3294 -0.1545
19611W        W36458   3.495   0.849  12.959 -0.0139 -0.0398 -0.0766
19612W        W36459  16.879  18.194   1.156 -0.1155 -0.1497  0.1004
19613W        W36460   8.649   2.858  12.642 -0.0871 -0.0787  0.2279
19614W        W36461  16.890  10.062  13.060 -0.0863 -0.0921 -0.0075
19615W        W36462  18.077   9.987  14.168 -0.1704  0.1333  0.5937
19616W        W36463   6.745   6.085   5.431 -0.0557 -0.3952  0.0979
19617W        W36464  15.160  15.402  13.302 -0.0667 -0.3424 -0.2834
19618W        W36465   6.533   2.754   3.693 -0.2184  0.0562 -0.2645
19619W        W36466  14.339   3.768   3.895 -0.3645  0.1430 -0.3151
19620W        W36467   1.678   6.611  10.048  0.3496  0.5001  0.1049
19621W        W36468  13.218  11.179   0.116  0.2222  0.1528 -0.1273
19622W        W36469   5.244  12.435   4.328  0.2841  0.2682 -0.1667
19623W        W36470   8.623   6.312   0.151  0.0286 -0.1156  0.1517
19624W        W36471  16.106   6.757  12.609 -0.1186  0.2698  0.2177
19625W        W36472   1.939   2.612   1.515  0.1952  0.5111  0.0844
19626W        W36473   2.277  11.350   4.904  0.0270  0.0971 -0.1247
19627W        W36474   4.581   1.850  11.546  0.4261  0.0653  0.1241
19628W        W36475  16.341   4.808   0.590  0.3119 -0.0172  0.2764
19629W        W36476   6.232  13.787  11.812 -0.0548  0.2124 -0.2030
19630W        W36477  12.612   0.599  12.313  0.0005  0.2405  0.2432
19631W        W36478  17.434   5.385   5.577 -0.0612 -0.1496 -0.1291
19632W        W36479   1.493  12.135  14.708  0.1741 -0.1550 -0.0041
19633W        W36480   6.470   1.924  15.038  0.1386 -0.1396  0.0223
19634W        W36481   2.864   0.658   4.801  0.1585  0.1884  0.0392
19635W        W36482   3.380   8.125  11.641  0.1347  0.3313  0.2183
19636W        W36483   7.729   3.128   3.575 -0.0925  0.0125 -0.0080
19637W        W36484  17.108  17.465  15.049 -0.2446 -0.5463  0.1641
19638W        W36485  13.319   3.929   5.423 -0.1317  0.2975 -0.0347
19639W        W36486   9.277   7.332  12.826 -0.2787 -0.2313 -0.3091
19640W        W36487   3.152  18.434  13.849  0.0472 -0.0927  0.1992
19641W        W36488  16.857  11.972  10.805 -0.0551 -0.1123  0.0289
19642W        W36489  16.314  18.045  12.089  0.1851 -0.0548  0.1550
19643W        W36490  11.203   2.370   2.692  0.5172 -0.0314 -0.3048
19644W        W36491  11.948   2.251   4.835  0.0853 -0.1318  0.0857
19645W        W36492   9.684  16.172   3.004 -0.0904 -0.1003 -0.0442
19646W        W36493   2.730   3.703   3.572 -0.1817 -0.0035  0.0666
19647W        W36494   5.991  13.954  10.376 -0.1259 -0.2033 -0.1086
19648W        W36495  18.142  17.847   2.669 -0.3938  0.1457 -0.0590
19649W        W36496   4.617  10.801   5.007  0.2493 -0.0907 -0.2954
19650W        W36497  16.486   0.275   2.065 -0.0786 -0.0962 -0.1047
19651W        W36498  14.320   4.953   2.542 -0.1140 -0.1457  0.0591
19652W        W36499   0.928   0.775   0.615 -0.1640 -0.0593  0.0068
19653W        W36500  14.876   1.128  10.361 -0.0063 -0.0179 -0.1477
19654W        W36501   8.400   6.494   1.078 -0.0186 -0.2039 -0.2324
19655W        W36502  13.666  14.737   2.869 -0.0975 -0.1030 -0.0167
19656W        W36503  13.801   7.186  13.933  0.1109 -0.1821  0.0289
19657W        W36504  11.743  15.754  11.432  0.3512  0.0753 -0.1548
19658W        W36505   2.362   8.690  11.775  0.0962  0.1173  0.0333
19659W        W36506   5.528  18.401   4.917  0.4218 -0.2096 -0.1504
19660W        W36507   6.697   0.904   3.107 -0.1148 -0.0484 -0.0117
19661W        W36508   7.637  12.407   1.261  0.0960  0.1734 -0.0017
19662W        W36509  10.954   1.053   3.981 -0.0633  0.2679 -0.0069
19663W        W36510  15.190   8.885   4.536 -0.1778  0.1833 -0.0566
19664W        W36511   8.766  18.552  14.938  0.2974 -0.0866 -0.3839
19665W        W36512   5.053   8.628   0.442 -0.0457 -0.0745 -0.0834
19666W        W36513  10.430   5.199   2.767 -0.0635 -0.1472  0.1513
19667W        W36514  12.271   2.486  13.921 -0.0164  0.3785 -0.3328
19668W        W36515  13.201   7.801  11.209 -0.5099 -0.3295  0.0535
19669W        W36516  13.318  14.008   9.681  0.2254  0.0944  0.0483
19670W        W36517  13.718   0.218   5.152  0.1292 -0.1946 -0.0565
19671W        W36518   4.889   9.995  11.280 -0.0636 -0.1134  0.1447
19672W        W36519   6.590   6.701  12.337 -0.0496 -0.1743 -0.0836
19673W        W36520   7.611   5.037  13.158 -0.0042  0.2544  0.0042
19674W        W36521   0.295  13.477  13.907 -0.1408 -0.0608  0.1933
19675W        W36522  12.504  18.291   2.185  0.1117 -0.0129  0.1197
19676W        W36523   6.239   3.759  11.783 -0.0477 -0.1313 -0.0178
19677W        W36524   9.100  12.329   0.441 -0.0465  0.0465 -0.0334
19678W        W36525  14.957  14.510   2.314 -0.1662 -0.2045  0.1910
19679W        W36526  11.355  16.045  14.454 -0.2272 -0.1216 -0.0422
19680W        W36527  13.203   5.343   3.413  0.1437  0.0266 -0.1746
19681W        W36528   5.213  14.486   1.787  0.1730  0.0028  0.0809
19682W        W36529  13.894   3.621  13.348 -0.0288 -0.0751 -0.3107
19683W        W36530  14.136   6.341   0.171  0.2772 -0.2825 -0.0429
19684W        W36531  17.473  18.555   1.310 -0.1401  0.0305 -0.2128
19685W        W36532  11.471  13.385   1.266  0.1832 -0.0710  0.3088
19686W        W36533   7.079   0.156   1.944 -0.1222 -0.1706  0.3381
19687W        W36534  17.773   6.885  10.553  0.1467 -0.0399  0.1241
19688W        W36535  11.513  15.602   3.561  0.1104 -0.2691  0.0954
19689W        W36536   6.510   0.624  12.631  0.0662  0.1544 -0.0250
19690W        W36537  18.019   2.953   3.496 -0.1447  0.0141  0.1152
19691W        W36538  18.533  15.719  11.230 -0.1892 -0.4419 -0.0652
19692W        W36539  14.774   3.605   1.233 -0.2629 -0.1492 -0.1674
19693W        W36540   2.687  10.240   3.499 -0.0245 -0.0343  0.2441
19694W        W36541  12.439   0.537  13.985 -0.0954  0.0641 -0.0049
19695W        W36542   2.098   7.764  11.500  0.0166 -0.1911 -0.0275
19696W        W36543   7.964   1.066   3.051 -0.2959  0.0522  0.2114
19697W        W36544   6.235  14.766  13.281 -0.2033  0.0028 -0.1689
19698W        W36545   2.182   3.774   0.184  0.3991  0.4631  0.1748
19699W        W36546  10.366   4.926   1.261  0.1985  0.0644  0.0247
19700W        W36547  14.009   7.435   0.998 -0.1952 -0.0927 -0.0763
19701W        W36548  12.223   5.825   2.573  0.1508 -0.0687  0.1330
19702W        W36549   9.769   3.518   2.292  0.0012  0.1055  0.3526
19703W        W36550  12.404  17.222   0.707 -0.1691  0.2027  0.2444
19704W        W36551   6.549   6.802   4.469 -0.2002  0.0839  0.3143
19705W        W36552   0.750   1.348   3.140 -0.1009 -0.0523 -0.0340
19706W        W36553  13.950   7.346   2.023  0.0305 -0.1495  0.2163
19707W        W36554  12.881  13.780   5.006  0.2045  0.0506 -0.2315
19708W        W36555  12.102  11.564  14.816  0.0122  0.0502 -0.0138
19709W        W36556   5.495  15.032   2.353  0.1177 -0.0428  0.3624
19710W        W36557   4.584  17.083   2.449 -0.3403  0.1107  0.0509
19711W        W36558   0.092  16.034   3.272  0.4778  0.2278  0.4126
19712W        W36559   7.031  14.554   0.263 -0.2000 -0.0129  0.0854
19713W        W36560  13.258   5.322   2.871 -0.1884 -0.2090 -0.1199
19714W        W36561   5.906   1.174  11.380  0.4561 -0.2061  0.1521
19715W        W36562  14.001  13.848   3.043 -0.3644  0.0714 -0.2717
19716W        W36563   3.141  17.011  13.525  0.0275  0.1966 -0.0869
19717W        W36564  11.160   1.089  11.794  0.0473  0.0236 -0.2804
19718W        W36565  12.867   8.641  10.812 -0.1899  0.3068  0.2573
19719W        W36566  16.635   2.698  10.512  0.1587  0.1096 -0.4368
19720W        W36567  11.010  10.778  11.626 -0.0152 -0.1525  0.1661
19721W        W36568   2.300   0.769  13.723  0.0830 -0.2926 -0.0793
19722W        W36569  14.969  15.700  13.670 -0.0330  0.1870 -0.0485
19723W        W36570   9.058   2.164  11.496  0.3694  0.1878 -0.0380
19724W        W36571   3.968  13.142  11.097  0.0960  0.2248 -0.2716
19725W        W36572  10.045   0.101   0.011  0.1384  0.1456  0.1381
19726W        W36573   7.459   7.488  14.045 -0.2113 -0.0721  0.1154
19727W        W36574  17.422  15.035  10.759 -0.1053 -0.1941 -0.5626
19728W        W36575  13.568  11.307   5.034 -0.3338  0.0076  0.1082
19729W        W36576  11.653   1.825   4.031  0.0719  0.0055 -0.0914
19730W        W36577  18.710  14.670  13.349  0.0347 -0.0144  0.0114
19731W        W36578   8.519   6.356   3.309  0.1028 -0.0840 -0.1725
19732W        W36579   4.123   4.796   1.524 -0.0934 -0.2265  0.2922
19733W        W36580  15.063  16.500   4.511 -0.0430  0.0128 -0.1101
19734W        W36581  15.516  12.517   1.208  0.0752 -0.0602  0.0213
19735W        W36582  15.431   9.172  12.616  0.0483 -0.0954  0.2111
19736W        W36583   3.676   7.793   3.684  0.0884  0.3637 -0.3394
19737W        W36584  10.731   5.140  10.708  0.0449 -0.4625  0.4272
19738W        W36585   9.504  10.592   4.615 -0.0750  0.1273 -0.1316
19739W        W36586   3.657  12.764   1.492  0.2417 -0.1297 -0.0971
19740W        W36587  18.785  11.938   2.728 -0.2187 -0.1757 -0.1361
19741W        W36588  16.811  12.873   1.577  0.0158  0.1604 -0.2313
19742W        W36589   0.744  14.178   2.643 -0.0471 -0.1989  0.2620
19743W        W36590   1.014   3.263   1.701 -0.1743 -0.0706 -0.1677
19744W        W36591  10.816  13.667   0.192 -0.1964  0.1834 -0.2666
19745W        W36592   2.969   3.472   1.175  0.2943 -0.0123  0.1487
19746W        W36593   8.159  18.267  14.652 -0.2662  0.2994 -0.1799
19747W        W36594   0.608   3.284   3.107  0.0269 -0.1514  0.2686
19748W        W36595   7.831   8.319   4.436  0.2486 -0.1388 -0.1074
19749W        W36596  17.971  16.458  15.205 -0.1365 -0.1866 -0.2229
19750W        W36597  12.620   2.375   5.301 -0.2618 -0.0053 -0.3265
19751W        W36598  10.648  12.428   0.502 -0.1246  0.0237  0.1300
19752W        W36599  11.283   0.853  12.771 -0.0606  0.1578  0.0153
19753W        W36600  13.109  12.070   0.514  0.2924  0.1550  0.0205
19754W        W36601  18.396  16.299  15.485  0.1253 -0.2498 -0.1093
19755W        W36602  17.092  16.919   3.994  0.1439 -0.0819  0.2104
19756W        W36603   4.176   9.266  14.999 -0.4949 -0.1120 -0.1341
19757W        W36604  17.221   3.339  14.261 -0.0721  0.1216 -0.0545
19758W        W36605   0.279   8.920  14.619  0.1516 -0.1106 -0.0292
19759W        W36606   5.580   4.704  13.220  0.0907 -0.0633 -0.1838
19760W        W36607  10.867  12.007   3.582 -0.0230  0.1016 -0.2201
19761W        W36608  16.286   4.765  14.714 -0.0504  0.0940  0.1564
19762W        W36609   9.764   7.656   4.270 -0.0150  0.3546 -0.3525
19763W        W36610   3.519  16.811  15.440 -0.2097 -0.1531 -0.3402
19764W        W36611  10.407   3.010  15.217 -0.0635  0.1176  0.2686
19765W        W36612   8.960   5.985  12.281 -0.0406 -0.0527 -0.0600
19766W        W36613   4.732  16.451   0.982 -0.1056  0.0304 -0.3242
19767W        W36614  17.067  16.622   9.624 -0.1757  0.0768 -0.1355
19768W        W36615   9.963   6.687   5.067  0.1146 -0.0617 -0.1566
19769W        W36616  15.363   4.305   5.485  0.2202  0.0311  0.2965
19770W        W36617  15.338  10.610  13.060  0.1665  0.0529  0.3075
19771W        W36618   1.596  17.884   3.809  0.0736  0.0273 -0.0859
19772W        W36619  15.354  18.201   1.897  0.3197 -0.1838  0.1412
19773W        W36620   9.180   4.296   0.742 -0.1141  0.1420  0.2144
19774W        W36621   6.274   4.111   0.504  0.1625  0.1881 -0.0319
19775W        W36622   7.187   6.008   1.574 -0.0960 -0.1337 -0.0319
19776W        W36623   0.218   1.251   4.072 -0.1575 -0.0688  0.1176
19777W        W36624  13.758  11.539  10.745 -0.2356 -0.1503  0.3135
19778W        W36625  16.828  12.012  11.802 -0.1855  0.1758  0.0428
19779W        W36626   6.495   1.800   2.631  0.1549  0.0360  0.1150
19780W        W36627   8.663   3.903   2.781  0.1688  0.4456 -0.2249
19781W        W36628  12.763   2.504   4.790 -0.1168  0.0760  0.1038
19782W        W36629   0.503   4.791   4.582 -0.0653  0.1507 -0.1278
19783W        W36630   3.694  14.532   0.496  0.2023 -0.0267  0.1526
19784W        W36631   9.692  18.477   5.636  0.1527 -0.0895  0.3096
19785W        W36632   6.816   6.918   5.368  0.0186 -0.0473  0.1631
19786W        W36633  16.303   0.461   3.618  0.0688 -0.0083 -0.1053
19787W        W36634  17.362  15.531   3.194 -0.0066 -0.2527 -0.1481
19788W        W36635   3.671  12.871   2.001 -0.1243 -0.4184  0.0009
19789W        W36636   6.886   9.285   3.054  0.0802  0.1847 -0.3770
19790W        W36637  18.680   1.774   0.385  0.1140  0.1825  0.0257
19791W        W36638   7.024   5.538   3.450  0.2625 -0.0157 -0.0681
19792W        W36639  16.333   8.743   1.825 -0.0956  0.1034  0.1774
19793W        W36640   5.472  17.150   4.305 -0.1845 -0.0304  0.0556
19794W        W36641   6.841   3.524   3.069  0.1251  0.2046 -0.0578
19795W        W36642  11.736  14.080   9.806  0.0994  0.2975 -0.0667
19796W        W36643   8.182   1.732   4.746 -0.2915 -0.0370 -0.2681
19797W        W36644  18.469  15.733  10.272 -0.1192  0.0947  0.1011
19798W        W36645   3.184  13.233  15.090 -0.4113 -0.1106  0.0010
19799W        W36646   3.214   6.320   0.234  0.0644  0.2452 -0.0291
19800W        W36647  12.934   3.551  12.100 -0.0088 -0.4722 -0.1714
19801W        W36648  15.593   3.409  12.539 -0.2578  0.2110 -0.0413
19802W        W36649  17.179   8.988  13.269 -0.1638  0.1858 -0.0430
19803W        W36650   3.846   7.983   4.761 -0.1369 -0.2604  0.0921
19804W        W36651  10.442   8.425   0.665 -0.1372  0.2480 -0.2513
19805W        W36652  16.254   3.356  12.755 -0.2227 -0.2900 -0.0211
19806W        W36653   7.555  17.952   3.369  0.0789 -0.4755  0.0688
19807W        W36654  10.968  12.924   2.599  0.1008  0.0506 -0.1125
19808W        W36655  18.789  12.492   2.722  0.0932 -0.1230 -0.2833
19809W        W36656  16.299  11.684   0.841  0.1719 -0.0458 -0.2833
19810W        W36657   2.061  13.977   3.651 -0.0625  0.0243 -0.0137
19811W        W36658  11.678  10.422  11.492 -0.2515  0.2227  0.1980
19812W        W36659   3.037   5.157   4.674 -0.0698 -0.3308  0.0665
19813W        W36660   2.167  12.937   4.205 -0.0033  0.0969 -0.3588
19814W        W36661   6.498  17.849   0.640  0.0788 -0.0381 -0.3095
19815W        W36662   6.216   6.536   0.979  0.0402 -0.1248 -0.0582
19816W        W36663   1.552  14.289   1.348 -0.3396 -0.1264 -0.0578
19817W        W36664   9.924   4.308   4.348 -0.0813  0.0669 -0.3569
19818W        W36665  13.115   5.871  12.878  0.2261  0.4064  0.0351
19819W        W36666   5.643   0.746  14.453 -0.1381  0.2770  0.1515
19820W        W36667   4.578  18.119   0.098 -0.0418 -0.0280  0.2698
19821W        W36668   3.287   8.457  12.011 -0.1308 -0.3164 -0.1493
19822W        W36669  10.455   0.152   3.173 -0.0005 -0.1824 -0.1815
19823W        W36670  15.289   4.695  13.742 -0.4916  0.1156  0.2488
19824W        W36671   1.989  17.211   0.843  0.1390  0.4091 -0.0908
19825W        W36672   4.261   5.437  11.984 -0.1569  0.0029 -0.2367
19826W        W36673   4.629  13.874   1.300  0.0046 -0.1184 -0.1462
19827W        W36674  11.760  14.517  11.571 -0.0219  0.4160  0.0415
19828W        W36675  14.296   7.283  14.368 -0.4378  0.1679  0.4650
19829W        W36676  13.247  11.956   2.044  0.2221  0.0756  0.2009
19830W        W36677   7.939  10.477   1.431  0.2271 -0.1250 -0.0736
19831W        W36678  13.767   4.750  12.423  0.0876  0.3763 -0.3072
19832W        W36679   9.120  12.098  14.112  0.0415  0.1142  0.0429
19833W        W36680   2.380  15.847   3.691 -0.1763  0.0143  0.3046
19834W        W36681  15.778  17.689   1.934  0.0084  0.0271 -0.1428
19835W        W36682   2.129   7.344   0.999 -0.2193  0.1083  0.0603
19836W        W36683  12.961  15.635   9.284 -0.1505 -0.1882 -0.3827
19837W        W36684   0.256   8.940   2.233 -0.1098 -0.2848 -0.1784
19838W        W36685   5.227  10.742   1.143  0.0537 -0.0690  0.4929
19839W        W36686  16.094  11.857   2.299  0.1199  0.3328 -0.0520
19840W        W36687   7.129   0.660   2.989 -0.0741 -0.1474 -0.1866
19841W        W36688  11.650   3.649  13.738 -0.3671 -0.0584 -0.1776
19842W        W36689   1.342  13.824  15.422  0.0756 -0.4307 -0.1397
19843W        W36690   4.884   6.936   0.445  0.3828 -0.0463  0.0746
19844W        W36691  10.827  15.968   1.819 -0.4299 -0.1763  0.0398
19845W        W36692  16.814   7.335  10.980  0.3417 -0.0840 -0.2681
19846W        W36693   0.755  10.921  12.358 -0.1970 -0.2101  0.3301
19847W        W36694   3.765   7.728   3.207  0.1518  0.0391  0.2450
19848W        W36695   6.897  16.123  13.970 -0.0452 -0.2291  0.2054
19849W        W36696  14.398  17.240  15.192  0.0876 -0.2052  0.0128
19850W        W36697   9.091  13.900   0.060  0.4174 -0.0349 -0.2644
19851W        W36698   8.983   0.086   4.548 -0.0733  0.1019  0.2069
19852W        W36699  14.377  14.537   3.984  0.0163 -0.1891 -0.1320
19853W        W36700  17.605  13.083   4.342  0.0315  0.1559 -0.2008
19854W        W36701  13.773   9.972  15.541 -0.2650  0.2686 -0.1600
19855W        W36702  17.680  13.687  11.479  0.1711 -0.0657  0.1596
19856W        W36703  17.402   4.956  13.747  0.0699  0.2062  0.0922
19857W        W36704  12.465   7.588  12.213 -0.2639  0.2125  0.1105
19858W        W36705   1.333  14.848  14.901 -0.2259 -0.1507 -0.0384
19859W        W36706   7.923   5.975  15.100 -0.0241  0.1029 -0.0037
19860W        W36707   9.096  14.309   5.633  0.0695 -0.2166  0.0702
19861W        W36708  11.276   8.733   0.706 -0.3907 -0.1373 -0.2817
19862W        W36709  10.972  15.354   1.002 -0.1434  0.0603  0.1537
19863W        W36710  10.187   4.104   1.560 -0.2110  0.1919  0.0200
19864W        W36711   1.796  13.267   4.087  0.0974 -0.0256  0.0418
19865W        W36712  17.476  13.823   9.932  0.0636  0.0862 -0.0612
19866W        W36713  17.727   5.980  10.982  0.2731  0.3160  0.1968
19867W        W36714  18.405  12.733  15.006 -0.1248 -0.0395 -0.0052
19868W        W36715   3.354  14.724  13.395 -0.0686 -0.0534  0.0376
19869W        W36716   6.178   3.845   0.092  0.2578 -0.2218  0.3598
19870W        W36717   6.658  17.567   3.098  0.1881 -0.0753  0.2938
19871W        W36718  12.873  11.080  11.568 -0.1315  0.2614  0.0349
19872W        W36719   1.372   6.056  11.008 -0.0536 -0.2705  0.0621
19873W        W36720  11.003  13.072  11.688  0.1421  0.1661 -0.0769
19874W        W36721  18.302   0.688   1.805  0.1187 -0.0275 -0.1100
19875W        W36722  10.560  12.564  12.982  0.2300  0.1905 -0.1705
19876W        W36723  13.229  16.176  11.531  0.1275 -0.1304 -0.1780
19877W        W36724  15.566  12.145   5.237  0.2946 -0.1485 -0.1432
19878W        W36725   9.981   2.274  14.424  0.0989 -0.0071 -0.1471
19879W        W36726  11.709   1.321   4.083  0.0077  0.4252 -0.2582
19880W        W36727  17.785  13.455  14.632 -0.0408 -0.1362 -0.2953
19881W        W36728   2.377  18.299   2.924  0.2551 -0.2081  0.1279
19882W        W36729   0.203  15.579  14.758 -0.2012 -0.3365  0.0159
19883W        W36730   6.393  16.014   2.963 -0.2425  0.0648  0.0934
19884W        W36731   2.324   4.051   0.735  0.1181 -0.2240 -0.0258
19885W        W36732   9.049  14.523  14.678  0.0297 -0.2259  0.0052
19886W        W36733  16.181   1.310   2.780  0.0558 -0.0593  0.0987
19887W        W36734   8.029  16.890   0.198  0.0621  0.0666  0.1118
19888W        W36735  10.887   4.313  11.841  0.2229 -0.0126 -0.1636
19889W        W36736  13.589  18.695   4.705  0.1988 -0.0567 -0.3359
19890W        W36737  12.605   6.799   1.406  0.1175 -0.1360 -0.1135
19891W        W36738  15.104   7.424   1.943  0.1754 -0.0834  0.1332
19892W        W36739   3.860  11.112   4.251 -0.2796  0.0167 -0.2903
19893W        W36740   9.687   7.052  12.459 -0.1976  0.0819  0.1099
19894W        W36741  17.035  16.115   2.945  0.1899  0.1919  0.1094
19895W        W36742  15.431  11.107   1.836  0.1014  0.2013  0.1520
19896W        W36743   1.114   4.695   5.243  0.1583 -0.0001 -0.1287
19897W        W36744   6.972  11.650   1.707 -0.0692  0.0183  0.1951
19898W        W36745  11.331   4.701   1.232  0.1367  0.1879 -0.1463
19899W        W36746  13.084   1.713   2.844  0.1130 -0.4146 -0.0394
19900W        W36747   5.913  12.631  14.018 -0.1365  0.1386 -0.4246
19901W        W36748   0.156  11.729  14.603  0.1723  0.0327  0.1487
19902W        W36749   5.024   2.967   2.931 -0.1050 -0.1992  0.1860
19903W        W36750  15.186   1.973  14.102  0.1298 -0.0902 -0.0115
19904W        W36751   1.391   2.599   2.976  0.1153  0.0295 -0.0606
19905W        W36752   8.528   9.089  12.517 -0.2348 -0.0090 -0.2040
19906W        W36753  17.287  10.855   3.155  0.1507 -0.1292  0.1002
19907W        W36754   2.284   9.373   2.098 -0.1376 -0.4287 -0.2292
19908W        W36755  13.670   5.241  12.253  0.0160 -0.0948 -0.1081
19909W        W36756   9.737   6.464   3.689 -0.1255 -0.1945  0.1379
19910W        W36757  10.447  14.387  13.871  0.1653 -0.2208 -0.1557
19911W        W36758  10.196   5.811   5.509 -0.0542 -0.0704  0.1077
19912W        W36759   5.819  17.552   4.436  0.2821  0.0202 -0.0941
19913W        W36760  12.972  14.014   0.507  0.1838  0.0018 -0.3833
19914W        W36761  16.146  18.124   2.395 -0.1416 -0.3012  0.1268
19915W        W36762  13.355   6.372   1.902  0.3151  0.2071  0.0584
19916W        W36763  15.192   2.599  11.512  0.1135  0.0662  0.1279
19917W        W36764   9.317  17.728   3.335  0.0871  0.1785  0.1505
19918W        W36765  18.775   6.399   4.759  0.1263  0.2242  0.0383
19919W        W36766  17.010   8.211  15.471  0.3580 -0.3758 -0.6137
19920W        W36767   4.183  17.350   2.433  0.1387 -0.0729  0.0328
19921W        W36768  16.430  15.128   1.672 -0.1939 -0.0297 -0.0284
19922W        W36769   1.399   5.475   1.562 -0.1060 -0.0989  0.0749
19923W        W36770   7.040   8.105   2.174  0.1351 -0.0842  0.2631
19924W        W36771   3.793   2.016  11.392 -0.2066 -0.1157 -0.1667
19925W        W36772   4.924   4.877   0.304 -0.3185  0.0749  0.0814
19926W        W36773   1.542  10.790   2.023 -0.2806 -0.0110  0.0101
19927W        W36774  18.309   0.414   2.205  0.3364  0.0644  0.0483
19928W        W36775   6.681  17.076  12.430 -0.0132  0.2826  0.1230
19929W        W36776   2.019   1.464   4.251 -0.4389 -0.1617  0.0142
19930W        W36777  10.232   6.323  10.711  0.2072  0.0071  0.0159
19931W        W36778  17.786   1.774  14.897  0.2123  0.1281  0.2965
19932W        W36779   1.992  13.249  14.091 -0.1001  0.0831 -0.2216
19933W        W36780   8.671  14.684   2.272  0.2177  0.1971  0.0077
19934W        W36781   4.657   4.945  12.491 -0.0840 -0.0776 -0.0505
19935W        W36782  18.826  12.038   0.468  0.0333  0.1409  0.3196
19936W        W36783   9.116  18.080  14.457  0.1860 -0.2461 -0.0355
19937W        W36784  15.605   5.188  14.988 -0.0230 -0.0221  0.0710
19938W        W36785  16.635   2.069  14.374 -0.2433 -0.0710  0.1185
19939W        W36786  18.110   9.028  14.363 -0.2418  0.0031  0.4702
19940W        W36787  12.367   1.000  14.054 -0.1982  0.2917  0.2103
19941W        W36788   9.957   8.744   4.885 -0.0346  0.2809  0.0941
19942W        W36789   4.968   5.931  15.360  0.1160  0.1287  0.0969
19943W        W36790   6.998  17.647   0.749  0.0613 -0.0047 -0.1557
19944W        W36791  11.881  18.726   1.394  0.0284 -0.2111 -0.1464
19945W        W36792   4.701   5.682  13.361 -0.2788  0.1778 -0.0405
19946W        W36793   7.602   9.273   4.066  0.1204  0.2418 -0.1986
19947W        W36794  15.062   8.886  14.704  0.1377  0.0456 -0.2529
19948W        W36795   7.449  13.479  12.849 -0.0869  0.1066  0.1301
19949W        W36796  16.936  13.358   1.591 -0.0467  0.1201  0.4802
19950W        W36797  11.392  15.818   4.474 -0.1285  0.2193  0.0430
19951W        W36798   3.480   2.759   0.288  0.1952  0.0535 -0.0769
19952W        W36799  15.571  15.313  11.190  0.1307 -0.0515  0.0031
19953W        W36800  12.748   3.724   2.786  0.1830 -0.0067  0.1392
19954W        W36801   1.044   8.202   2.914 -0.1533  0.0847  0.0064
19955W        W36802   0.056  17.334   4.906  0.2767 -0.5272 -0.0450
19956W        W36803  18.551   0.450  11.242 -0.0530 -0.3835 -0.2686
19957W        W36804   8.597  10.298   0.405 -0.3136  0.2745  0.1071
19958W        W36805   3.666  17.709   0.442  0.1034  0.1520  0.0315
19959W        W36806   5.197   6.195  11.623  0.0226 -0.0055 -0.2071
19960W        W36807  13.141  13.123   5.625 -0.0365  0.0249  0.2207
19961W        W36808   6.291  17.766   1.453  0.2887 -0.1649  0.0013
19962W        W36809  15.480  15.385   1.065 -0.2445  0.1527  0.2697
19963W        W36810  16.156   3.964  15.020  0.1772  0.1135  0.1296
19964W        W36811   6.515  17.680  14.240 -0.0455  0.1095 -0.0982
19965W        W36812   0.532   4.864  14.671 -0.2497  0.0312  0.0113
19966W        W36813  17.524  10.008  11.868  0.2069  0.0515  0.1038
19967W        W36814  12.499  16.094   2.587  0.1213 -0.0773  0.0724
19968W        W36815  11.897   5.979   4.047 -0.0880 -0.0588  0.1543
19969W        W36816  10.740  15.662  10.520 -0.1074 -0.1970  0.1424
19970W        W36817  17.770  10.686   3.903  0.0312 -0.2866  0.0031
19971W        W36818   2.656   7.327   2.808  0.0643 -0.1929 -0.2979
19972W        W36819  16.401  18.452   3.936 -0.0620 -0.2655 -0.0581
19973W        W36820  15.376  11.959   0.716 -0.1732 -0.3710  0.0365
19974W        W36821   7.676   4.321   3.395 -0.3119 -0.1968  0.0325
19975W        W36822  15.864   2.184   3.075 -0.0753 -0.0469 -0.2560
19976W        W36823   4.282   4.129   2.799  0.0973 -0.1018 -0.0115
19977W        W36824  12.498   5.215  11.326  0.1049  0.2044  0.0114
19978W        W36825   0.026   5.611  13.705  0.2649 -0.0424 -0.2953
19979W        W36826  14.767  14.489  14.565  0.0804  0.1343 -0.3409
19980W        W36827   4.565  17.957   0.574  0.1663  0.1638 -0.2160
19981W        W36828  16.998   8.076  12.267 -0.1257  0.1875  0.1546
19982W        W36829  11.001   7.146  13.426 -0.1987 -0.3215 -0.0280
19983W        W36830  16.587  16.538   1.741 -0.0163  0.0389 -0.1452
19984W        W36831  17.504  16.852  12.139  0.2630  0.0517 -0.0014
19985W        W36832   6.663   7.413   5.847 -0.1942 -0.3611  0.1894
19986W        W36833   6.025  12.258   4.198  0.0984 -0.1021 -0.0076
19987W        W36834  11.524   0.888   5.385 -0.0520  0.0264 -0.0064
19988W        W36835  12.559  13.410   0.863 -0.4523 -0.0722  0.1166
19989W        W36836  17.151  10.881  14.269 -0.0244 -0.1248 -0.2567
19990W        W36837   5.592   9.245   4.018 -0.1233 -0.0423 -0.1448
19991W        W36838   5.960  11.298   1.756 -0.0585 -0.0391  0.3981
19992W        W36839  16.014  18.638   2.615  0.3701 -0.1813 -0.1377
19993W        W36840   2.467  12.755   0.008 -0.0158  0.0025 -0.1205
19994W        W36841  18.716   0.963  12.334  0.0386 -0.3530 -0.0004
19995W        W36842   9.157  12.513  11.637  0.0951 -0.2358 -0.4134
19996W        W36843   9.819   4.789  12.560  0.0207  0.0057 -0.3493
19997W        W36844  17.425   9.139   2.004 -0.0338  0.4460  0.1520
19998W        W36845  15.205   3.009   2.398 -0.1047 -0.2341  0.2671
19999W        W36846  13.793  13.192   1.146  0.0545  0.1054 -0.1092
20000W        W36847  12.218  18.486  14.585  0.1402 -0.2232 -0.1198
20001W        W36848  10.184  10.611  13.445 -0.0332 -0.2044  0.0038
20002W        W36849  13.709   8.566  14.642 -0.1059  0.0355 -0.1505
20003W        W36850   8.195  14.309   4.788  0.0215 -0.0188  0.0290
20004W        W36851  10.536  15.252   5.267  0.0701 -0.1821  0.0521
20005W        W36852   6.334   8.489   2.684 -0.0349 -0.0299 -0.1071
20006W        W36853  10.421   2.164  13.287  0.0572  0.0003  0.2943
20007W        W36854  15.740  15.898   3.036 -0.3776  0.1714  0.1774
20008W        W36855  12.833   0.059  11.066  0.0726 -0.3009 -0.0477
20009W        W36856   3.338  17.743   0.055 -0.1543  0.0595 -0.2474
20010W        W36857  12.002   6.279  15.487 -0.1254  0.1988 -0.1930
20011W        W36858   7.387   5.917  15.280 -0.0939 -0.0590  0.1526
20012W        W36859   4.646   4.957   3.890 -0.1003  0.0323 -0.2079
20013W        W36860   5.188  17.561  13.860  0.1430  0.1778  0.1418
20014W        W36861   6.434   7.868  15.273 -0.1177 -0.0228 -0.0747
20015W        W36862  13.813   2.334   5.033 -0.1703 -0.4565  0.2518
20016W        W36863  15.113   3.905  12.187 -0.1935  0.3042  0.2498
20017W        W36864   8.030   9.537   3.984  0.0617  0.1124 -0.0376
20018W        W36865   8.194   3.849   0.418 -0.1129  0.3512 -0.0337
20019W        W36866  13.704   3.477  12.935  0.2266  0.0686 -0.5815
20020W        W36867   7.383  12.017  13.597 -0.1636 -0.0453  0.1189
20021W        W36868   2.891   4.574  13.192  0.0471 -0.0402  0.2100
20022W        W36869   1.538  12.649   1.710 -0.2747 -0.1432  0.3298
20023W        W36870  11.914  14.796  13.254  0.2729 -0.2199  0.3775
20024W        W36871   1.240   9.857   3.045  0.4220 -0.0489 -0.0577
20025W        W36872   5.332   2.285   3.807 -0.0277  0.2537  0.1877
20026W        W36873  11.212   4.555  11.393 -0.0341 -0.2412  0.0014
20027W        W36874   6.883   4.783  15.528 -0.2486  0.3264 -0.1243
20028W        W36875   5.657   4.859  14.072 -0.1963  0.2723 -0.1890
20029W        W36876  13.757   2.402  13.904  0.0017  0.0182 -0.1294
20030W        W36877   8.955   5.555   5.142  0.1692 -0.1092 -0.1361
20031W        W36878  13.694  18.304   0.813 -0.1424 -0.1132  0.1469
20032W        W36879   7.561   8.143   3.540 -0.2832 -0.2010  0.2103
20033W        W36880  15.607   8.560  14.342  0.3973 -0.1564 -0.0975
20034W        W36881  15.289   9.988   4.843  0.0805  0.1456 -0.0588
20035W        W36882   2.420   7.935  11.904  0.1121  0.0200  0.0397
20036W        W36883  18.792  11.292   2.587 -0.1791  0.1465  0.1828
20037W        W36884   2.271  13.178   1.664 -0.1323 -0.2013  0.1503
20038W        W36885   5.806  10.678   3.039 -0.0087  0.0180 -0.0519
20039W        W36886   5.171   8.367  11.984  0.0533 -0.1876 -0.1745
20040W        W36887  15.147  14.864   3.466  0.1340 -0.0639 -0.0551
20041W        W36888   2.847  16.660  13.475 -0.0501  0.4518  0.1201
20042W        W36889  13.253   0.531  14.447 -0.1555  0.4077  0.0032
20043W        W36890  10.418  13.393   2.135  0.1992  0.4126  0.2694
20044W        W36891   4.234   4.173  12.950 -0.2445 -0.0052  0.0983
20045W        W36892   8.115  10.376   0.161 -0.0828 -0.1211  0.0750
20046W        W36893  17.936   0.091  13.830 -0.0953  0.0339  0.0309
20047W        W36894   4.829  10.803   5.473 -0.2025  0.2292 -0.2076
20048W        W36895   0.116   4.447   1.726  0.0368 -0.0178  0.3630
20049W        W36896  17.950  10.773  11.409  0.2468 -0.0033  0.2818
20050W        W36897   2.017  11.835  13.597  0.0805 -0.0735 -0.0790
20051W        W36898  10.795  16.397   1.516 -0.1039  0.1737  0.0386
20052W        W36899  13.957   2.817  15.271  0.0099 -0.0565 -0.1189
20053W        W36900   4.508  17.870   1.088  0.2787 -0.1592  0.0023
20054W        W36901  18.035   6.844  12.183 -0.1339  0.2919 -0.0399
20055W        W36902   3.711  18.108   0.860  0.0628  0.0506  0.1258
20056W        W36903  10.914   9.209  15.446  0.0671 -0.0081  0.0603
20057W        W36904   9.696  15.671   2.093 -0.2832  0.0788 -0.1237
20058W        W36905   0.477  14.540  14.152  0.0049 -0.0266 -0.1047
20059W        W36906   8.450   9.878   3.873  0.0050 -0.3753 -0.1412
20060W        W36907   1.393  13.790  12.891 -0.2943  0.5235  0.0409
20061W        W36908   0.546   3.804  14.403 -0.1829 -0.1442 -0.3037
20062W        W36909   6.480  12.663  15.496 -0.0278  0.1692 -0.1876
20063W        W36910   2.837  12.196  12.138  0.0584  0.2377 -0.0193
20064W        W36911   9.213   1.273   1.318 -0.0462  0.1096 -0.1295
20065W        W36912   5.272   2.768   3.334  0.0096 -0.0395  0.0766
20066W        W36913   4.778   7.251  12.020 -0.0342 -0.1283  0.1169
20067W        W36914   9.627   7.806  13.962 -0.1258  0.2748 -0.0034
20068W        W36915  10.587  16.836   0.661 -0.1300 -0.3322  0.0899
20069W        W36916   6.950  14.551  13.816 -0.0381 -0.1753  0.0356
20070W        W36917  10.000   5.940  11.864  0.1999 -0.2432 -0.1007
20071W        W36918  15.644   3.729   4.853  0.3297  0.2148  0.0430
20072W        W36919   8.510  13.127   3.828  0.1855  0.2874  0.0826
20073W        W36920   8.727  16.491  12.825 -0.4649 -0.0303  0.4021
20074W        W36921   6.045  13.880   2.066 -0.1551 -0.1576  0.0600
20075W        W36922   6.634   9.509   2.627 -0.0934 -0.0135  0.1690
20076W        W36923   7.369   9.741   0.705  0.1498  0.3160 -0.1899
20077W        W36924   3.408  17.030   1.665  0.0968 -0.0989 -0.2342
20078W        W36925   8.597   8.521   0.947  0.0506  0.0504 -0.1401
20079W        W36926   9.432  16.941  12.842  0.0441  0.2509 -0.0967
20080W        W36927  17.976  16.351   0.248 -0.2313 -0.1927 -0.0724
20081W        W36928   8.989   3.044   3.159  0.5852 -0.2301 -0.4863
20082W        W36929   1.314   5.066   4.116  0.0595 -0.1812  0.0455
20083W        W36930   0.934  17.841   1.311 -0.0150  0.3413 -0.3100
20084W        W36931  10.458   6.871  11.888 -0.1273 -0.0767 -0.2629
20085W        W36932   5.662   9.634  11.358  0.1013  0.2820  0.0977
20086W        W36933  13.184   1.874   1.796  0.0625 -0.0731  0.1122
20087W        W36934  11.326  15.086   0.008  0.3421  0.1280 -0.2217
20088W        W36935   3.766  12.036   3.883 -0.1166  0.1137  0.2395
20089W        W36936   8.879   6.784   3.571  0.0783  0.1675  0.1839
20090W        W36937  14.467   2.286   0.407  0.0214  0.3069  0.3554
20091W        W36938  12.207   3.712  14.609 -0.3222 -0.1130  0.0599
20092W        W36939   3.350  13.648  12.906 -0.2723  0.1898  0.1087
20093W        W36940   8.338   2.291   5.408  0.0756  0.1380  0.0478
20094W        W36941  15.086   0.515   3.192  0.1413  0.3143 -0.1567
20095W        W36942  11.596   6.327  13.507  0.3107  0.0879 -0.0192
20096W        W36943  18.240   3.819   0.726 -0.0154  0.2099  0.0191
20097W        W36944  13.251   5.509  14.224 -0.0526 -0.0445  0.1507
20098W        W36945   0.068   4.893  14.352  0.2596 -0.0544 -0.2574
20099W        W36946   1.802  16.590  15.044  0.0242  0.2173 -0.1048
20100W        W36947  12.593  10.733  15.018  0.0859 -0.1463 -0.0777
20101W        W36948  16.953  17.163   4.544  0.1210  0.1776 -0.1594
20102W        W36949  11.985   2.790  12.172 -0.1913 -0.0260  0.0641
20103W        W36950   9.756   4.821  11.353 -0.3246  0.3730 -0.0791
20104W        W36951  17.061  16.350  10.738  0.0763 -0.2453  0.2386
20105W        W36952  18.397   9.898   5.257  0.0433 -0.1903 -0.2089
20106W        W36953   5.373  16.842  13.556  0.0008  0.2291 -0.1330
20107W        W36954  10.518   4.582  14.252  0.2283 -0.1104  0.0938
20108W        W36955  13.772   0.815   2.729  0.0357  0.0197 -0.4448
20109W        W36956   5.423   6.350   5.649 -0.4094  0.2035 -0.0149
20110W        W36957   6.247  11.365   5.406  0.0630 -0.0476  0.0395
20111W        W36958  17.867   9.914  14.715  0.2491 -0.0565  0.2944
20112W        W36959   0.262   0.069  14.845  0.0172  0.1481 -0.1161
20113W        W36960   8.683   1.792   0.793 -0.3790  0.2031 -0.2474
20114W        W36961  16.951  18.571   9.579  0.0585  0.1281 -0.0278
20115W        W36962  12.671   8.973   4.671 -0.0513  0.0395 -0.2207
20116W        W36963  17.208   8.283  11.039 -0.0434  0.2227 -0.1062
20117W        W36964   1.573  10.176  10.949  0.0988 -0.0279  0.3352
20118W        W36965   0.211  13.730   1.799 -0.0591 -0.1594 -0.2123
20119W        W36966  12.243   9.185  10.331 -0.1524 -0.2985 -0.1912
20120W        W36967  13.076  10.573   1.317 -0.0224 -0.1554 -0.2094
20121W        W36968  13.906   5.548  12.579  0.2728 -0.2220 -0.0899
20122W        W36969  11.217  18.478  12.571  0.0474 -0.1751  0.3275
20123W        W36970   8.178  16.045  10.796  0.1566  0.2748 -0.0282
20124W        W36971   6.028  10.247  14.018  0.0785 -0.1432 -0.0936
20125W        W36972   1.238   4.507   1.925 -0.2416 -0.0104 -0.2370
20126W        W36973   9.936  17.093   4.037  0.0731  0.1099  0.2808
20127W        W36974  16.223   6.406  13.509  0.2982  0.0205  0.1675
20128W        W36975  12.490  15.843  10.529  0.4535  0.2248  0.1535
20129W        W36976  12.484  11.515  14.474  0.0300  0.0353  0.0137
20130W        W36977   8.512  15.178  12.937  0.0097 -0.1329  0.0006
20131W        W36978   1.004   5.155  14.112 -0.1342 -0.0390  0.0252
20132W        W36979   7.573  18.844  12.878 -0.1147 -0.0391 -0.1188
20133W        W36980  17.794   0.482  11.451  0.1299 -0.2640  0.3251
20134W        W36981  18.108  14.227  12.747 -0.2997 -0.1673  0.2145
20135W        W36982  11.940   2.485   1.165 -0.3574 -0.3784  0.2170
20136W        W36983   8.672   6.820   1.415 -0.0748 -0.1774 -0.0601
20137W        W36984   7.791  13.894   2.196 -0.1953 -0.1046  0.3566
20138W        W36985   0.819  16.906  12.191  0.1708 -0.0647  0.0640
20139W        W36986  17.084  13.120   3.709  0.0372  0.0090  0.0230
20140W        W36987  12.024  16.365   1.491  0.3002 -0.1989 -0.2200
20141W        W36988  17.013   7.549  12.945 -0.0536  0.0260  0.3229
20142W        W36989  17.906  15.578  12.206 -0.1448  0.4254 -0.1749
20143W        W36990  16.051  16.148   4.314  0.1350 -0.2848  0.2750
20144W        W36991   9.100  18.768   0.136  0.2058 -0.1122 -0.0996
20145W        W36992   4.784   1.585  12.548 -0.0008 -0.0757  0.2093
20146W        W36993   3.689   0.628   0.231  0.1271 -0.0093 -0.0934
20147W        W36994   6.783   0.794   2.599 -0.0844 -0.1490 -0.1493
20148W        W36995   8.455  15.103   4.697 -0.2036 -0.3154  0.0343
20149W        W36996   1.950   9.060   3.161  0.0822  0.1157 -0.2502
20150W        W36997  15.535   4.935   0.938 -0.0943 -0.1422 -0.2071
20151W        W36998   4.352   4.311  15.496 -0.0797  0.2148 -0.0128
20152W        W36999  18.387   0.941   3.189 -0.5086 -0.1250  0.0903
20153W        W37000  10.082   9.306   4.801 -0.1067  0.0961  0.0013
20154W        W37001  16.866   3.515  11.499 -0.0158 -0.2135  0.0562
20155W        W37002   7.659  18.622   5.115 -0.2504 -0.0797  0.0833
20156W        W37003   0.272  15.704  11.821 -0.2316 -0.0865  0.0145
20157W        W37004   9.598   1.961   5.561 -0.1136 -0.0918 -0.0295
20158W        W37005  10.421   7.613  12.530 -0.1908  0.2130  0.2106
20159W        W37006  11.554   9.974  11.695  0.1588  0.0735 -0.0156
20160W        W37007   1.796   7.791   0.254 -0.4268  0.0944  0.3472
20161W        W37008  16.491  17.677  12.987 -0.2384  0.1308 -0.2812
20162W        W37009   2.886   6.511   2.761 -0.3109  0.2816  0.3114
20163W        W37010  16.100  18.197   3.593 -0.1637 -0.0324 -0.2977
20164W        W37011  12.779  17.855   3.907 -0.0892  0.2383 -0.0533
20165W        W37012  16.308   9.957   3.726  0.0778 -0.0997 -0.0835
20166W        W37013   8.913   3.366   1.891  0.0012  0.2735 -0.1192
20167W        W37014  11.831   6.228   2.769  0.0583 -0.2105  0.2061
20168W        W37015   0.451   9.119  11.047 -0.2313  0.2614  0.0642
20169W        W37016   9.551  13.191   3.779 -0.0196  0.0338  0.1328
20170W        W37017  10.447  12.572  12.221  0.0917 -0.1573 -0.0465
20171W        W37018   9.668  11.332  14.933 -0.2778  0.1149  0.1201
20172W        W37019   9.743   8.568  11.458  0.0057 -0.2204  0.2889
20173W        W37020  17.818  11.562   5.424  0.2988  0.0811  0.1356
20174W        W37021  11.809  14.840  11.927  0.1180  0.0091 -0.0913
20175W        W37022   0.025  13.767   5.601  0.0465 -0.1447  0.2030
20176W        W37023   1.292   2.108  12.974 -0.0350  0.2998  0.0697
20177W        W37024   7.386  14.690   2.193 -0.1117  0.0343  0.1000
20178W        W37025  10.903   9.471   5.032  0.1482  0.1214 -0.1391
20179W        W37026   6.377  10.689   4.269 -0.1339  0.4130 -0.0109
20180W        W37027  16.760   2.379   1.782 -0.1160  0.0601 -0.1051
20181W        W37028  13.165  18.283  13.702  0.1259  0.0335 -0.0781
20182W        W37029   1.285   4.076  15.108  0.3199 -0.2115  0.0927
20183W        W37030   1.511   7.302   4.806  0.2402 -0.1788  0.0007
20184W        W37031  14.852  13.627   2.958  0.1629 -0.1472  0.0422
20185W        W37032  17.692   1.469   5.298 -0.2435  0.1484  0.2466
20186W        W37033  16.565  14.014  13.891  0.0178 -0.0767  0.0295
20187W        W37034   6.652  15.430  13.786  0.0834 -0.1091  0.0877
20188W        W37035  12.102  10.688   1.036  0.1446 -0.3566  0.0086
20189W        W37036  11.060   4.024   2.628  0.4172 -0.3809 -0.1468
20190W        W37037   9.197   4.256  13.447 -0.1802 -0.1955 -0.0368
20191W        W37038   0.837   3.572   4.096 -0.1068  0.1161 -0.0854
20192W        W37039  17.352  14.169  13.932  0.1039  0.1662  0.2077
20193W        W37040  11.674  12.778  14.286 -0.0116  0.1425  0.1051
20194W        W37041   4.248   5.331  11.114 -0.2269 -0.0835 -0.0117
20195W        W37042   4.309  18.809   1.745  0.0919  0.0619 -0.0197
20196W        W37043  18.735  15.036   2.501  0.0251 -0.1297  0.2728
20197W        W37044   2.603   3.567   0.836  0.3270  0.1538 -0.5362
20198W        W37045   1.381  16.950  10.495  0.0422 -0.0113 -0.0422
20199W        W37046  17.703   3.003  14.206 -0.2272  0.1153 -0.1361
20200W        W37047  12.257   8.970   0.711 -0.2514  0.3552 -0.0245
20201W        W37048  17.894   0.788   2.138 -0.1763  0.0930 -0.2346
20202W        W37049   8.424  13.016  13.212  0.4181  0.1739 -0.0705
20203W        W37050  10.183  11.969  13.073 -0.1523  0.2615 -0.3866
20204W        W37051   8.104   2.320  11.910 -0.0419 -0.0876 -0.3832
20205W        W37052  17.650   4.614  15.140 -0.0902 -0.0220 -0.3587
20206W        W37053  15.479  16.096  11.509 -0.0323  0.6117  0.3106
20207W        W37054  10.282  10.246  14.096 -0.1288 -0.2492 -0.1571
20208W        W37055  10.974  15.630  15.209 -0.1123 -0.0306 -0.1695
20209W        W37056  16.329   8.397   4.724 -0.4650  0.1265 -0.1724
20210W        W37057   2.295   4.013   3.503  0.0975  0.1287 -0.0929
20211W        W37058   3.920  17.886   3.674 -0.0089  0.2844  0.1133
20212W        W37059   9.292   0.742  14.011  0.1735  0.5067  0.1049
20213W        W37060   6.809  10.432  10.868 -0.0483  0.0755  0.0467
20214W        W37061  14.663   9.229  14.641  0.1594  0.4076 -0.3949
20215W        W37062   2.152   7.277  11.678 -0.1307  0.0477  0.2451
20216W        W37063  15.565   3.354   5.787  0.0132 -0.0528  0.1510
20217W        W37064  18.699  17.680   0.983  0.3253  0.3765  0.0427
20218W        W37065  14.022   4.788   1.825  0.2536 -0.0019  0.2302
20219W        W37066  10.329   0.234  13.763 -0.0357 -0.0338 -0.1398
20220W        W37067  10.877  12.492  12.575 -0.1445  0.3360 -0.0517
20221W        W37068  14.980  16.022  10.121  0.1157 -0.0063  0.1124
20222W        W37069   9.158   0.420  14.435  0.4613  0.1029 -0.2548
20223W        W37070  16.768   8.632   4.962  0.2319  0.1778 -0.1439
20224W        W37071   1.668   3.489  11.965  0.0134  0.1421 -0.1108
20225W        W37072   4.852   2.875   5.557  0.0801  0.1048 -0.1830
20226W        W37073  13.808   2.135   3.032  0.1675 -0.1379  0.1270
20227W        W37074   4.997  15.063   3.674 -0.0752 -0.0277 -0.0678
20228W        W37075   9.844  14.802   5.015  0.0165 -0.2584 -0.1948
20229W        W37076   1.892   1.067  14.146 -0.0060 -0.0727  0.0094
20230W        W37077   5.680  18.749   3.808 -0.2883 -0.0045 -0.1459
20231W        W37078  17.952  14.879  13.542 -0.2651  0.0135 -0.2690
20232W        W37079   3.525   9.974  12.411  0.0317  0.1599  0.1948
20233W        W37080  18.113   5.340  15.214 -0.1347  0.0843 -0.1273
20234W        W37081   9.182   7.585   1.397  0.3467  0.4175  0.1485
20235W        W37082  16.168   6.512  12.142  0.0669  0.0895  0.0305
20236W        W37083   7.693  15.052   4.010 -0.2093 -0.3701 -0.0576
20237W        W37084   1.721   5.022  13.401 -0.1680 -0.0157  0.0673
20238W        W37085   7.777   3.960  13.902  0.0009 -0.0292 -0.1804
20239W        W37086  17.136   1.603   0.073  0.3358 -0.0611 -0.1359
20240W        W37087   6.032  11.459  12.440 -0.1244 -0.1736  0.1220
20241W        W37088  17.582   6.402  11.335 -0.2195 -0.1159  0.1099
20242W        W37089  17.219   1.500   5.129 -0.1289  0.2918 -0.1242
20243W        W37090  10.024  12.860   1.579  0.2877 -0.0561  0.1306
20244W        W37091   6.969  12.565  12.091 -0.3181 -0.0367  0.2306
20245W        W37092  11.190   1.013   2.707 -0.1212 -0.0365  0.2915
20246W        W37093  14.515   2.932  13.897 -0.0471 -0.3293 -0.3136
20247W        W37094   7.774   4.578  13.015  0.2831  0.2214  0.3791
20248W        W37095   4.288  11.797   2.605  0.2109 -0.0914 -0.1213
20249W        W37096  18.129  12.373  15.238  0.1665  0.1567  0.1749
20250W        W37097  16.735  16.007  11.045 -0.0204  0.0145  0.2836
20251W        W37098  18.792   4.136  13.614 -0.1620  0.0649  0.1495
20252W        W37099  10.612  15.584   2.557  0.1896  0.0389  0.0547
20253W        W37100   6.602  11.369   1.427  0.1043  0.1962  0.0906
20254W        W37101   2.809  10.721   0.392  0.3826 -0.0001 -0.0573
20255W        W37102  12.609   8.320   4.195  0.0184  0.0058  0.0542
20256W        W37103  11.092  12.802   3.510  0.1480 -0.1787 -0.0217
20257W        W37104  14.177  18.699  11.708  0.1083  0.1532  0.2220
20258W        W37105  16.625  15.857   3.073  0.0800  0.3200 -0.1584
20259W        W37106  10.325   3.468  15.076  0.1603  0.2068 -0.0491
20260W        W37107  16.732   4.258  11.089 -0.2015  0.1729  0.0129
20261W        W37108   2.173   9.095  11.459  0.1708  0.0996  0.1287
20262W        W37109  11.934   3.960  14.978 -0.0117  0.0847 -0.0709
20263W        W37110   0.179  14.269  14.558  0.1629  0.0686  0.0589
20264W        W37111   9.943  17.658  11.612  0.2014  0.1041  0.0161
20265W        W37112   6.005  17.382  13.922  0.0616 -0.4135  0.1352
20266W        W37113   5.620   4.749   2.148 -0.0175 -0.1750  0.3193
20267W        W37114  16.310  13.247   4.229  0.3086 -0.1206  0.3044
20268W        W37115   4.644   3.673   2.115  0.2726 -0.3384  0.3160
20269W        W37116  10.944   4.198   1.430 -0.0345 -0.0221  0.1931
20270W        W37117   0.302   7.155  12.236  0.0143  0.1768  0.0553
20271W        W37118   1.874   8.995  11.881  0.2071  0.0165 -0.2994
20272W        W37119   6.007  15.236   3.787  0.0725 -0.1748  0.4220
20273W        W37120   6.120  18.720   0.553  0.2328 -0.0455  0.0446
20274W        W37121  12.518  17.083  13.597 -0.1219  0.0504  0.0995
20275W        W37122  10.891   2.307   2.361 -0.0593 -0.1084  0.3294
20276W        W37123  14.368  17.881   2.254  0.3769 -0.1531  0.1970
20277W        W37124   2.962   7.094   4.579 -0.1550  0.1640  0.4215
20278W        W37125  10.537  10.568   3.380 -0.0178  0.1628 -0.2192
20279W        W37126   4.378   4.827   0.903  0.2002  0.0866  0.0227
20280W        W37127   8.451   6.452  11.034  0.2694  0.0242 -0.0020
20281W        W37128   5.886  13.707  11.417 -0.1465 -0.0084  0.1161
20282W        W37129   3.949  17.255  12.374 -0.0358 -0.0563 -0.1972
20283W        W37130   4.521  12.730  12.028 -0.0717 -0.2216 -0.2392
20284W        W37131  14.945  16.626   3.822  0.0950  0.1678 -0.1136
20285W        W37132   0.996  11.275   3.329 -0.0937  0.1274  0.3739
20286W        W37133   8.004   9.865   2.065 -0.0794 -0.0991 -0.1209
20287W        W37134   5.035   1.330  15.015 -0.0857  0.1789 -0.0317
20288W        W37135  13.061   4.935  14.274 -0.1805  0.1756  0.1556
20289W        W37136   1.180  14.439   2.521  0.0299  0.2887 -0.0752
20290W        W37137  16.575  16.654   2.350  0.1917  0.0827  0.0207
20291W        W37138   4.281  17.111  12.720 -0.0794 -0.2466  0.1787
20292W        W37139   3.135   1.375   0.084  0.2224  0.2048 -0.0225
20293W        W37140   7.065   9.906   2.055 -0.0351 -0.3887  0.2146
20294W        W37141   2.615   3.753  12.083 -0.0216 -0.1168 -0.1162
20295W        W37142   1.811   1.981  13.158  0.0299 -0.0481  0.3380
20296W        W37143  14.065  12.169   3.405 -0.0799 -0.1545 -0.5751
20297W        W37144   1.614  13.150  15.481 -0.2372  0.3577 -0.0719
20298W        W37145   6.860  18.470   0.220  0.1317 -0.1932  0.1520
20299W        W37146   5.552  17.701  12.120 -0.0535 -0.0329 -0.3093
20300W        W37147  11.468  12.369   0.158 -0.1098  0.1789  0.2803
20301W        W37148  11.833   6.545   4.057 -0.0478  0.0425 -0.2239
20302W        W37149  16.688  11.063   1.793  0.4042 -0.0368 -0.0992
20303W        W37150  15.614   0.499  12.229 -0.1633  0.0927 -0.0542
20304W        W37151   3.920  16.821  13.835 -0.2484 -0.0005  0.2182
20305W        W37152   5.389   3.110   3.991 -0.1615  0.2714 -0.0143
20306W        W37153  18.701   2.936   5.605  0.1697 -0.3972  0.0382
20307W        W37154  12.818   3.013   1.223  0.4111  0.1148 -0.2682
20308W        W37155  17.133  16.620   3.018 -0.2754 -0.1328 -0.0950
20309W        W37156  14.520  14.994  12.508 -0.1630  0.2173  0.4508
20310W        W37157   2.029  16.038   4.909 -0.1784 -0.0855 -0.1845
20311W        W37158   0.468  10.259  14.810  0.0901 -0.0583  0.0114
20312W        W37159   6.090  15.145  15.544  0.2547 -0.2026 -0.3463
20313W        W37160   4.955   2.308  12.021 -0.0081  0.0261 -0.1274
20314W        W37161  15.674   8.743  12.325 -0.0150  0.1671 -0.2267
20315W        W37162   5.479   2.512  12.750 -0.0222  0.0075  0.2270
20316W        W37163  14.294   6.547  11.629  0.2209  0.0541  0.0699
20317W        W37164   7.455  14.938  11.879 -0.3739 -0.1652  0.4237
20318W        W37165   8.142   7.048   2.104  0.1381  0.1072 -0.2753
20319W        W37166  15.920  14.545  12.560 -0.0027 -0.2523 -0.0563
20320W        W37167   9.563  18.073  11.101  0.0655  0.0566 -0.1867
20321W        W37168   1.152   8.021   3.905  0.1371  0.2428  0.2618
20322W        W37169   4.110  18.749  13.618 -0.1948  0.1806  0.3500
20323W        W37170   6.225   6.151   3.049  0.2261 -0.2355  0.0454
20324W        W37171  17.852  12.808   4.980 -0.3461 -0.0853 -0.1631
20325W        W37172  13.995   9.397   0.425  0.3666  0.1727 -0.1228
20326W        W37173   2.566  16.476  13.029 -0.1804  0.1299  0.6984
20327W        W37174  15.078   8.417  14.677  0.1745  0.1907  0.0203
20328W        W37175  17.910   5.203   1.941 -0.0896 -0.0476 -0.1518
20329W        W37176   2.249   0.941   4.027  0.0243  0.1966  0.0946
20330W        W37177   6.262  15.056   0.585  0.1364 -0.1223 -0.1699
20331W        W37178  12.810   1.660  13.444  0.0704  0.2401 -0.1139
20332W        W37179  18.594   4.285   5.123  0.0358 -0.1170  0.2269
20333W        W37180   4.981  15.761   2.655  0.0654 -0.1807  0.1660
20334W        W37181   8.734  14.998  14.480 -0.3023  0.0479 -0.0978
20335W        W37182  17.526   3.077  12.804 -0.3138 -0.1166 -0.0642
20336W        W37183  12.231  16.735   4.361  0.0994 -0.0347 -0.3436
20337W        W37184   8.375   5.684   1.725  0.0768  0.0323 -0.1040
20338W        W37185   5.617  18.512   2.607  0.0400 -0.3921 -0.0974
20339W        W37186   6.613   7.897   4.936 -0.1313  0.1946 -0.1447
20340W        W37187   5.612  15.832  10.722 -0.4545 -0.1255 -0.0550
20341W        W37188  11.105  12.449  13.553  0.2623  0.4536 -0.0943
20342W        W37189  18.571  11.507   0.487 -0.2639 -0.0616 -0.0281
20343W        W37190  18.045   0.712   3.616  0.1873  0.1005 -0.2148
20344W        W37191   3.744   8.739   1.322 -0.0931  0.0161 -0.0734
20345W        W37192  15.036   1.732  13.078 -0.0991  0.0894 -0.0168
20346W        W37193  13.026   5.904   1.627 -0.0767  0.2418 -0.0703
20347W        W37194   1.372  14.309  15.107 -0.0911  0.2919 -0.3434
20348W        W37195  14.747  15.665  12.773  0.0193 -0.5373  0.1473
20349W        W37196   8.175   0.564   0.387  0.3048  0.0942  0.0712
20350W        W37197  13.728   5.173  13.434 -0.5474 -0.1391  0.1252
20351W        W37198  13.735   5.367  13.961  0.0186  0.0868 -0.0666
20352W        W37199   7.074   3.606  13.787  0.1729  0.2114  0.0198
20353W        W37200   2.732   0.687  11.733 -0.0449  0.1753  0.0889
20354W        W37201  15.719   3.126   6.195 -0.0382 -0.1158 -0.2771
20355W        W37202  10.629   7.993  14.724  0.2589 -0.0696  0.1686
20356W        W37203  18.594  18.771   3.981  0.2149 -0.1822  0.1055
20357W        W37204   1.416   9.221  14.781 -0.0067 -0.3094  0.2041
20358W        W37205  14.398   5.587   1.228  0.2188  0.2634 -0.0105
20359W        W37206  13.112  16.152   3.015  0.3251 -0.0838  0.1494
20360W        W37207  14.625  16.396   1.988 -0.1447  0.0040 -0.1481
20361W        W37208   9.455   9.168  11.436 -0.0902 -0.0354  0.1421
20362W        W37209   4.316  11.779   2.046  0.0350  0.3974 -0.0068
20363W        W37210   6.742   6.070   3.853  0.1540 -0.1071 -0.0885
20364W        W37211   7.219   5.426   0.715  0.1484  0.0809  0.0565
20365W        W37212  15.537   7.371  12.405 -0.0916 -0.1562 -0.0206
20366W        W37213   8.325  11.734   1.416 -0.2044  0.1348 -0.0840
20367W        W37214  18.391   5.338   3.360 -0.3056 -0.0840  0.1325
20368W        W37215   3.295   7.413  11.864 -0.3408 -0.0585 -0.1771
20369W        W37216  13.071   0.061  14.670 -0.2465  0.2534 -0.0240
20370W        W37217   2.213  12.712   5.278 -0.1038  0.0968 -0.1354
20371W        W37218  17.744   5.134   5.895 -0.1754  0.0225 -0.0599
20372W        W37219   3.523   5.791   3.569  0.1585 -0.0959 -0.1389
20373W        W37220   6.909  16.385  11.400  0.3468 -0.2109 -0.3219
20374W        W37221   9.120  10.776  13.068  0.1428 -0.0787  0.1041
20375W        W37222   5.910   9.817  14.801  0.1767  0.3251  0.1453
20376W        W37223   7.243  18.824   4.599  0.2671  0.1317  0.0145
20377W        W37224   6.798   8.275   4.711  0.1405 -0.0095 -0.2152
20378W        W37225  14.229   3.375   1.445  0.2237 -0.1106 -0.0093
20379W        W37226   1.734   4.241   3.071  0.1090  0.2545 -0.2430
20380W        W37227   5.829   8.599  14.537  0.0388 -0.2990 -0.2614
20381W        W37228  14.890   8.338   5.685  0.1394 -0.2570 -0.3489
20382W        W37229   1.904  13.979   4.145  0.3211 -0.0169  0.2420
20383W        W37230   5.781   4.320  12.830 -0.0927 -0.2533  0.0524
20384W        W37231  17.709   3.250   3.714 -0.1994 -0.3123  0.2825
20385W        W37232   2.961  10.130   2.065 -0.0960  0.2968  0.0157
20386W        W37233  17.814   0.965  10.830 -0.0126  0.2788  0.0146
20387W        W37234   0.599   1.912   9.835 -0.0872 -0.5591  0.3063
20388W        W37235   1.348  17.594   5.493  0.0551  0.1697 -0.2590
20389W        W37236  13.507   6.897   0.341  0.1259 -0.0626  0.1159
20390W        W37237  12.614   0.095   2.982  0.0356  0.2053 -0.2096
20391W        W37238   3.259  13.430   1.955 -0.0342  0.1492  0.0619
20392W        W37239   7.166  12.024   4.451  0.2241 -0.4511 -0.1715
20393W        W37240  17.280  11.504   5.361  0.3565  0.2059 -0.2296
20394W        W37241  18.421  14.932   1.779  0.0298  0.2524  0.4257
20395W        W37242  13.453  11.662  12.244  0.2056 -0.1655 -0.2451
20396W        W37243   2.757  12.369  11.642  0.2566  0.2829 -0.0379
20397W        W37244   7.711   6.687   0.407  0.0410 -0.0377 -0.2475
20398W        W37245  11.564  14.474  11.079  0.1190  0.1726 -0.0104
20399W        W37246  15.075  13.600  11.832 -0.1469 -0.0196  0.2332
20400W        W37247   8.616   5.748  13.298 -0.1039  0.1657  0.0462
20401W        W37248  12.557   5.198   4.725 -0.0199 -0.0152 -0.1361
20402W        W37249  18.325   5.265  13.701  0.1294 -0.0445  0.0013
20403W        W37250  16.347   5.770  14.046 -0.2025  0.0279 -0.1553
20404W        W37251  11.447   7.762  11.348 -0.0627 -0.1266 -0.2755
20405W        W37252   2.869   8.200  15.222 -0.3716 -0.2229 -0.2106
20406W        W37253  12.241  17.019   2.596 -0.1590  0.1831 -0.2751
20407W        W37254   2.959  12.073  14.378 -0.2178 -0.0651 -0.1164
20408W        W37255   7.915   3.759  13.449 -0.1054  0.2595 -0.1262
20409W        W37256  16.358   5.692   0.859 -0.3193 -0.1353  0.1059
20410W        W37257  14.785  12.277  14.157 -0.0107 -0.0414  0.1089
20411W        W37258   6.360   8.055  14.197 -0.1306 -0.1050 -0.3140
20412W        W37259   4.112   1.121  12.306  0.0304 -0.1586 -0.4623
20413W        W37260   1.718   3.685   1.625 -0.0365 -0.1422  0.1441
20414W        W37261  16.252   0.399   4.688 -0.1616 -0.0525  0.0380
20415W        W37262  16.904  11.496  14.896 -0.0921 -0.2755 -0.2073
20416W        W37263  14.768  12.552  15.473  0.2670 -0.1535 -0.0520
20417W        W37264   4.210   3.720  15.542 -0.1863 -0.2591  0.1157
20418W        W37265   2.862   7.682  12.259 -0.1214  0.2287 -0.2426
20419W        W37266   6.855   5.220   3.756 -0.1834 -0.0315 -0.5806
20420W        W37267   3.195   5.931  13.151 -0.2925 -0.1385  0.1351
20421W        W37268   0.548  12.124   1.713 -0.1355  0.2437 -0.1114
20422W        W37269  17.387   2.465  13.578  0.0380  0.1242 -0.1654
20423W        W37270   5.848  16.782   3.981 -0.0899  0.0727 -0.0594
20424W        W37271  14.260   4.435   2.778 -0.0972 -0.0419 -0.0592
20425W        W37272   4.267  10.641   2.386 -0.1717  0.0641  0.2515
20426W        W37273   2.373   1.405  11.173  0.0023 -0.0043  0.0696
20427W        W37274  17.467   5.448   3.429  0.1710 -0.2402  0.3261
20428W        W37275  16.585  14.177   4.198 -0.0927  0.2134 -0.0714
20429W        W37276   5.020  17.666   1.854 -0.2298  0.0451  0.2503
20430W        W37277   0.422   7.092  11.618  0.0408 -0.0418 -0.0927
20431W        W37278  11.397   7.360  13.756  0.1496 -0.2014 -0.1370
20432W        W37279   9.453  15.829  11.288 -0.2133 -0.0713 -0.2810
20433W        W37280   5.876  17.807  11.775  0.1857 -0.1353  0.2034
20434W        W37281  10.662  18.504  11.217 -0.1746 -0.0473 -0.2017
20435W        W37282  14.880   8.489   0.393  0.0076  0.2177  0.0885
20436W        W37283   7.505  12.952  13.058  0.2463  0.1849  0.0554
20437W        W37284  10.803  10.799   1.700 -0.1324 -0.2187 -0.3549
20438W        W37285   3.900  17.752  13.923  0.4427 -0.0623  0.0077
20439W        W37286   3.888   4.904  12.664  0.3579 -0.1255 -0.2276
20440W        W37287  13.530   3.339   4.008 -0.2904 -0.3252 -0.0634
20441W        W37288   0.341  12.484  14.760 -0.0087 -0.2433 -0.2042
20442W        W37289   9.487  13.440   6.053 -0.0726  0.0586  0.2788
20443W        W37290   8.326   3.180  14.286  0.1220 -0.0630  0.1019
20444W        W37291   2.739   8.754   4.588  0.0176 -0.0233 -0.0060
20445W        W37292  12.017   7.536  13.793 -0.1342 -0.0022  0.1158
20446W        W37293   2.294  11.314   2.597  0.0165 -0.1958  0.0770
20447W        W37294   6.781   9.251  15.259 -0.0978  0.0179  0.2150
20448W        W37295   0.161   6.324  12.897  0.0487 -0.1676 -0.2825
20449W        W37296   7.955  11.033  14.670 -0.2308  0.0409  0.2536
20450W        W37297   0.502   8.375   4.645 -0.0570 -0.0515 -0.1898
20451W        W37298  13.833  17.787   1.006 -0.0718  0.0451 -0.1088
20452W        W37299   0.011   3.121   2.504  0.3277 -0.1078  0.1934
20453W        W37300   2.884   1.621   0.425  0.2279 -0.1284  0.0425
20454W        W37301   3.673   7.288  15.189  0.1100 -0.0547 -0.1252
20455W        W37302   9.630   4.811  14.012 -0.2898  0.0460  0.0466
20456W        W37303  10.457   9.066  15.203 -0.0675  0.1771  0.2176
20457W        W37304   4.286   4.429   1.277  0.4303  0.0756 -0.2394
20458W        W37305  15.798   2.034   1.716  0.0195 -0.0837  0.0682
20459W        W37306   1.365   1.918   1.923 -0.0700  0.3333 -0.0207
20460W        W37307  15.207  16.204   4.119 -0.1678  0.0087  0.4432
20461W        W37308  15.432   7.429   4.773  0.1008  0.1086  0.1593
20462W        W37309   1.181  12.389   1.922 -0.1501  0.0736 -0.0357
20463W        W37310   9.676   4.386  12.285 -0.1239 -0.2021  0.0581
20464W        W37311  12.601   7.768  14.508  0.3707  0.0562  0.4009
20465W        W37312  10.608   2.448   0.368 -0.3933  0.2315  0.0645
20466W        W37313   5.400  10.171   0.325 -0.1514  0.1150 -0.0032
20467W        W37314   8.594   8.612   2.648  0.0958  0.2284 -0.1751
20468W        W37315   9.458  16.515  11.908  0.4467 -0.0050 -0.1146
20469W        W37316  17.518   7.500   3.241 -0.0247 -0.0894  0.2840
20470W        W37317   3.584   5.460   3.095 -0.4329 -0.0728  0.1242
20471W        W37318   5.956   6.982   1.858  0.1998 -0.3347  0.1677
20472W        W37319   3.022  11.135  14.358 -0.1315  0.0332  0.0711
20473W        W37320  15.522  18.616   5.303 -0.1620 -0.1334  0.1671
20474W        W37321  17.335   4.574   2.480 -0.1037  0.0064 -0.0903
20475W        W37322   0.109   2.937  14.297  0.0453  0.0620 -0.0657
20476W        W37323  10.515  11.225   3.453  0.1109 -0.0513  0.3410
20477W        W37324  13.629   4.185   5.069 -0.0081  0.2476  0.3086
20478W        W37325   3.462   5.885  12.054 -0.0051  0.0015 -0.0260
20479W        W37326   4.482  16.453   4.475 -0.0119 -0.1222 -0.0119
20480W        W37327   2.040  10.796  12.045 -0.1489 -0.2818 -0.1156
20481W        W37328  15.666   8.211   2.282 -0.0646  0.0842  0.2012
20482W        W37329   4.372  10.141  10.611  0.0854  0.2996 -0.0733
20483W        W37330   2.270  13.429  12.346  0.1077 -0.1257  0.2035
20484W        W37331  13.819  16.046  15.319 -0.0897 -0.1139 -0.1810
20485W        W37332   7.339  14.529   1.615 -0.0710  0.2872 -0.2408
20486W        W37333   1.921   5.569  15.426  0.1655 -0.1065  0.0443
20487W        W37334   1.792  17.190  12.841  0.2267  0.1744 -0.1599
20488W        W37335  10.121   2.811  14.545 -0.2411  0.1110 -0.2261
20489W        W37336   0.905  14.117  15.045  0.0816  0.2013  0.1488
20490W        W37337  18.477  12.400   0.909 -0.2377 -0.2614  0.0089
20491W        W37338  10.169   8.654  15.079  0.4417 -0.3068 -0.3469
20492W        W37339  10.469   3.205   0.131  0.0018  0.0128  0.2094
20493W        W37340   6.780  15.390  14.309  0.4250 -0.0006  0.3148
20494W        W37341  18.639  16.601   2.216  0.1602 -0.4528  0.2372
20495W        W37342   1.125  17.339  13.957 -0.0624 -0.0006  0.0749
20496W        W37343   5.316   3.747   0.798  0.1369 -0.2295  0.0588
20497W        W37344   3.198  12.429   3.140 -0.0929 -0.1328  0.1865
20498W        W37345  17.401   1.023   5.116  0.1174  0.1627  0.0180
20499W        W37346  10.980   7.628  14.747  0.0147  0.1453  0.2161
20500W        W37347   8.376   4.749   3.472 -0.1949 -0.2845 -0.1051
20501W        W37348   0.617  13.652   2.503 -0.3052  0.1844 -0.0278
20502W        W37349   9.525   0.917   5.081  0.1713  0.2434  0.1484
20503W        W37350  17.671  11.691  12.862  0.4258  0.1245  0.0785
20504W        W37351   0.195   0.542  13.407 -0.0511 -0.0054 -0.0224
20505W        W37352   9.225  16.788   4.176  0.0713 -0.0911 -0.4492
20506W        W37353   0.856  18.333  12.475 -0.1548 -0.3493  0.0343
20507W        W37354  11.625  18.461  14.584 -0.3742 -0.3418  0.1212
20508W        W37355  13.240   4.278   2.018 -0.2964  0.0349  0.2788
20509W        W37356  11.077   5.532  12.237 -0.1017  0.2728 -0.1148
20510W        W37357   8.400  12.948   1.477 -0.0095  0.0302  0.3446
20511W        W37358  17.459   7.423  14.432  0.3673  0.0558  0.0231
20512W        W37359   2.592  10.289  13.475  0.3657  0.0832 -0.0612
20513W        W37360   0.212   2.648   5.756 -0.0595  0.0272 -0.1011
20514W        W37361   3.062   3.248  12.755  0.3820  0.2172  0.0323
20515W        W37362   8.573  15.709  11.596  0.2933  0.2503 -0.2008
20516W        W37363   3.172  12.693   2.174 -0.0681  0.0867 -0.0671
20517W        W37364   7.324  15.420   1.075  0.2833  0.1080  0.0419
20518W        W37365   1.460  17.102   2.747  0.0993  0.0723  0.0864
20519W        W37366   1.311  17.302  12.910  0.1051  0.0018 -0.2200
20520W        W37367   2.062  16.329   9.347  0.0477  0.1010  0.4366
20521W        W37368  17.923  14.492   1.168  0.0510  0.1524  0.0112
20522W        W37369   6.804  12.995   0.172 -0.1377 -0.0478  0.1122
20523W        W37370   7.386   3.975  15.476  0.1591 -0.1894 -0.0131
20524W        W37371   8.304  14.726  12.136  0.4727 -0.3509 -0.1297
20525W        W37372  14.920   3.770  13.964 -0.2528 -0.0101  0.2142
20526W        W37373   3.627   6.247  13.498 -0.0814  0.0535 -0.1249
20527W        W37374  16.993   1.373  11.044  0.1606 -0.2054 -0.0835
20528W        W37375   5.308  18.392  15.026  0.1501  0.1366  0.3094
20529W        W37376  14.572  13.783   4.209 -0.1192  0.2986 -0.0050
20530W        W37377  13.640   9.669   3.987  0.2192  0.0278  0.1824
20531W        W37378   7.015   7.155   4.435 -0.0871  0.1171  0.2252
20532W        W37379   9.313  14.869   0.132  0.1198  0.0491  0.1974
20533W        W37380  11.457  11.800   1.009  0.2792  0.3227 -0.0643
20534W        W37381   9.297  15.401   4.579  0.1485 -0.2044  0.1826
20535W        W37382  16.111   3.396   0.636 -0.3247  0.0559  0.1638
20536W        W37383   5.519  12.285   1.876 -0.0318  0.3392 -0.1397
20537W        W37384   2.515  15.559   2.808 -0.2231  0.0756 -0.0106
20538W        W37385  10.855   8.496   1.952 -0.1234 -0.0639  0.1403
20539W        W37386   0.177   4.006   2.098 -0.1938 -0.2176 -0.0518
20540W        W37387   1.574   0.010   3.559 -0.2755  0.0282 -0.0882
20541W        W37388   4.289   2.465   2.189 -0.0172 -0.0470 -0.4029
20542W        W37389   9.260  10.190  10.599  0.0138 -0.4297 -0.0099
20543W        W37390  17.633   3.267  12.304 -0.1854 -0.0063 -0.0456
20544W        W37391  13.566  15.135  10.907 -0.4926 -0.0675 -0.3453
20545W        W37392  16.068  10.466   4.333 -0.1326 -0.2870 -0.0064
20546W        W37393  14.460  12.237   0.745  0.2414 -0.0340  0.1840
20547W        W37394   4.650  16.062  10.605  0.1683  0.2350  0.1399
20548W        W37395   7.064   2.563  12.248  0.1884 -0.0211  0.0628
20549W        W37396   4.394   4.504   0.381  0.2937 -0.1391  0.0436
20550W        W37397   8.594   7.264  13.569 -0.1674 -0.1718 -0.1068
20551W        W37398   0.959   1.749  12.221  0.1447 -0.1725 -0.0151
20552W        W37399   5.229   0.157  14.321 -0.2495 -0.1162 -0.0216
20553W        W37400   2.553   8.039  13.205 -0.2878 -0.0041  0.2721
20554W        W37401   6.106  16.221   9.612  0.2526 -0.1098  0.0472
20555W        W37402  12.939  18.335   3.811  0.0180 -0.4783  0.0319
20556W        W37403   2.579  15.275   0.035 -0.2360  0.2115 -0.0847
20557W        W37404  16.029   0.749   2.744  0.1447 -0.1989 -0.1979
20558W        W37405   9.131   0.830   2.290 -0.2765 -0.2912  0.0474
20559W        W37406   7.009   9.579  13.302  0.0805  0.2714 -0.0033
20560W        W37407  11.724  11.732  15.184 -0.0660 -0.1087 -0.2006
20561W        W37408   8.162   7.964  14.193  0.4024 -0.0226 -0.3363
20562W        W37409   1.061   0.483  15.059 -0.1072  0.3131  0.3671
20563W        W37410   2.036   0.452  11.349 -0.2548 -0.0200 -0.2899
20564W        W37411  10.384  10.820  14.763 -0.3862  0.1307  0.2230
20565W        W37412   0.256   6.533   5.176 -0.1372 -0.2987  0.2186
20566W        W37413  17.673   4.610   3.712 -0.0073  0.1656 -0.1692
20567W        W37414   2.254  11.125   1.368  0.4411  0.1962  0.0904
20568W        W37415  10.028   1.526   1.148 -0.1787  0.0877 -0.2293
20569W        W37416   3.950  18.520  12.772  0.0722 -0.1624 -0.1936
20570W        W37417  18.660   3.459  11.968  0.0076 -0.1114  0.0842
20571W        W37418   5.425   5.716   4.732 -0.0122 -0.1543 -0.3222
20572W        W37419  18.799   9.989   5.685  0.1088 -0.0452  0.0432
20573W        W37420   4.350  17.938   4.273  0.0142 -0.2775  0.0230
20574W        W37421  13.922  13.541   3.911  0.0558  0.1106 -0.1682
20575W        W37422  16.923  12.400   3.196  0.3175  0.3138  0.3787
20576W        W37423  13.061   2.042   0.283  0.2141 -0.0273 -0.0766
20577W        W37424  17.463  12.858   2.749 -0.1541  0.1215 -0.0028
20578W        W37425  11.771   1.224   3.496 -0.0369  0.1416  0.1472
20579W        W37426   0.264   4.872  12.997 -0.1872  0.2100 -0.0338
20580W        W37427   5.575   8.132  15.538 -0.0618 -0.1154 -0.0171
20581W        W37428  13.058  14.250  14.839 -0.1608 -0.0647  0.1745
20582W        W37429   6.647  10.741   0.645  0.3646  0.1626 -0.1151
20583W        W37430  14.298  12.042  15.108 -0.1143  0.0515  0.1973
20584W        W37431  11.165   2.853   2.911  0.1722  0.1742 -0.2121
20585W        W37432   9.786  12.395  13.624  0.2625  0.0503 -0.1216
20586W        W37433  18.045   7.418   5.157  0.1534 -0.0782  0.2300
20587W        W37434   5.234   1.823   2.417 -0.2773  0.0943 -0.2399
20588W        W37435   8.280   2.746   0.717 -0.2686 -0.1947  0.0657
20589W        W37436  17.806  10.736   3.282 -0.1522 -0.0413 -0.1235
20590W        W37437  18.705  15.040  12.385  0.0892  0.3079 -0.2287
20591W        W37438   8.347  13.126   4.324  0.2102  0.0031  0.1132
20592W        W37439  16.654   4.602  15.448 -0.0664  0.1396  0.0928
20593W        W37440  18.197  10.586   3.634 -0.0863  0.0147 -0.0549
20594W        W37441  15.128  16.887  14.784  0.2548  0.2159  0.1971
20595W        W37442  10.866  14.290  14.513 -0.2434 -0.1546 -0.1715
20596W        W37443   4.005   4.516  14.441  0.2101 -0.2109  0.0043
20597W        W37444  14.831   6.796   2.207  0.0352  0.0832  0.1558
20598W        W37445  12.761  15.474  15.287 -0.0875  0.0961 -0.0529
20599W        W37446   8.813   4.696   3.142 -0.4189 -0.0806 -0.2886
20600W        W37447  15.592  14.893   2.825  0.0180  0.3403  0.0443
20601W        W37448  15.114   1.644  15.130  0.0584  0.3272  0.0521
20602W        W37449  12.351   9.618   4.903  0.1139  0.0442  0.0330
20603W        W37450   8.359  12.842  12.020  0.0727  0.0075  0.0571
20604W        W37451  12.979  17.363   3.924 -0.0665  0.1558  0.1606
20605W        W37452  15.977   3.396   2.952 -0.0502  0.1845 -0.0807
20606W        W37453   5.974  15.488   0.403  0.1410  0.2237 -0.0314
20607W        W37454   9.065   3.695  12.062 -0.2293 -0.0933  0.1354
20608W        W37455   3.098  16.122  13.527  0.0560  0.3280 -0.0333
20609W        W37456   0.483  17.234   2.779 -0.2346  0.0640  0.2976
20610W        W37457  15.340  16.972   3.624  0.0282  0.0338  0.0486
20611W        W37458   0.756   4.271   0.639  0.0950  0.2343  0.1004
20612W        W37459  16.529   5.305   0.517 -0.2404 -0.3148  0.0168
20613W        W37460   7.349   6.880  13.516  0.2957 -0.0448  0.1926
20614W        W37461   5.262   3.430   4.782  0.1154  0.1372 -0.1033
20615W        W37462   3.386  12.785  11.735  0.2030 -0.0426  0.3321
20616W        W37463   9.306  17.204   2.098  0.0393 -0.1818  0.3631
20617W        W37464  14.945   3.476   2.345 -0.2072 -0.2432 -0.2251
20618W        W37465  18.829  18.335  10.916  0.0124 -0.1880  0.2230
20619W        W37466  11.471  12.929  11.699 -0.0784 -0.0498  0.1210
20620W        W37467  10.382   7.875   0.582 -0.1733  0.2636 -0.3129
20621W        W37468  11.762  17.271   2.924 -0.3388  0.0095  0.1363
20622W        W37469  10.707  15.750   0.838 -0.2911  0.4009  0.2790
20623W        W37470  18.202  16.141  14.876 -0.4797  0.0355  0.2336
20624W        W37471   4.561   1.081   0.229  0.1646  0.0329  0.1504
20625W        W37472   9.201  15.496  15.014 -0.0581 -0.3286  0.1659
20626W        W37473   4.952   7.123   2.362 -0.0121  0.2823  0.4587
20627W        W37474  14.733  12.436   2.222  0.2312 -0.0634  0.2624
20628W        W37475   1.685  12.517  12.554  0.0021 -0.2233  0.2229
20629W        W37476   6.918  15.113  14.838 -0.1202  0.0566 -0.1327
20630W        W37477   7.248   4.303  11.721  0.1478 -0.1809 -0.2080
20631W        W37478  18.394   0.974   2.273  0.0948 -0.2023  0.3619
20632W        W37479  16.728   9.195  10.898 -0.0430  0.3027 -0.3077
20633W        W37480   9.298  15.187   5.155  0.0430  0.2883 -0.0116
20634W        W37481   1.764  18.382   3.478 -0.1503  0.2862 -0.0658
20635W        W37482   0.872  11.329   5.417 -0.2426 -0.0664 -0.2425
20636W        W37483  13.335  15.402  14.685  0.1043 -0.1398  0.2306
20637W        W37484   9.512   0.005  14.739 -0.2577 -0.0458  0.1082
20638W        W37485  12.013   2.162   0.229  0.0550 -0.1841  0.0707
20639W        W37486   6.048   3.044  10.701 -0.1363  0.0005 -0.2455
20640W        W37487   1.858  11.703   5.012 -0.3403  0.3064  0.2528
20641W        W37488  10.407  18.049   1.807  0.1626  0.0722  0.5027
20642W        W37489  12.247   7.375   5.439  0.1542  0.1147 -0.2198
20643W        W37490  14.282  13.243  14.395 -0.1634 -0.4139  0.1981
20644W        W37491   7.839  14.341   2.485  0.2865  0.0980  0.0331
20645W        W37492   8.478  10.949  14.781 -0.1061 -0.1105 -0.1704
20646W        W37493   3.292   4.966  11.866 -0.0476  0.0877 -0.2700
20647W        W37494   9.307  10.570   3.229  0.0563 -0.0136  0.0585
20648W        W37495  13.737   3.356  15.108  0.0797  0.0163 -0.1400
20649W        W37496  18.614  12.004  11.157 -0.1285  0.0176 -0.1785
20650W        W37497   3.430   0.990  10.889 -0.1717 -0.1483  0.1573
20651W        W37498   8.738   8.822   4.807 -0.1311 -0.1232  0.0406
20652W        W37499   4.862  17.688  12.016 -0.0208 -0.1430 -0.2419
20653W        W37500   2.395  13.881  10.689 -0.0232 -0.0954  0.2307
20654W        W37501  11.654  16.603  13.883  0.1484 -0.3186  0.0055
20655W        W37502   1.656   6.890  14.901 -0.1644 -0.0698  0.0310
20656W        W37503  12.229  16.137  13.558  0.0157  0.2074  0.1886
20657W        W37504  18.102   0.917  15.374 -0.0441  0.1572 -0.0425
20658W        W37505   2.086  11.679  14.085  0.0528 -0.0675  0.0808
20659W        W37506  15.843  15.094   0.838 -0.0994 -0.1195 -0.0240
20660W        W37507   6.625   2.777  10.648  0.1535  0.0130 -0.2125
20661W        W37508   0.895   2.705  13.604 -0.1450  0.0155 -0.0485
20662W        W37509  11.334   8.424   1.758 -0.0259  0.0009 -0.1560
20663W        W37510   4.877  14.925   1.829  0.0962  0.0479  0.0929
20664W        W37511   7.810  14.957   1.611 -0.0399  0.3708  0.2745
20665W        W37512   9.073   8.379   9.842  0.0009  0.2260  0.0594
20666W        W37513  16.479   0.002   1.591 -0.2054  0.1655 -0.2434
20667W        W37514  14.597   1.366  13.044  0.0975  0.0840 -0.0217
20668W        W37515   9.809   3.481  13.124 -0.1430  0.2675  0.0326
20669W        W37516   6.910  18.400  14.643 -0.2998  0.2553  0.2154
20670W        W37517  12.222  18.322  11.722 -0.2402 -0.0032 -0.1217
20671W        W37518   5.225   1.757  14.776 -0.3077  0.1947 -0.3189
20672W        W37519  18.343  11.571  13.364  0.0099  0.0973 -0.1563
20673W        W37520   0.244  12.627  14.267  0.1332 -0.2298 -0.1494
20674W        W37521  11.935  10.510   5.068 -0.3438 -0.3731 -0.0659
20675W        W37522  10.460   6.537  14.803 -0.0005 -0.0691  0.1417
20676W        W37523  10.183   0.509  13.192  0.0286  0.2379  0.1452
20677W        W37524  11.776  12.206  12.194 -0.0529 -0.0587  0.0919
20678W        W37525   8.054   4.503   5.567 -0.0577  0.1157  0.1477
20679W        W37526   6.062   9.137  12.742  0.2246  0.1773  0.1677
20680W        W37527  16.703   1.189  13.295  0.0619 -0.1793 -0.0310
20681W        W37528  18.079  11.036   4.154  0.0925 -0.0929 -0.0633
20682W        W37529  10.846  17.865  13.275  0.0928 -0.0907  0.1746
20683W        W37530   7.290  11.705  14.339  0.0600 -0.0826 -0.0770
20684W        W37531   1.645  12.696   2.174 -0.0233  0.4420 -0.0219
20685W        W37532   0.513  16.509  14.653  0.1505  0.0964  0.0214
20686W        W37533  15.686   0.210   4.290 -0.4360 -0.0763  0.2271
20687W        W37534   8.658  10.366  13.829 -0.1577  0.0844  0.1423
20688W        W37535   6.983   3.568   0.603 -0.0264 -0.4584 -0.1597
20689W        W37536  16.067  13.288   3.599 -0.2428 -0.2781  0.0138
20690W        W37537   3.502   0.219  12.693 -0.2070  0.0695  0.1631
20691W        W37538  16.741   6.489  14.252 -0.0487 -0.0506 -0.1957
20692W        W37539   8.115  12.668   5.279  0.2643  0.2304 -0.2263
20693W        W37540   1.494  10.492   1.571  0.2441  0.0110 -0.2010
20694W        W37541  11.982  15.915   3.898  0.1534 -0.0660 -0.1655
20695W        W37542   2.630   3.785   0.435 -0.0603 -0.1297 -0.1084
20696W        W37543   2.217  18.609  14.621  0.1689  0.1490  0.0629
20697W        W37544  18.624  15.474  14.110 -0.2292 -0.2692  0.0596
20698W        W37545   0.174  11.393  11.175 -0.0556  0.0538  0.3488
20699W        W37546  16.071  14.553   5.096 -0.0710  0.2700 -0.0417
20700W        W37547  17.499   7.346  12.865 -0.0323  0.0974 -0.1294
20701W        W37548   1.919  11.724   0.840 -0.0584 -0.0284 -0.1588
20702W        W37549   8.836   9.282   4.570  0.1970  0.2579 -0.1880
20703W        W37550  10.264  12.071  15.335 -0.2845 -0.0224 -0.0079
20704W        W37551  10.348   2.824  12.814 -0.1960  0.0317  0.0657
20705W        W37552  16.159  10.849  12.493 -0.0565  0.0341 -0.1699
20706W        W37553  13.724   5.639  14.450 -0.3341 -0.1539 -0.0466
20707W        W37554   0.083  16.227   1.211 -0.1420  0.0637 -0.0365
20708W        W37555   7.985   1.329  12.597 -0.2323 -0.2224  0.1285
20709W        W37556   8.313  15.920   2.572  0.0016  0.0583 -0.2232
20710W        W37557  18.057   3.472   2.080  0.0133  0.0346 -0.0741
20711W        W37558   4.437   6.497  13.391 -0.1162  0.0131 -0.0322
20712W        W37559   8.025  13.560   2.602 -0.2119 -0.2173 -0.2647
20713W        W37560  15.008   7.833   2.567 -0.0847 -0.0584  0.0760
20714W        W37561   3.379   2.465  12.259  0.1991  0.0443 -0.2549
20715W        W37562   7.025  14.996  15.347 -0.0896 -0.1750 -0.1294
20716W        W37563   2.668   9.489   0.764 -0.0229  0.4415 -0.1722
20717W        W37564  17.082  13.833   1.622 -0.2466 -0.1824  0.2272
20718W        W37565  10.871  14.362  12.454  0.0828 -0.0448  0.1858
20719W        W37566   8.974   1.013  13.696 -0.1564  0.1059  0.0669
20720W        W37567   5.360   3.256  15.557  0.1179  0.2790  0.2246
20721W        W37568  16.685  17.832  13.481  0.3019  0.1277  0.1428
20722W        W37569   5.761  16.567   3.523 -0.3403  0.0036  0.0506
20723W        W37570   5.996   7.814   1.486 -0.5492  0.0152 -0.0534
20724W        W37571   8.915  13.639  13.784 -0.0365 -0.0091 -0.2770
20725W        W37572   7.849  15.505  13.369  0.0483  0.0969 -0.0833
20726W        W37573  13.030   4.008  13.101  0.3693 -0.0684  0.0562
20727W        W37574  18.816  11.389   1.014  0.2844 -0.0383 -0.1546
20728W        W37575   8.291   4.338  12.863 -0.1215 -0.1810 -0.0733
20729W        W37576   7.960  18.252   1.095  0.0971  0.1721 -0.0652
20730W        W37577  10.035  14.289   4.623 -0.0069  0.1485  0.0571
20731W        W37578   0.133  16.930   2.031 -0.0278  0.0688  0.0621
20732W        W37579   8.345  10.481   2.229  0.0818  0.2801  0.0519
20733W        W37580   2.684   3.136  14.522  0.1188  0.1374 -0.0142
20734W        W37581   8.803   9.788  11.239  0.0330  0.0557 -0.1806
20735W        W37582  15.058   2.248   3.504  0.2011  0.1155 -0.2797
20736W        W37583   7.707   9.612  12.191 -0.2338 -0.1928 -0.1120
20737W        W37584  17.592   3.974   1.641 -0.2016 -0.0583 -0.0062
20738W        W37585   0.354  15.915  12.603  0.2745  0.8513 -0.2685
20739W        W37586   0.676   1.742   3.454 -0.3332  0.0440  0.1102
20740W        W37587  14.907   7.296   1.015 -0.0017 -0.0570 -0.1570
20741W        W37588  18.145   5.395  14.232 -0.0102  0.0346 -0.1426
20742W        W37589  10.755  16.968  13.770  0.1204  0.0703  0.1774
20743W        W37590   8.856   6.387   1.133 -0.1743  0.2052  0.0353
20744W        W37591   4.281   6.666   2.899  0.0256  0.1276 -0.0405
20745W        W37592  12.920  13.270   1.166 -0.0016  0.1925  0.2150
20746W        W37593   1.921   5.756  10.448 -0.0576 -0.2783  0.0056
20747W        W37594   1.056  10.397   4.096  0.2202 -0.1010  0.1008
20748W        W37595   4.496   3.196   5.360 -0.0784  0.1645  0.2048
20749W        W37596  15.028   9.796  13.633  0.4010  0.0194 -0.0197
20750W        W37597   7.796  13.265  10.843 -0.1235 -0.2862  0.1230
20751W        W37598  12.428  16.656  15.421 -0.1347  0.0671  0.1722
20752W        W37599   0.767   8.716  12.236 -0.0635  0.4620  0.2693
20753W        W37600  12.302  14.460  12.666 -0.1495 -0.0582  0.2952
20754W        W37601  11.656  14.544  10.605 -0.0071  0.0537  0.0602
20755W        W37602   2.071   6.995   4.094 -0.3279  0.0500  0.0644
20756W        W37603  16.651   4.159   1.221  0.0689  0.2706  0.1314
20757W        W37604   3.489   2.306  14.264 -0.0930 -0.1172 -0.1264
20758W        W37605  11.321   2.679   1.873 -0.0192 -0.1913 -0.1396
20759W        W37606  10.442   6.327   2.117 -0.0073  0.3804 -0.1884
20760W        W37607  18.254   6.425   1.222 -0.0795 -0.0804 -0.1284
20761W        W37608   5.430   3.415  10.069 -0.1060 -0.1012 -0.1458
20762W        W37609   4.057  15.522  11.797  0.2482  0.0788  0.2133
20763W        W37610   3.270  10.366  14.685  0.2018  0.1426  0.1283
20764W        W37611   4.982  14.624  13.292 -0.1890 -0.1662 -0.0708
20765W        W37612   8.822  10.741   3.893  0.0630 -0.0280  0.0466
20766W        W37613   2.618  10.421  10.777  0.1232 -0.0103  0.0782
20767W        W37614  12.546   2.258  14.610  0.0942  0.1793 -0.2874
20768W        W37615  10.267  14.266   2.294 -0.3229 -0.0325 -0.0079
20769W        W37616   8.219  17.836   0.063 -0.0570  0.1705 -0.0569
20770W        W37617   9.249   4.935  15.498 -0.1187  0.2859 -0.1534
20771W        W37618  13.597  16.923   3.552 -0.0425  0.0664 -0.0333
20772W        W37619   1.535  18.149  11.947 -0.2864 -0.2866  0.3971
20773W        W37620   6.372   4.047  14.273  0.0099  0.0210 -0.1951
20774W        W37621   1.215   6.818  14.552 -0.1601 -0.3112  0.1085
20775W        W37622   9.187  16.204  10.958 -0.1883  0.2994 -0.2641
20776W        W37623   3.732  13.296  12.070  0.3106 -0.0375  0.3670
20777W        W37624  15.762  12.429   5.819  0.0429  0.0293 -0.0744
20778W        W37625   5.965   3.100  14.148 -0.2595 -0.1251 -0.1677
20779W        W37626   3.057  16.690  11.557  0.2441  0.1738 -0.1085
20780W        W37627  14.596  16.749  12.009  0.1932 -0.1617 -0.0527
20781W        W37628   6.019   1.570   4.444  0.0975 -0.2743 -0.0140
20782W        W37629   9.647   0.464   0.628 -0.0461 -0.0617  0.0898
20783W        W37630   7.919  18.277   3.066 -0.0593  0.0142  0.0044
20784W        W37631  14.793  18.510   3.543  0.3295  0.1494 -0.0287
20785W        W37632  18.051  10.313  11.354 -0.0739  0.0019  0.1708
20786W        W37633   6.229  18.791   1.503 -0.0552  0.0331  0.4940
20787W        W37634  10.085   2.292   3.411 -0.1684  0.2664  0.3298
20788W        W37635  15.469   4.442  12.714  0.2334  0.0836  0.1326
20789W        W37636   2.568   7.175  14.750  0.1135 -0.1861 -0.0743
20790W        W37637   5.755  11.316  14.732 -0.0611  0.0213 -0.2043
20791W        W37638   5.652   1.514  13.668 -0.0937  0.0657  0.0360
20792W        W37639   8.249   5.969  13.036  0.2379 -0.0860  0.1304
20793W        W37640  18.273  14.382   2.893 -0.2474 -0.0773  0.1166
20794W        W37641   1.000   5.952  12.805 -0.0960  0.1777 -0.4835
20795W        W37642  17.089   7.569   1.695  0.0514 -0.0659  0.2446
20796W        W37643   0.524   5.182  13.332 -0.1167  0.0839 -0.1328
20797W        W37644   3.578   4.324   3.118  0.2159  0.2939 -0.1691
20798W        W37645  10.356  15.221   2.233 -0.3277  0.1211 -0.2542
20799W        W37646  13.808  10.275  14.546  0.1458  0.1217 -0.0098
20800W        W37647   5.140   0.069  12.839 -0.2463  0.0035 -0.1374
20801W        W37648  12.783   6.140   0.667  0.0087 -0.0863  0.1741
20802W        W37649   7.790  11.683   0.913  0.0185  0.3181  0.1266
20803W        W37650   1.191   8.072  10.563  0.2016 -0.0725  0.3150
20804W        W37651   9.879   0.896   0.504  0.3006 -0.1458 -0.3678
20805W        W37652   6.145   1.490   2.915 -0.1992  0.0946  0.1711
20806W        W37653   3.736  12.973   9.992 -0.0103 -0.2937  0.2955
20807W        W37654  11.018   2.366  14.645 -0.2924  0.1031 -0.0999
20808W        W37655  11.492  10.395   2.602 -0.2429  0.0047  0.1358
20809W        W37656  14.640  18.614   0.745  0.2479  0.0673 -0.0770
20810W        W37657  11.953  11.132   4.833 -0.2126 -0.1513  0.1593
20811W        W37658  18.192  17.959   1.026 -0.3237  0.1705  0.0616
20812W        W37659   3.063  13.892  12.537 -0.0444 -0.0984 -0.0758
20813W        W37660   5.480  15.331  10.931 -0.2078 -0.0369 -0.2069
20814W        W37661  13.139   1.690  14.461  0.0804  0.1642 -0.0405
20815W        W37662  10.123  15.850  12.277  0.1010  0.2954 -0.0788
20816W        W37663  14.828  11.574   1.840 -0.2561 -0.1826 -0.2875
20817W        W37664  15.298  17.779  13.669  0.0400 -0.2107  0.1054
20818W        W37665  12.912  14.193   5.940 -0.0334  0.2013  0.1087
20819W        W37666  12.448   2.001   6.263 -0.1424  0.0443  0.2896
20820W        W37667  17.740   8.462   4.075 -0.2602 -0.2368 -0.1798
20821W        W37668   9.239  11.260  14.530  0.1637 -0.0117  0.2312
20822W        W37669  16.060   8.732   5.449 -0.0451 -0.1753  0.1723
20823W        W37670   4.723   8.496   0.820 -0.2441  0.1426 -0.1066
20824W        W37671   9.593  17.339   0.206 -0.0225 -0.2975 -0.2182
20825W        W37672  13.646   5.271   3.903  0.4104  0.2838 -0.0809
20826W        W37673  15.349   9.088  15.255  0.2914  0.1946  0.0225
20827W        W37674   3.099   4.560  11.532  0.2074  0.0177  0.1172
20828W        W37675  11.481  13.668   2.532  0.0971 -0.0415 -0.2482
20829W        W37676   6.944  11.620   4.709  0.3360 -0.1079 -0.0928
20830W        W37677  13.503  18.266   3.727  0.1034 -0.0676  0.0036
20831W        W37678   1.809   6.391  13.740 -0.0565  0.0611  0.0469
20832W        W37679  13.527  17.338   3.855 -0.0904 -0.0131  0.0839
20833W        W37680   6.921  16.211   0.341 -0.0390  0.0334  0.2132
20834W        W37681   9.837   4.429  14.257  0.0147 -0.2016  0.1293
20835W        W37682   0.869   4.912   4.264  0.1303  0.0197  0.0548
20836W        W37683   6.282   0.775   4.195 -0.1129  0.4585 -0.1432
20837W        W37684   7.115  12.758  12.666  0.0117  0.0175 -0.0760
20838W        W37685  10.477  13.530  11.050  0.0067 -0.0791 -0.1150
20839W        W37686  12.361   3.371  10.493  0.0466  0.1680  0.0004
20840W        W37687   4.430  18.745   3.557 -0.0582  0.2841 -0.0931
20841W        W37688  15.507  17.858  14.194 -0.1843 -0.0465 -0.0642
20842W        W37689  10.926   1.845   5.894 -0.0716  0.3269  0.0110
20843W        W37690   8.241  12.234   2.585 -0.0131 -0.3311  0.1644
20844W        W37691   4.208   6.347  11.947  0.0060  0.2857 -0.1792
20845W        W37692  13.159  12.680  13.730 -0.0389  0.1668  0.2182
20846W        W37693   5.832   7.025   0.294  0.1447 -0.0439  0.0148
20847W        W37694   1.210   0.674   2.155  0.3152 -0.2061  0.1263
20848W        W37695  17.565  12.272  15.175 -0.1080  0.2250 -0.1211
20849W        W37696  14.553   7.581   5.117 -0.0179  0.2389  0.0549
20850W        W37697   0.828  12.826  14.774  0.3098  0.0444 -0.0608
20851W        W37698  12.769   7.027  13.319 -0.2170  0.0281  0.2263
20852W        W37699   8.832  16.437   5.503 -0.2837  0.0424 -0.0191
20853W        W37700   5.700   4.530  13.665  0.0118 -0.0154  0.2985
20854W        W37701   6.296   0.396   0.576 -0.0467  0.1695  0.3783
20855W        W37702   6.499  13.103   5.111  0.1861  0.0542 -0.0066
20856W        W37703  17.432  16.560   3.778  0.2143 -0.0884 -0.0580
20857W        W37704   9.108  13.362   3.767 -0.1882  0.2073  0.2276
20858W        W37705  11.556   8.234  11.193 -0.1973 -0.0412 -0.4596
20859W        W37706  12.852  14.985   0.225 -0.0560 -0.1750 -0.2086
20860W        W37707   2.114  14.137  15.551  0.0251 -0.0557  0.2801
20861W        W37708  13.068  16.511   0.044 -0.0204  0.0920 -0.2150
20862W        W37709  14.576   2.227   3.565 -0.2421  0.1263  0.2365
20863W        W37710   7.620   6.406  15.233  0.2518 -0.0414 -0.3547
20864W        W37711  15.951   8.078   3.182  0.1153 -0.0603  0.0139
20865W        W37712  14.105  17.568  13.994  0.0799  0.2656 -0.1956
20866W        W37713   3.847   3.873   5.436  0.1239 -0.1067 -0.1261
20867W        W37714   9.386   7.542  11.602  0.0073  0.4517  0.0640
20868W        W37715  12.321   5.873  14.168  0.0261  0.1660 -0.3350
20869W        W37716   9.776   6.297  11.462  0.0604 -0.0076 -0.2020
20870W        W37717  15.829  14.766  12.012  0.0704 -0.2059  0.0752
20871W        W37718  11.285  16.990   1.640 -0.1129 -0.1104 -0.0438
20872W        W37719  12.126   3.091   0.454 -0.1798 -0.0121  0.1285
20873W        W37720   0.258  16.030   5.069 -0.1216 -0.0295 -0.4217
20874W        W37721  13.922   1.865   4.870 -0.1401  0.0636 -0.4098
20875W        W37722  16.021   7.844  11.263  0.4068  0.0191  0.0020
20876W        W37723   4.864  15.258   2.329  0.1138 -0.1023  0.1299
20877W        W37724  14.472  12.422   1.733  0.1855 -0.4033  0.4016
20878W        W37725   6.954   5.270   2.139 -0.2790  0.1198 -0.0259
20879W        W37726  18.411   4.808  11.795  0.3224 -0.0119  0.1634
20880W        W37727   4.193   8.470  10.799 -0.0691 -0.1079  0.0141
20881W        W37728  14.828   8.308  12.927 -0.0382  0.1506  0.0866
20882W        W37729  16.604  13.115  15.467  0.3480 -0.3239  0.0285
20883W        W37730   1.282  14.542   3.027 -0.0773 -0.2276 -0.2110
20884W        W37731   0.121   2.073   3.158  0.0471 -0.3356  0.1070
20885W        W37732  13.635   7.312   3.026 -0.0905 -0.4191  0.0570
20886W        W37733   0.731  16.697   3.221  0.1210 -0.2333  0.1704
20887W        W37734  12.185  11.391   3.830  0.4530 -0.1663 -0.0261
20888W        W37735   0.847   2.879   9.762  0.1165  0.0463 -0.2695
20889W        W37736   2.122  12.623   2.417  0.1009 -0.1388 -0.0558
20890W        W37737  17.355  16.955   0.179 -0.1799  0.0821 -0.2310
20891W        W37738  11.790   2.826   4.941 -0.1802  0.2053 -0.0520
20892W        W37739  12.561   1.262   4.054 -0.0959 -0.2262  0.1062
20893W        W37740  13.696  11.873  13.604 -0.1207  0.1524  0.1214
20894W        W37741  16.408  13.795  14.817  0.0324  0.1131 -0.0523
20895W        W37742   5.484  17.071   1.187 -0.0454  0.0145 -0.2805
20896W        W37743   5.900  10.044  12.964 -0.2484  0.2177  0.0437
20897W        W37744   6.103  10.477  12.681  0.1496 -0.3619  0.0299
20898W        W37745  16.757   1.154  15.545 -0.0058  0.2450  0.0887
20899W        W37746  16.974   2.605   3.477 -0.0539  0.0940 -0.2505
20900W        W37747  17.189   6.210  14.388  0.0340 -0.0025 -0.1944
20901W        W37748  11.565  17.885  14.338  0.3207  0.0866 -0.0588
20902W        W37749   0.332  15.024  12.440  0.2113 -0.0469  0.0725
20903W        W37750  18.211  12.783   5.317 -0.0566 -0.2462  0.0924
20904W        W37751   8.624   3.825  12.346 -0.1944 -0.0549 -0.0101
20905W        W37752   9.622   0.358  11.679 -0.3477 -0.0396 -0.0987
20906W        W37753   9.142  12.074  13.145 -0.0359  0.0851 -0.2314
20907W        W37754  13.971   9.837  13.082 -0.4489  0.0813  0.0734
20908W        W37755  12.603   8.793  12.198 -0.1429  0.1185  0.0461
20909W        W37756  10.733   9.580   1.616 -0.0956  0.2723  0.0887
20910W        W37757  15.989  17.726  13.196  0.0366  0.0015  0.0261
20911W        W37758  13.304   3.959   0.032  0.0908  0.0092 -0.0328
20912W        W37759  10.856   7.165   1.401  0.0777  0.2504  0.3951
20913W        W37760   2.781   8.419  13.437 -0.3664 -0.2968  0.2855
20914W        W37761   7.785   8.561   3.635 -0.1323  0.0902 -0.0014
20915W        W37762   7.653  15.482   1.490 -0.0073 -0.0511  0.1960
20916W        W37763  15.392   4.584   3.160  0.0715  0.2278 -0.0711
20917W        W37764  11.213  14.792   3.472 -0.1768 -0.0467  0.0449
20918W        W37765  15.199   3.912   0.427 -0.0213  0.0459  0.0736
20919W        W37766  12.063  14.911  15.374  0.0163 -0.0807 -0.1032
20920W        W37767  13.177   3.030   3.321  0.0945  0.0305 -0.1121
20921W        W37768   5.211   4.746  13.987  0.2766 -0.0593 -0.1590
20922W        W37769  18.220  10.384   1.852  0.1496  0.1223 -0.1519
20923W        W37770   9.298   3.903   1.106 -0.1122  0.3139 -0.1882
20924W        W37771  17.912  16.674  11.025 -0.1113  0.1092  0.1461
20925W        W37772   7.282   9.862  12.236 -0.1812 -0.0726 -0.2343
20926W        W37773   2.776  11.596   4.731 -0.1730  0.2578  0.1739
20927W        W37774  16.637   0.275  11.975 -0.0777 -0.0337  0.1649
20928W        W37775  14.374  14.444   5.351 -0.0414 -0.2473 -0.0547
20929W        W37776  11.388  10.593  11.080  0.1756 -0.3755  0.1921
20930W        W37777   8.200   4.848  11.658 -0.0239  0.0675  0.1346
20931W        W37778   1.771  14.409  13.570  0.0074 -0.0106  0.1177
20932W        W37779  13.621  12.798  13.857  0.2361  0.0216 -0.2410
20933W        W37780   9.002   5.013   3.526  0.0439 -0.0966  0.3083
20934W        W37781   3.203  14.069  13.487  0.2310 -0.1163 -0.0241
20935W        W37782  13.265  12.358   2.891  0.0910 -0.2185  0.1825
20936W        W37783  11.833   1.829   2.149  0.0932  0.1433 -0.0204
20937W        W37784  18.060   9.440  14.907  0.3046  0.0977 -0.0058
20938W        W37785  15.438  14.326  12.593  0.0531  0.2132  0.1034
20939W        W37786   4.704  11.191   0.615 -0.3147  0.2378 -0.0074
20940W        W37787  17.113   8.444  13.070 -0.1315 -0.1312 -0.0997
20941W        W37788   0.328   3.586   3.363  0.1922 -0.1192  0.1536
20942W        W37789  15.018   0.216   0.876  0.2199 -0.0903 -0.0579
20943W        W37790   5.024  15.810  12.833 -0.0155  0.0978  0.2216
20944W        W37791  14.116   4.285  12.520 -0.0155 -0.0858 -0.1442
20945W        W37792   4.146  15.295  13.204 -0.0291  0.0620 -0.0957
20946W        W37793  11.560   7.481  14.640  0.1759  0.1904  0.0294
20947W        W37794   2.288  12.125   2.468 -0.2230  0.0804 -0.2734
20948W        W37795   4.394  12.255  11.319 -0.0447 -0.0686 -0.1293
20949W        W37796   7.238  15.673  11.978  0.1077  0.0682 -0.1889
20950W        W37797   4.521  12.090  11.812 -0.1916  0.4260 -0.0218
20951W        W37798  17.816   8.971  14.823 -0.2495 -0.0009 -0.3095
20952W        W37799   8.432  18.096   2.615  0.3049 -0.0711 -0.0659
20953W        W37800  18.360   8.197   5.469  0.0127  0.1173  0.0315
20954W        W37801   0.071   8.604  12.750  0.1112  0.0377  0.0948
20955W        W37802   8.597  11.167  11.227 -0.3796 -0.1574  0.2024
20956W        W37803  12.956  16.608   3.036 -0.1302 -0.0511 -0.2580
20957W        W37804  18.525  12.780  12.605 -0.2841  0.4510 -0.0508
20958W        W37805  18.459   3.748   1.319  0.2738 -0.0918 -0.2370
20959W        W37806   2.237   9.509   3.928 -0.0164  0.1679 -0.0193
20960W        W37807  12.600  11.151   3.630  0.0339  0.1281  0.4897
20961W        W37808  18.628   2.073  11.994 -0.0109  0.2442 -0.3835
20962W        W37809  15.262   0.685  15.381  0.3292 -0.3858  0.4392
20963W        W37810   3.843   2.864  14.096 -0.1670 -0.1050  0.2112
20964W        W37811  17.656  10.783  15.316 -0.0602  0.0848 -0.1441
20965W        W37812  12.268  12.713  13.224 -0.1214  0.0562 -0.0851
20966W        W37813   8.802  15.151  13.394 -0.0838 -0.1195  0.3094
20967W        W37814   1.683  17.446  10.530 -0.1267  0.0223  0.0811
20968W        W37815  11.867   2.137   1.489 -0.0758 -0.0676 -0.0656
20969W        W37816   3.257  16.789  13.074  0.0445 -0.1701  0.1898
20970W        W37817   3.002  15.540  10.392  0.0577 -0.1341  0.3564
20971W        W37818  16.455   9.766   1.055 -0.2614  0.1284  0.0796
20972W        W37819   7.500  18.188   2.227  0.0822 -0.1132 -0.3335
20973W        W37820   0.933  17.819  13.916  0.1695 -0.2267 -0.2925
20974W        W37821  11.362  17.327  12.653 -0.1378  0.2232 -0.0292
20975W        W37822  18.403   6.802  15.487  0.0918 -0.0765  0.2247
20976W        W37823  16.937  12.072   2.463  0.0363 -0.0323  0.1525
20977W        W37824  13.523   6.377   5.557 -0.0314 -0.0427 -0.0143
20978W        W37825  17.017  17.638   3.146 -0.0048  0.0051  0.1141
20979W        W37826   7.191   2.657   5.024 -0.0741 -0.2157  0.1344
20980W        W37827  15.628   1.685  12.993  0.3922  0.1628 -0.1140
20981W        W37828   8.547   6.460   2.782 -0.2484  0.2112 -0.2558
20982W        W37829   6.730  10.657   2.905 -0.0033  0.3299  0.5066
20983W        W37830   1.152   2.043  14.072  0.3208 -0.1314  0.1925
20984W        W37831  10.100   9.123   1.796 -0.0164 -0.1438  0.2818
20985W        W37832   9.215   1.681  15.030 -0.2073 -0.1073  0.1447
20986W        W37833   5.656   0.118   4.750 -0.0118 -0.1493 -0.1415
20987W        W37834  16.545  10.087  12.675  0.4642  0.0534  0.0024
20988W        W37835   1.216   3.592  12.254  0.1554 -0.0607  0.1648
20989W        W37836  11.264   4.179   3.058  0.1184  0.2709  0.2212
20990W        W37837  10.882  11.829   5.393 -0.0029 -0.1865 -0.4024
20991W        W37838   9.739   2.808   2.648 -0.1887 -0.5787  0.0268
20992W        W37839  17.456  18.110   0.575  0.3092 -0.3020 -0.1754
20993W        W37840   3.807  14.539  11.601  0.0452  0.1299 -0.1824
20994W        W37841   8.223   6.433  13.813  0.2008 -0.1732 -0.1699
20995W        W37842  16.713   5.204   2.356  0.1826  0.0227  0.1820
20996W        W37843  11.698  18.318   3.323 -0.3097  0.2004  0.1309
20997W        W37844  14.553  12.128   2.580 -0.1902  0.1646  0.0287
20998W        W37845   3.421  17.829  13.092 -0.0574  0.0440  0.0819
20999W        W37846   8.775   1.523   5.529 -0.2000  0.1093 -0.1544
21000W        W37847  10.000   2.612   4.280 -0.2451  0.1211  0.1576
21001W        W37848  15.554   0.668   3.015  0.1596 -0.2468  0.1728
21002W        W37849   5.334   5.064   1.104  0.0369  0.1925  0.0953
21003W        W37850  11.884   4.558  13.508  0.1979 -0.1344 -0.0654
21004W        W37851  15.710  12.159   3.732 -0.0930 -0.2328 -0.0443
21005W        W37852  10.106   7.707   0.943  0.1079 -0.1446 -0.3643
21006W        W37853  15.727  16.689   2.208  0.1629  0.0454 -0.1170
21007W        W37854  17.312   0.247   2.716  0.2763 -0.2801 -0.1532
21008W        W37855  15.424  12.079   0.055  0.3350  0.1075  0.0261
21009W        W37856  10.368  12.063  12.329 -0.2920 -0.1913  0.0876
21010W        W37857  13.508   9.273  13.513  0.0086 -0.1942  0.0107
21011W        W37858   4.588   8.490  12.744 -0.2447  0.1512 -0.0139
21012W        W37859  14.771   2.833   5.250  0.1520 -0.0004  0.3055
21013W        W37860   2.267   6.994  14.234 -0.0111  0.0133 -0.0797
21014W        W37861   0.590   9.687   4.626 -0.0725 -0.0371 -0.3483
21015W        W37862  14.237  16.423  12.621 -0.2546  0.0618  0.0644
21016W        W37863  18.343   3.143   5.904 -0.0482 -0.1985 -0.1429
21017W        W37864   2.502   2.918   2.555  0.0414 -0.0831 -0.4615
21018W        W37865   1.499  17.578  11.094 -0.0734  0.1494  0.1209
21019W        W37866  10.965   3.973   3.444 -0.0002 -0.2976  0.1814
21020W        W37867   5.275   1.610  13.253 -0.0285 -0.3054 -0.1191
21021W        W37868   7.056  15.559  11.527 -0.0326  0.0609  0.0793
21022W        W37869  12.052  15.616  14.856 -0.1487  0.2387  0.1294
21023W        W37870  15.785  18.208   0.449  0.0087  0.1077 -0.1747
21024W        W37871   0.737   8.218   4.260 -0.0359  0.2964 -0.0011
21025W        W37872  14.970  10.950   0.019 -0.1577  0.4350 -0.1572
21026W        W37873  15.730   6.674   0.949  0.2107 -0.4233  0.0105
21027W        W37874   4.548   4.797  14.421 -0.0545 -0.2871  0.1291
21028W        W37875  16.829  10.224  11.560 -0.2399 -0.1596 -0.2899
21029W        W37876  11.320  16.596   1.368  0.0010  0.0520  0.1808
21030W        W37877  11.184   3.456  13.597 -0.3523  0.0038 -0.1439
21031W        W37878   5.703  18.166  13.296  0.2315  0.1870  0.2318
21032W        W37879   0.148  11.858  11.444  0.0195 -0.0695  0.2040
21033W        W37880  10.981   6.943  13.913  0.1603  0.1574 -0.2002
21034W        W37881  17.556   1.789  10.167 -0.0452  0.0784 -0.0079
21035W        W37882   0.825   9.971   3.312  0.1117 -0.0814 -0.1923
21036W        W37883   4.992  10.107   1.415 -0.0313 -0.1870  0.1090
21037W        W37884   2.402   8.097  12.389 -0.1013 -0.2516 -0.1390
21038W        W37885  14.402   2.726   3.361 -0.0959 -0.3257 -0.3632
21039W        W37886  16.694  14.968   3.688 -0.1330  0.1953  0.0623
21040W        W37887  16.114   1.340  14.695  0.0212 -0.3158 -0.1403
21041W        W37888  10.090   8.919   4.342  0.1867 -0.1177  0.4091
21042W        W37889  14.769  14.261   5.085  0.1726  0.2562 -0.0260
21043W        W37890  14.689   9.411   3.727  0.1439 -0.1804 -0.1725
21044W        W37891   9.540  17.809   0.316 -0.1000 -0.0074  0.1379
21045W        W37892  18.128  16.955   1.221 -0.0597  0.1598  0.1693
21046W        W37893   7.769   7.297  12.642  0.0788 -0.0335  0.0052
21047W        W37894  15.935   4.493   6.129 -0.2411 -0.2837 -0.1714
21048W        W37895  16.208  14.882   5.477  0.2046  0.0472  0.0988
21049W        W37896   9.427   7.091   0.560 -0.0604  0.2233  0.0372
21050W        W37897   8.734  15.642   2.334 -0.0738 -0.2680 -0.0850
21051W        W37898   8.410  17.967   1.186 -0.2469  0.0168  0.0540
21052W        W37899  17.359   9.248   3.279 -0.2989  0.1967  0.0998
21053W        W37900   1.423  11.009  11.578 -0.1413  0.0712 -0.1284
21054W        W37901  11.995   7.048  13.654 -0.2282  0.1060  0.2658
21055W        W37902  13.800  11.917   4.370  0.1446  0.0770 -0.0188
21056W        W37903   7.027  17.511  14.951  0.0595 -0.0157  0.2766
21057W        W37904   9.431  13.753  13.381 -0.1338  0.1578 -0.2562
21058W        W37905  13.975  12.219   4.928  0.1156  0.2895 -0.0510
21059W        W37906  18.096   5.906   1.945 -0.0829  0.0118  0.1342
21060W        W37907   4.329   3.762   3.108 -0.0115 -0.5120  0.1207
21061W        W37908   5.412   5.403   4.299  0.0609  0.0977 -0.1156
21062W        W37909   7.820   4.709  15.309 -0.2173  0.4910  0.0110
21063W        W37910   4.156   0.438   4.696  0.0774  0.0259 -0.2353
21064W        W37911  15.282   0.907   2.255 -0.3432 -0.0225  0.1001
21065W        W37912  11.813  11.843   0.699  0.1036 -0.1450 -0.2431
21066W        W37913   7.299   4.853   2.040 -0.1416 -0.2878 -0.0918
21067W        W37914  16.498  15.689   2.532  0.1986  0.0870 -0.0464
21068W        W37915   4.110   6.047  12.792 -0.0391  0.0343  0.1759
21069W        W37916   9.033   7.957   0.437  0.2095  0.0709  0.2904
21070W        W37917  15.176   1.163  13.066  0.0541  0.0969 -0.1196
21071W        W37918  13.481   0.889  14.825  0.0342 -0.1727 -0.3035
21072W        W37919   2.263   3.105   0.816  0.1990  0.3088  0.1108
21073W        W37920  16.773   8.682  10.816 -0.0558  0.0236 -0.1555
21074W        W37921   3.602  15.540  15.342 -0.3138  0.3162  0.1297
21075W        W37922   3.918   9.100   2.172  0.0848  0.2892 -0.1338
21076W        W37923   4.773  14.723   0.396  0.0380 -0.0427  0.0022
21077W        W37924   6.002  11.197  13.503 -0.1033  0.0962 -0.0486
21078W        W37925   0.996   4.187  13.329 -0.1679 -0.2332 -0.3144
21079W        W37926  14.913   2.332  14.529  0.0111  0.1471 -0.2974
21080W        W37927   9.739   3.957  11.419 -0.3016 -0.1076 -0.0429
21081W        W37928   2.474  11.068   4.509  0.3694 -0.3645 -0.1474
21082W        W37929  16.308  13.856   2.531 -0.1265  0.1732 -0.2668
21083W        W37930   7.856   7.862   4.532  0.2417  0.0263 -0.0372
21084W        W37931   6.940   9.092   2.231  0.0108  0.1607  0.0179
21085W        W37932  10.954   2.663   0.037 -0.0487  0.1800 -0.0488
21086W        W37933  12.685  14.272  13.938 -0.0639 -0.0175 -0.2059
21087W        W37934   6.674  10.679   0.021  0.2460 -0.0819  0.2719
21088W        W37935   6.406  14.188   0.328 -0.0877 -0.0860  0.0563
21089W        W37936  16.217  18.571  13.967  0.1971  0.0861  0.2444
21090W        W37937   5.897   0.388  15.139  0.1038  0.0307 -0.0432
21091W        W37938   1.690   4.673  15.294 -0.1135 -0.1043  0.0790
21092W        W37939  18.260  11.283   0.862 -0.3280  0.0543 -0.0821
21093W        W37940   9.584  13.609   1.709  0.1285 -0.1415  0.4059
21094W        W37941  12.344   9.087  13.190  0.3436  0.0671 -0.1916
21095W        W37942  18.676   2.357  11.564 -0.2263 -0.0900  0.0171
21096W        W37943   9.847   8.071   5.508 -0.3774  0.5792 -0.1920
21097W        W37944  11.678   5.033   1.580 -0.0484  0.4194  0.1990
21098W        W37945   3.989   5.662   1.103  0.1303  0.3396 -0.2327
21099W        W37946   8.494   6.076   0.810  0.2281 -0.1372 -0.1772
21100W        W37947   0.454   1.499  10.549  0.0525 -0.2941 -0.2548
21101W        W37948   7.621  13.749  10.854 -0.4720 -0.2415  0.0717
21102W        W37949   9.365  12.939  15.531  0.2402 -0.3644 -0.0527
21103W        W37950  15.100  15.662   1.529 -0.0432  0.0736  0.0384
21104W        W37951   9.991   7.538  12.248 -0.2684 -0.0652  0.1707
21105W        W37952  14.175   9.689  11.266 -0.3173 -0.2320  0.2258
21106W        W37953  18.374   7.989   3.165 -0.0157  0.3095 -0.1061
21107W        W37954  12.275   5.995  15.135 -0.1961 -0.1805  0.0182
21108W        W37955  17.326   1.812  12.306 -0.1523  0.0757 -0.1571
21109W        W37956  10.573  13.899  14.639  0.1676  0.2399  0.0867
21110W        W37957   8.350   8.546  12.993  0.0143 -0.0809  0.1978
21111W        W37958   7.210   5.781   2.329 -0.2308  0.0256 -0.3035
21112W        W37959  13.080  13.320   2.681 -0.2778 -0.0937  0.1413
21113W        W37960   1.788  10.146  10.386 -0.3400 -0.1093 -0.2675
21114W        W37961   3.732  16.708  10.928 -0.3017  0.2593 -0.1541
21115W        W37962  15.827  15.949  10.683  0.1280  0.2932 -0.0587
21116W        W37963  11.852  12.728  12.067  0.1973  0.2510  0.3691
21117W        W37964   4.188  11.979   4.488 -0.1744 -0.1392  0.0838
21118W        W37965  14.360   2.827   2.867 -0.1990 -0.3128  0.1583
21119W        W37966  11.750  11.193   3.086  0.1417  0.1199  0.0861
21120W        W37967   4.448   7.126   2.531  0.1358  0.2776 -0.1933
21121W        W37968   3.400   7.616  13.369 -0.3385 -0.0677 -0.0505
21122W        W37969   0.983   4.562  11.148  0.0680 -0.5050  0.3587
21123W        W37970   1.239   7.493  14.949  0.1507  0.1990 -0.0425
21124W        W37971  16.550  10.115   1.896 -0.2154  0.2107  0.0041
21125W        W37972   9.472   5.425  15.096 -0.2873 -0.0917 -0.3035
21126W        W37973   7.457   9.372  14.651  0.2317  0.1634 -0.1078
21127W        W37974   5.003   4.739  11.089 -0.1732 -0.0184 -0.0099
21128W        W37975   5.869   5.253   4.025  0.1043 -0.1776  0.2801
21129W        W37976  11.199  18.363  11.998  0.2201  0.1037 -0.1476
21130W        W37977  12.254   6.404   4.319 -0.1499  0.1145  0.4486
21131W        W37978   7.014  15.518   1.487  0.1123  0.2062  0.3541
21132W        W37979  13.824   5.444  15.281 -0.0747 -0.0817  0.0071
21133W        W37980  15.507   3.296   2.036  0.3283  0.0201 -0.1272
21134W        W37981   4.219   2.183  10.555  0.1113 -0.1983 -0.1484
21135W        W37982   5.191   7.700   2.360 -0.2467  0.0671 -0.1093
21136W        W37983   4.778  10.716  11.818 -0.1207 -0.2198  0.2510
21137W        W37984  10.973   4.850  15.510 -0.0341 -0.2753  0.1136
21138W        W37985   5.231  11.374  11.959  0.0649 -0.0978 -0.0170
21139W        W37986   7.051  13.652  13.623  0.3268 -0.2289  0.0471
21140W        W37987  14.696   6.398   2.872  0.1696 -0.1080  0.0930
21141W        W37988  10.631  17.660  14.336  0.1909 -0.0388 -0.0757
21142W        W37989  11.850  15.215  12.288  0.0238 -0.1033 -0.0590
21143W        W37990   2.156   2.657   2.841 -0.1172  0.0112 -0.0240
21144W        W37991   3.837   6.442  12.710 -0.2848  0.4042 -0.0457
21145W        W37992   9.669   8.541   0.503  0.0247  0.2933  0.0884
21146W        W37993  13.810  18.233  12.574 -0.1692 -0.0301 -0.1449
21147W        W37994  14.140   0.921   4.997 -0.1910 -0.0595  0.0929
21148W        W37995   7.137   8.981  10.603  0.0151 -0.3944  0.3628
21149W        W37996  14.722  18.672  13.637 -0.2070 -0.0934 -0.1555
21150W        W37997   9.629   6.082   2.654  0.2426 -0.1485  0.0263
21151W        W37998  10.077  17.657   1.388 -0.1604  0.0954 -0.0011
21152W        W37999   6.626   3.546  14.340 -0.1194  0.2466 -0.1014
21153W        W38000   2.056   8.539   4.697 -0.0138  0.1513  0.0236
21154W        W38001  11.027  12.005   4.854 -0.0414  0.1660 -0.1144
21155W        W38002  16.382   8.313   3.345  0.2052 -0.1573  0.2085
21156W        W38003   0.927   3.946   4.658  0.3077 -0.1794 -0.3006
21157W        W38004   9.631   3.564  15.240 -0.2231 -0.0086  0.0442
21158W        W38005  12.861   0.869   5.142  0.1948 -0.2642 -0.0730
21159W        W38006   8.289  15.623  11.174 -0.2342 -0.0519  0.0950
21160W        W38007  11.915  18.635  14.168  0.0769 -0.1173  0.2239
21161W        W38008   8.979   8.773   9.549 -0.1661 -0.0177 -0.2069
21162W        W38009   2.107   2.643   1.006 -0.2371 -0.0284  0.1600
21163W        W38010   4.740  18.521   4.643  0.1723  0.1774 -0.0399
21164W        W38011  17.271  17.652  11.794 -0.3929  0.1722  0.0187
21165W        W38012   8.948  10.163  15.155 -0.0458  0.0494 -0.1177
21166W        W38013   8.463  11.654  14.091 -0.1959  0.1164  0.0509
21167W        W38014  10.669  13.467  15.346 -0.2496 -0.1342  0.0576
21168W        W38015  14.807  11.845   5.957  0.0952 -0.1651 -0.1485
21169W        W38016  14.894  11.771   2.781 -0.0240 -0.1210 -0.1471
21170W        W38017   8.095  16.291  13.596  0.1490  0.3897  0.1996
21171W        W38018  15.319   5.235   5.111 -0.0407  0.0779  0.1956
21172W        W38019  18.455  17.997  11.276  0.3734 -0.1615  0.0562
21173W        W38020  12.809  12.993   5.077  0.0330 -0.0256  0.2504
21174W        W38021  18.115  11.703  12.046  0.4799 -0.2062 -0.2424
21175W        W38022   6.905  15.874  14.462  0.0167  0.1657  0.0441
21176W        W38023   3.721   5.518   2.574 -0.1891 -0.0517  0.1027
21177W        W38024   1.992  15.191   1.153  0.0653 -0.0295 -0.0376
21178W        W38025   0.663  12.942  11.431 -0.0448  0.2045 -0.2134
21179W        W38026  12.880   3.974  14.035  0.0594 -0.0402 -0.3298
21180W        W38027   0.518   9.201   4.128  0.3305 -0.2163 -0.2185
21181W        W38028  12.329   8.553   1.082  0.1776  0.0287  0.2121
21182W        W38029   7.311  17.463   3.444 -0.1161 -0.1180 -0.0656
21183W        W38030   1.629  14.083   3.361  0.0316 -0.1075  0.1441
21184W        W38031  18.016  11.905  15.257 -0.0174 -0.0208 -0.1186
21185W        W38032  16.563   0.786  13.050 -0.2503 -0.0074 -0.1287
21186W        W38033  14.447  13.410   3.152  0.3083  0.2645  0.0201
21187W        W38034   3.795   8.132  14.760 -0.1386 -0.0677  0.0984
21188W        W38035   1.835  13.881   4.628 -0.2728  0.3113 -0.0632
21189W        W38036  10.491  14.371  14.856  0.1204 -0.0289 -0.0608
21190W        W38037  18.837  10.692  12.431 -0.3258  0.1974 -0.1921
21191W        W38038  17.063   7.885   4.271 -0.0629 -0.0003 -0.1016
21192W        W38039   7.097   2.558   3.396 -0.0028  0.0705 -0.0165
21193W        W38040  13.299   6.599   3.274 -0.1200 -0.1996  0.3493
21194W        W38041   5.660   0.107   1.330  0.1044  0.2319  0.0266
21195W        W38042  14.391  14.855  13.478 -0.2983 -0.1051 -0.2759
21196W        W38043   1.819   0.696  14.594  0.2972  0.0476 -0.0294
21197W        W38044  17.641  15.737  13.883  0.2854 -0.3790 -0.1394
21198W        W38045   0.930   5.717   1.390  0.0961 -0.0392 -0.2046
21199W        W38046  16.585  17.165   5.170  0.0536 -0.0668 -0.2439
21200W        W38047  12.923  12.551   4.907 -0.1291  0.3420  0.0400
21201W        W38048  16.872  17.254   0.055  0.1136 -0.1098  0.0207
21202W        W38049  16.368   7.851   3.000 -0.2877  0.2498 -0.2672
21203W        W38050   8.161  16.705  11.365 -0.1174  0.0026  0.0247
21204W        W38051  16.541   3.146  11.346  0.0716 -0.0692 -0.1348
21205W        W38052   9.824   5.985  13.193 -0.1261  0.1587 -0.1461
21206W        W38053   3.141  13.007  14.251  0.1612  0.2306  0.1069
21207W        W38054   5.512  13.757  13.166  0.0048  0.1671  0.1980
21208W        W38055  15.737   7.732   1.007  0.2569 -0.1839 -0.1599
21209W        W38056  12.656   0.607  14.945 -0.0873  0.0195  0.1147
21210W        W38057   4.024  18.280   2.138 -0.0757  0.1036  0.0221
21211W        W38058  12.842   6.927  13.910 -0.2258  0.4046 -0.0007
21212W        W38059   9.766   0.386   1.095 -0.0507 -0.0856 -0.2074
21213W        W38060  18.405  14.221   0.577 -0.0259  0.1947 -0.1843
21214W        W38061   5.649   3.482  14.051 -0.3463  0.3261  0.1514
21215W        W38062  12.664  14.582   5.655 -0.2105 -0.2792 -0.1155
21216W        W38063  18.757   3.973  12.747 -0.0123 -0.3228  0.0952
21217W        W38064   6.187   7.067   3.597  0.0499  0.0558 -0.0846
21218W        W38065  16.747  12.018  14.828 -0.0180  0.2794 -0.1982
21219W        W38066   3.850  11.097  13.730 -0.0424  0.1787 -0.3254
21220W        W38067  16.977   5.211   0.194 -0.1237 -0.1879 -0.0396
21221W        W38068  10.511   8.274   2.218  0.0677  0.1056  0.1721
21222W        W38069  16.767  14.086   2.407  0.1276  0.0601  0.0784
21223W        W38070   5.388   1.442  11.133 -0.0697 -0.3412 -0.1313
21224W        W38071   1.600  18.790   0.283 -0.3284 -0.0637  0.1831
21225W        W38072  14.497   9.157  13.081  0.0287  0.2577  0.1757
21226W        W38073  15.721  14.083  14.529  0.1525  0.1183  0.1676
21227W        W38074   1.481   7.440  10.984  0.2088  0.2062 -0.0131
21228W        W38075   4.811  18.248   4.237 -0.2093 -0.0599  0.0162
21229W        W38076   6.849   4.234  12.065 -0.0858 -0.0546 -0.1487
21230W        W38077   2.924  18.207  12.489  0.1289 -0.0121 -0.2706
21231W        W38078   3.056  18.785   0.047  0.0819  0.0855  0.0122
21232W        W38079   3.211  13.484   3.065  0.0293  0.2111  0.3593
21233W        W38080  17.396   4.573  11.668  0.2600  0.0468  0.0721
21234W        W38081  18.103  11.336   1.366  0.1175 -0.0584  0.0509
21235W        W38082   8.736   3.781   4.538  0.0800 -0.1106  0.2370
21236W        W38083  12.462   6.738  13.633 -0.0512  0.0957  0.0737
21237W        W38084   3.313   4.450  12.285 -0.2364 -0.0923 -0.0166
21238W        W38085   6.071   5.564   3.668  0.2047 -0.0956 -0.2956
21239W        W38086   6.187   6.492   2.658 -0.0688  0.0161 -0.3575
21240W        W38087   6.574   2.435   4.142 -0.0933 -0.0905  0.2026
21241W        W38088   1.231   2.460   1.273 -0.2688  0.0442 -0.1291
21242W        W38089  13.680   2.611   0.095  0.1433 -0.1279 -0.0923
21243W        W38090  11.987  16.569  14.964 -0.1594 -0.1112  0.1109
21244W        W38091  18.748  18.079   3.248  0.0480  0.1289 -0.0954
21245W        W38092   6.338   5.180  12.882  0.2549 -0.2306 -0.3185
21246W        W38093   7.492   5.224  13.604  0.0514  0.0852  0.0599
21247W        W38094   1.200  12.718   4.113  0.3519  0.1789  0.3412
21248W        W38095  15.931  13.276   2.524  0.0977  0.1081 -0.0542
21249W        W38096  16.272   1.306   1.061 -0.1233  0.1716 -0.2223
21250W        W38097  14.513  10.289   4.784  0.1023 -0.2388 -0.3024
21251W        W38098  14.085   7.257   0.486  0.1832  0.0766 -0.0044
21252W        W38099   2.912   8.438  11.726 -0.1850  0.0026  0.1710
21253W        W38100   7.933   1.904   4.375  0.0306  0.2904 -0.2313
21254W        W38101  14.003  18.044  13.024 -0.0552 -0.3215 -0.0356
21255W        W38102   2.323  15.042   5.630 -0.4030 -0.1487  0.0710
21256W        W38103  13.946   5.025   4.938  0.1954  0.0506 -0.2218
21257W        W38104   0.325   6.231  12.410 -0.0962  0.0353 -0.4455
21258W        W38105   5.715   3.855  15.557  0.0890 -0.2209 -0.1230
21259W        W38106   8.674   2.986   4.956  0.2360  0.2560 -0.0316
21260W        W38107  10.139  15.898  15.334 -0.4259 -0.1215 -0.0606
21261W        W38108  15.942   1.622   1.516 -0.3633 -0.2099 -0.1182
21262W        W38109  13.017  17.720  11.950 -0.1146  0.1495 -0.1648
21263W        W38110  14.474  15.987  12.468  0.2259  0.0485  0.0885
21264W        W38111  16.516   3.511   3.076 -0.2358 -0.1497  0.1116
21265W        W38112   9.541  14.323  12.276  0.2392 -0.2056  0.2428
21266W        W38113   9.424   9.335  12.614  0.1267  0.2578 -0.2076
21267W        W38114   4.295   3.925   1.065 -0.1630 -0.3876  0.2095
21268W        W38115   5.435  12.871  12.995 -0.1871 -0.1998 -0.1066
21269W        W38116   7.243   2.867   2.776 -0.0904  0.2957  0.0004
21270W        W38117  11.101   0.616   4.687  0.1424 -0.1299 -0.2437
21271W        W38118   2.765  14.908  13.955  0.1782  0.1667  0.0011
21272W        W38119  17.296   3.412  14.973  0.0484  0.0702  0.0256
21273W        W38120   6.727   2.311   5.511 -0.1512  0.1686  0.0298
21274W        W38121  18.562   7.670  12.675 -0.0570  0.1498 -0.0348
21275W        W38122  14.426   5.440  13.353 -0.0997 -0.1325  0.0474
21276W        W38123   6.669  12.479   3.168  0.0365 -0.1416 -0.1299
21277W        W38124  10.634  14.163  10.878  0.0908 -0.2033 -0.0379
21278W        W38125  16.120  15.813  13.251 -0.3494 -0.0026 -0.4947
21279W        W38126   4.818   5.515  14.301  0.1430  0.1367 -0.3312
21280W        W38127  13.472   8.073   4.322 -0.2525 -0.0383  0.0253
21281W        W38128   9.568  10.053   3.332 -0.1351  0.0743  0.4359
21282W        W38129   9.028   4.829  12.672 -0.0910 -0.1675  0.0231
21283W        W38130  13.269   1.275  12.633  0.0222 -0.0923  0.1968
21284W        W38131  12.991   7.044  12.713 -0.0025  0.0153  0.2050
21285W        W38132  12.474   3.181   2.954  0.1163 -0.1329  0.2354
21286W        W38133  16.435   9.051  12.648  0.1723  0.0416 -0.0680
21287W        W38134  13.776   0.587  14.608  0.1590  0.0117 -0.4510
21288W        W38135   3.113  10.964   2.620  0.2493  0.3145 -0.1482
21289W        W38136   6.267   0.911  11.676  0.2837  0.1888 -0.2284
21290W        W38137   5.619   2.840   2.690 -0.4036  0.2723 -0.0018
21291W        W38138  17.596  18.172   2.598 -0.2622  0.1600  0.0792
21292W        W38139  14.957  10.903   3.190  0.2765 -0.0300  0.1390
21293W        W38140   9.604  14.092   4.475 -0.3878  0.2326  0.0677
21294W        W38141   2.743  10.056  13.898 -0.0708 -0.1281  0.5107
21295W        W38142   3.740   4.559   0.568  0.1398  0.0853  0.0912
21296W        W38143  15.149  14.265   0.719  0.1795  0.2376 -0.0388
21297W        W38144  12.093  16.187  10.808 -0.2607 -0.0612  0.2134
21298W        W38145   4.813   6.521  12.600 -0.1806 -0.2963 -0.0750
21299W        W38146  16.307   4.746   1.139 -0.0080 -0.1552  0.0503
21300W        W38147   3.142   9.775  13.986 -0.0251  0.2423  0.2418
21301W        W38148   7.572   6.825   3.288 -0.2937 -0.2116 -0.1015
21302W        W38149   8.378   2.647  14.173  0.2922  0.4754 -0.0162
21303W        W38150   1.553  14.861   1.932 -0.2745 -0.0091  0.1270
21304W        W38151  12.283   2.832   1.310 -0.4183  0.1083  0.2128
21305W        W38152  12.036   8.153  15.285 -0.1478  0.2953  0.2984
21306W        W38153   1.131   9.681   4.528 -0.0894 -0.1035  0.0728
21307W        W38154   7.293  13.252  11.014  0.1173 -0.0390  0.0925
21308W        W38155   7.576   5.532  14.089 -0.1739 -0.0011  0.0953
21309W        W38156   5.567  17.696  11.313 -0.2407  0.0710  0.3443
21310W        W38157   9.077  15.849  14.632 -0.0286  0.3212  0.0090
21311W        W38158   9.395   0.202   4.941 -0.1204 -0.1703 -0.3707
21312W        W38159   0.763  17.504  14.689  0.1725 -0.0256  0.3279
21313W        W38160   5.330  15.644  13.813  0.0575 -0.1168  0.0652
21314W        W38161  14.229   3.315  11.165 -0.0269 -0.0654  0.1221
21315W        W38162  14.928   6.175  10.542  0.1294 -0.2001  0.1571
21316W        W38163  14.845   0.732  12.354  0.1468 -0.1528 -0.1178
21317W        W38164  16.226  13.632  12.441 -0.0679  0.0730  0.3359
21318W        W38165  13.405   5.703   3.745 -0.1097  0.1221  0.0851
21319W        W38166  17.518  14.831  14.500 -0.4541  0.1202 -0.0771
21320W        W38167  12.947   7.899   3.932  0.4540 -0.2858  0.1607
21321W        W38168  11.199   5.060  11.423 -0.0651 -0.0979 -0.1306
21322W        W38169  10.043   2.087   1.955  0.0538 -0.0633  0.2594
21323W        W38170   3.990   9.636  15.320  0.1170  0.0060  0.0954
21324W        W38171   5.301  12.762   3.856  0.0244  0.2466  0.3829
21325W        W38172  17.932  16.180  13.828  0.1629 -0.0225 -0.2619
21326W        W38173  15.995  18.839   4.591 -0.0034 -0.2510 -0.0981
21327W        W38174  11.280   1.905  15.273 -0.0323  0.1413  0.0481
21328W        W38175   7.418  10.834   2.717  0.1361 -0.2038  0.1534
21329W        W38176   4.805  10.362  13.550 -0.0713  0.1614 -0.0099
21330W        W38177  13.273   3.130   2.327 -0.0998 -0.3587 -0.1509
21331W        W38178  14.357   7.564   9.586  0.1061 -0.1517 -0.1824
21332W        W38179   8.781   6.392   4.324  0.0940 -0.1533 -0.1001
21333W        W38180   1.367   2.603   0.224 -0.0213 -0.1531  0.0789
21334W        W38181   2.045  17.117   3.672 -0.3135 -0.1356  0.0758
21335W        W38182   8.847  16.141   2.742  0.0650 -0.1015 -0.1427
21336W        W38183  12.409   2.549   3.213 -0.1697 -0.1219  0.3998
21337W        W38184   7.698  14.407  14.918 -0.1241 -0.3076 -0.1834
21338W        W38185  15.750  17.271   3.743  0.1489 -0.0632  0.1010
21339W        W38186   2.563   0.693   5.242  0.0755 -0.1140  0.2856
21340W        W38187  11.698   4.486  13.025 -0.1805 -0.2085 -0.1634
21341W        W38188   4.096  13.094  14.237  0.1426  0.3273  0.0718
21342W        W38189   7.858   8.804   2.177  0.0450 -0.0795  0.1787
21343W        W38190   5.326  17.822  11.728  0.0004  0.2897 -0.1992
21344W        W38191  15.939   4.999   1.361  0.2209 -0.0877 -0.0476
21345W        W38192  10.245   9.654   0.856  0.1579 -0.0908 -0.3068
21346W        W38193  10.534   2.593   5.317  0.0827 -0.1326 -0.0879
21347W        W38194   5.076  15.313  14.686  0.0858 -0.1360  0.1592
21348W        W38195  11.704  10.923   1.459  0.2168 -0.1575  0.1302
21349W        W38196   0.515  16.756   0.356 -0.0967  0.1478 -0.0162
21350W        W38197   9.123   4.852   1.108 -0.0281  0.0949 -0.1847
21351W        W38198   2.977   6.821  11.339 -0.2919 -0.0624  0.0432
21352W        W38199  12.604   9.778  12.310  0.2770  0.4951  0.1481
21353W        W38200   5.869   8.199   2.736 -0.2708  0.1416 -0.1040
21354W        W38201   3.096  18.798   3.826  0.1902  0.0437  0.0834
21355W        W38202  17.536   1.887   0.323  0.1766  0.2224 -0.1844
21356W        W38203  11.110   6.235   3.351  0.0033 -0.3483 -0.1376
21357W        W38204  11.823   3.066  15.026  0.1090 -0.0234 -0.4423
21358W        W38205   7.282  16.423   3.174 -0.0104 -0.3544 -0.2859
21359W        W38206  16.395   8.400  11.140 -0.0654  0.0087 -0.0346
21360W        W38207   5.796  14.776  13.833 -0.0060  0.0647 -0.1012
21361W        W38208  13.957  11.063   1.698  0.0656  0.0468 -0.1531
21362W        W38209   8.113   0.112   4.113 -0.0584 -0.1283  0.1596
21363W        W38210  12.851  18.797   0.741  0.2755 -0.2618  0.2936
21364W        W38211  13.362  13.208  13.960 -0.1622 -0.0686  0.1009
21365W        W38212   0.019  15.883   0.813  0.0850 -0.0487 -0.1809
21366W        W38213   7.940   4.219   4.205  0.1877 -0.0046 -0.2444
21367W        W38214   3.064  11.293  12.944  0.1203  0.1561 -0.1222
21368W        W38215  10.316  14.239   0.741  0.0415 -0.1036  0.1550
21369W        W38216  13.838   2.044  11.942  0.1603 -0.2834  0.1315
21370W        W38217   3.340  15.476  11.208  0.2139 -0.1184  0.1311
21371W        W38218  15.726  16.297  12.594  0.1847 -0.0932 -0.0683
21372W        W38219   0.010   6.984   5.415  0.0391  0.1235 -0.0156
21373W        W38220   7.847  16.915  11.786 -0.2212  0.1879 -0.0490
21374W        W38221  15.669  15.609  15.523  0.2118 -0.0145  0.0751
21375W        W38222  10.133  16.394  15.412  0.4945 -0.2036 -0.2958
21376W        W38223   2.790  11.841  11.818 -0.0382  0.0372  0.2404
21377W        W38224  18.388  12.449   4.891  0.2644  0.1852 -0.0579
21378W        W38225   8.834   9.695  15.013  0.3559  0.1535 -0.2280
21379W        W38226   8.562  12.467  12.338 -0.0575 -0.2695 -0.2238
21380W        W38227  10.161   6.965   6.062  0.0762 -0.0613  0.1115
21381W        W38228   8.423   1.700  13.205 -0.3437  0.1108 -0.2883
21382W        W38229   7.980  10.523   3.908 -0.1740 -0.0777  0.0567
21383W        W38230   1.376   5.680   2.251  0.1988 -0.0393  0.2568
21384W        W38231   4.881  13.100  13.677 -0.2791 -0.0766  0.2584
21385W        W38232   3.130   4.157   5.045 -0.3328  0.1530 -0.0290
21386W        W38233  11.173  11.696  13.736  0.1873 -0.1206  0.1873
21387W        W38234   4.426  10.291  11.057 -0.2012 -0.0281 -0.0313
21388W        W38235   6.229   4.136  12.830 -0.0112  0.2443 -0.3409
21389W        W38236  11.478  15.909   3.988 -0.0734  0.2592 -0.1728
21390W        W38237   9.767   0.568  14.118  0.0341 -0.2559 -0.3690
21391W        W38238   2.024  15.124   4.425  0.1052  0.0933 -0.1024
21392W        W38239   7.983   2.133  14.947 -0.0033  0.0639 -0.1082
21393W        W38240   4.553  14.323   0.242  0.0827  0.0608 -0.0261
21394W        W38241   6.464  17.889  12.677 -0.1297 -0.1611  0.2429
21395W        W38242  10.499  15.333  15.176  0.0883 -0.0180 -0.1513
21396W        W38243  18.134   6.754  14.334 -0.1913  0.2884  0.1283
21397W        W38244   9.215  12.718   4.516 -0.0780  0.1320  0.1259
21398W        W38245  17.435  17.676  12.830  0.1628 -0.2662 -0.2297
21399W        W38246  12.666   1.975  15.112 -0.3906  0.3936 -0.2379
21400W        W38247  12.952  15.204  11.645 -0.1674  0.2136 -0.1685
21401W        W38248  14.669  10.717  12.677  0.1563  0.0571 -0.0113
21402W        W38249  13.210  15.784   4.807  0.1084  0.0838  0.0299
21403W        W38250  13.725  12.521   1.152  0.1570  0.1637 -0.3515
21404W        W38251   5.363  10.077   4.456 -0.2103  0.0265  0.2419
21405W        W38252  14.768  10.468   3.291  0.0376 -0.1877 -0.2852
21406W        W38253  11.851  10.618   0.476  0.1014  0.2570 -0.2811
21407W        W38254   5.513  10.489  14.194 -0.0223 -0.1098 -0.0980
21408W        W38255  10.113   5.844  12.385 -0.0132  0.1530  0.0490
21409W        W38256   0.533  18.322  10.767  0.0974 -0.1469  0.1685
21410W        W38257   3.762  18.448  15.238 -0.0549 -0.1091 -0.0588
21411W        W38258  16.121   9.457   3.915 -0.1378  0.0379 -0.3592
21412W        W38259   2.190   4.842   0.095  0.1643 -0.1111  0.0909
21413W        W38260  18.242  11.063   3.132 -0.2972  0.0254 -0.1693
21414W        W38261  17.267   0.543  10.603 -0.1024  0.2032  0.2685
21415W        W38262   8.645   5.015   1.036  0.1035  0.2099  0.0811
21416W        W38263  15.383   5.892  11.269 -0.2016  0.0903  0.0453
21417W        W38264   1.758   9.408   4.097  0.1559  0.2732  0.0849
21418W        W38265   7.037   0.388  14.510 -0.2163  0.0484 -0.3114
21419W        W38266  12.362   7.577   3.077  0.0562  0.3672  0.0682
21420W        W38267   0.187  12.861  11.350 -0.0870  0.1259 -0.1060
21421W        W38268  13.792  18.354   5.534 -0.1852 -0.1841  0.1102
21422W        W38269   8.558  14.034  15.265 -0.1953 -0.1928 -0.2358
21423W        W38270   6.177  12.131   4.932 -0.1393 -0.1522  0.0882
21424W        W38271   8.624   1.884   1.955  0.1071 -0.2604  0.1264
21425W        W38272   0.947   9.098   3.372 -0.1695 -0.1894 -0.2500
21426W        W38273   6.537   9.935  12.412 -0.1000 -0.1137  0.1244
21427W        W38274  13.998   9.246  15.120  0.0274  0.0050 -0.0213
21428W        W38275   7.613  16.111   2.243  0.0214  0.1472 -0.2015
21429W        W38276  17.691  16.373  11.943 -0.0356 -0.1938  0.1458
21430W        W38277  13.742  12.707   4.515  0.1669  0.2162  0.0433
21431W        W38278  18.509  10.282   0.645 -0.3493  0.3450 -0.1428
21432W        W38279   9.956  13.668  10.937 -0.1686  0.1061  0.0164
21433W        W38280   9.035   0.902   0.866  0.1145  0.2210 -0.0393
21434W        W38281   3.874  15.985   0.384  0.0608  0.2264  0.0598
21435W        W38282   4.631   3.800  12.606  0.1563 -0.0591 -0.1138
21436W        W38283   2.960   3.904  11.690  0.1470 -0.1352  0.3060
21437W        W38284  18.126   0.361  10.963 -0.1566  0.0337 -0.0713
21438W        W38285  14.706   7.650  10.875  0.2221 -0.1717  0.0186
21439W        W38286   7.588   1.714  15.511 -0.1528  0.0643  0.3162
21440W        W38287  14.047   5.568   5.210  0.0046  0.3508 -0.0196
21441W        W38288   1.944   4.911   0.951  0.1187 -0.0650  0.0184
21442W        W38289  18.639   4.249  14.831  0.0391 -0.0290 -0.0596
21443W        W38290   4.011   9.058  12.555  0.1359 -0.2249 -0.1955
21444W        W38291  12.115   3.705  13.406  0.0223  0.1476  0.1013
21445W        W38292  14.110  18.083  15.038 -0.0908 -0.2275 -0.0459
21446W        W38293   5.426   7.243   1.151 -0.0232  0.0378  0.0974
21447W        W38294   9.044   1.396  14.643  0.1052  0.1421 -0.0731
21448W        W38295   7.077  10.676  12.621  0.1848 -0.1183 -0.1562
21449W        W38296  15.457   1.510   2.449 -0.0605 -0.0009 -0.0766
21450W        W38297  16.019  10.015  13.615  0.0202  0.0650 -0.1831
21451W        W38298   5.994  12.678   0.072  0.0008  0.1804 -0.0513
21452W        W38299  11.709  17.187  10.866  0.0500 -0.3512 -0.1052
21453W        W38300  14.849   3.604   0.729 -0.1004 -0.1785  0.0329
21454W        W38301  11.777   9.441  14.437  0.1015 -0.1893  0.0226
21455W        W38302  16.743   6.660  13.311 -0.0211  0.0079 -0.2780
21456W        W38303   8.290   5.478  10.996 -0.0323 -0.0333  0.1951
21457W        W38304   0.374   5.060   2.003 -0.1311 -0.4276  0.0570
21458W        W38305  16.486  14.605   1.892  0.1396  0.2395 -0.2402
21459W        W38306   8.996   7.598  14.821 -0.4590  0.0660 -0.0166
21460W        W38307   2.594  15.262   0.532  0.0468  0.1193  0.1874
21461W        W38308   9.239   1.515   4.309  0.1223  0.2758 -0.0948
21462W        W38309  17.016   3.657   2.682  0.0917 -0.0698 -0.0984
21463W        W38310   3.245   7.219  14.247  0.0007  0.1723 -0.0016
21464W        W38311  13.373   3.569   1.129 -0.4145 -0.1049  0.0609
21465W        W38312   5.158   1.138  13.650 -0.0236  0.2671  0.1684
21466W        W38313  17.131   7.066  12.560 -0.1032  0.0801 -0.0289
21467W        W38314  10.428  13.946  15.127  0.1559  0.2287 -0.1276
21468W        W38315  16.263  11.188  12.047  0.0392 -0.2149 -0.3954
21469W        W38316   4.180   5.232  12.398 -0.0596  0.0385  0.3400
21470W        W38317  18.239   9.096   5.556 -0.2603 -0.2542 -0.1333
21471W        W38318   5.001  18.028   5.359  0.0516 -0.1744 -0.0511
21472W        W38319   6.088  12.936  11.798 -0.1945 -0.0922 -0.0846
21473W        W38320  15.527  11.558  14.036  0.1795  0.0605  0.2352
21474W        W38321   5.482   0.398  14.805 -0.0718 -0.2028  0.3625
21475W        W38322  12.889   7.705   4.862  0.0308 -0.1667  0.1670
21476W        W38323   0.837   9.213  11.491  0.2378  0.0645  0.0598
21477W        W38324   6.117   6.724  14.579  0.1855 -0.1319  0.1039
21478W        W38325  12.218   3.202  14.601 -0.1412 -0.0172 -0.2458
21479W        W38326  14.332  17.643  14.876 -0.0698 -0.3356  0.0556
21480W        W38327   4.271  10.321   2.840  0.0720 -0.1199 -0.0758
21481W        W38328  12.431   0.133  12.484 -0.0553 -0.0433  0.1886
21482W        W38329  18.169  18.132   3.172 -0.0421  0.1651 -0.0184
21483W        W38330  18.161   0.013   1.790 -0.3171  0.0519  0.1856
21484W        W38331  10.620   7.908   0.137 -0.1390  0.1205  0.0596
21485W        W38332  15.345   4.902   2.096  0.0826 -0.0622 -0.2646
21486W        W38333  11.511  13.781  14.491  0.0547 -0.2532 -0.0733
21487W        W38334   0.960   0.001  12.280 -0.1121 -0.0547 -0.2729
21488W        W38335  16.897   3.147   2.817  0.0024  0.0042  0.2525
21489W        W38336  14.736  12.741   1.381  0.1898 -0.3404  0.0568
21490W        W38337   8.269  15.740   4.464 -0.2233  0.1237 -0.0217
21491W        W38338  18.445   2.490   2.572  0.1868  0.0740 -0.0548
21492W        W38339  16.346  15.324  14.765 -0.0036  0.0323  0.0940
21493W        W38340  14.542  16.544  10.299  0.0843 -0.1499 -0.0504
21494W        W38341  13.496   2.479   4.017  0.1224 -0.0060  0.0020
21495W        W38342  18.839   1.251  13.656 -0.2634 -0.1101  0.0844
21496W        W38343   7.220   8.445  14.428 -0.2575 -0.0647 -0.0274
21497W        W38344  11.126  17.634   0.775 -0.0851 -0.1883 -0.2194
21498W        W38345   3.682   8.086  13.752  0.1350  0.0233  0.3333
21499W        W38346   6.255  18.363  12.405  0.0251  0.3181  0.1105
21500W        W38347  14.770   7.758   0.971 -0.2285 -0.0994  0.3254
21501W        W38348   5.522   8.426  10.929  0.1721 -0.1481  0.1712
21502W        W38349  18.740   7.406   4.450 -0.0749  0.1822 -0.3697
21503W        W38350   9.052  11.278   2.053 -0.0065 -0.0589 -0.2424
21504W        W38351   2.733  13.145  10.496 -0.0620 -0.0381  0.0811
21505W        W38352   4.901  13.962   2.732  0.0562 -0.0860 -0.4402
21506W        W38353  11.305  14.994   2.504 -0.1696  0.1019 -0.0159
21507W        W38354   4.207   6.551   0.099 -0.1516 -0.0438 -0.0310
21508W        W38355  16.093   5.196   4.578 -0.2360 -0.2365  0.3148
21509W        W38356  18.077  17.142  14.354  0.0590  0.0597 -0.2397
21510W        W38357  10.049  15.944  11.290  0.1560  0.2447  0.3282
21511W        W38358  17.287   8.421  12.016 -0.1221  0.0762  0.2081
21512W        W38359   1.690   5.475   2.789  0.0324  0.0604  0.0044
21513W        W38360   4.547  15.667  13.529  0.1072  0.1587 -0.2101
21514W        W38361   5.149  12.320   8.952 -0.0142  0.0704  0.0613
21515W        W38362  18.140   6.741   2.446 -0.1215  0.3769 -0.1666
21516W        W38363  17.417   3.069  10.891 -0.1442 -0.1382 -0.1838
21517W        W38364   6.768   0.709  11.650  0.1715 -0.1062  0.0214
21518W        W38365  13.400  16.906   4.609 -0.0444 -0.1588 -0.1275
21519W        W38366  11.784  15.289  11.740 -0.1300 -0.1170  0.3315
21520W        W38367  16.846  11.755  13.149  0.1300 -0.0294  0.1866
21521W        W38368   0.696  12.720  12.804  0.1295  0.1215 -0.1389
21522W        W38369  18.283  17.905  14.371  0.1440 -0.2505 -0.0139
21523W        W38370   3.027   9.312  14.481 -0.4328  0.0124 -0.0426
21524W        W38371   6.185  17.902  12.198  0.0580 -0.0980 -0.3078
21525W        W38372  16.114   6.262   2.106 -0.0360  0.2174  0.0596
21526W        W38373   2.346   8.530   5.738  0.2027  0.0600 -0.3034
21527W        W38374   4.336  14.747   1.066  0.1644 -0.0946  0.2912
21528W        W38375   3.542  13.272  14.103  0.2308 -0.2019  0.0447
21529W        W38376  14.935   7.622   1.541 -0.1424 -0.0213 -0.2010
21530W        W38377  12.000  14.258  13.719 -0.6124 -0.1345 -0.1051
21531W        W38378   4.844  11.403  15.021  0.0561 -0.0446  0.0599
21532W        W38379  16.711   7.118  10.529  0.2172  0.1357 -0.0478
21533W        W38380  12.553   6.593   0.657  0.3158 -0.1445 -0.0507
21534W        W38381   5.251  17.456   0.300  0.2422 -0.0235  0.1688
21535W        W38382  13.022  13.355  13.640 -0.1701  0.3106 -0.1476
21536W        W38383  13.168   4.967   0.174 -0.0152 -0.1048  0.3611
21537W        W38384   2.773  16.835  10.755 -0.2578  0.0247  0.1924
21538W        W38385  11.436  16.575   2.636  0.0862 -0.0082  0.0423
21539W        W38386  18.481   6.107  13.626 -0.0278 -0.0170 -0.2156
21540W        W38387  16.552  16.314   4.128 -0.0685  0.1978  0.0268
21541W        W38388   5.167   9.789  14.549  0.0295 -0.0060  0.0296
21542W        W38389  15.735   6.488   1.860 -0.0434  0.0817 -0.2096
21543W        W38390   3.984   1.011  11.779  0.3780 -0.1607  0.1033
21544W        W38391  10.294   0.204   3.660 -0.0791 -0.4374 -0.1080
21545W        W38392   4.382   6.081  15.236 -0.1602  0.2196  0.0944
21546W        W38393  12.479   3.512   0.438 -0.3115  0.1158  0.2071
21547W        W38394  10.031  16.405  10.760  0.4427  0.0645 -0.3008
21548W        W38395   4.578  10.784   1.862  0.1002  0.0838 -0.1333
21549W        W38396   3.959   4.250   0.280 -0.1087  0.3220 -0.0114
21550W        W38397  10.353   9.028  12.417  0.2370  0.2989 -0.1644
21551W        W38398   2.901  15.681   3.761  0.2728 -0.0003  0.2281
21552W        W38399  15.461   7.139  13.316 -0.1518  0.0559 -0.1833
21553W        W38400   6.190  15.653   3.239  0.1155 -0.0362  0.1040
21554W        W38401   9.300  11.294   5.056 -0.0741 -0.4367  0.3403
21555W        W38402   1.794   0.729   0.795 -0.0234 -0.0933  0.1055
21556W        W38403   0.467   7.364  12.708 -0.1218  0.0320 -0.0519
21557W        W38404   7.426   0.676  14.281  0.2537 -0.1660 -0.0469
21558W        W38405   0.928   7.333  12.586  0.0625 -0.0862  0.0913
21559W        W38406  17.320   4.159  13.085 -0.3010  0.0720  0.3819
21560W        W38407  17.334  18.684  12.337  0.3859  0.0135 -0.1879
21561W        W38408   7.621   3.882   2.090  0.1417  0.2315 -0.2977
21562W        W38409  11.924  13.847   1.146 -0.0582 -0.0199 -0.0787
21563W        W38410   2.150   4.520   0.537  0.1426 -0.2091 -0.0709
21564W        W38411   2.777   5.924   0.495 -0.0265  0.0766  0.0517
21565W        W38412   7.650  18.293  11.435  0.1955 -0.0728 -0.1463
21566W        W38413  17.508  12.555  13.782 -0.1356  0.5773  0.1158
21567W        W38414   9.737  13.780  14.285  0.2385  0.1513  0.0340
21568W        W38415   9.955   8.748   1.430  0.0883 -0.0368  0.0180
21569W        W38416   4.720   0.535   0.347  0.0495 -0.1448 -0.0526
21570W        W38417  10.986  10.221   4.430 -0.0741 -0.0252  0.1056
21571W        W38418   2.502  12.573   1.548 -0.1932 -0.1641 -0.0871
21572W        W38419  12.436  18.478  12.320  0.0360  0.0543 -0.1677
21573W        W38420   6.300  11.705  10.657 -0.1866  0.0199  0.0676
21574W        W38421   0.483   0.049   4.414  0.2134  0.4435 -0.1058
21575W        W38422   5.288   0.801   1.890 -0.1158 -0.4812 -0.1940
21576W        W38423  17.268   3.962   2.185  0.0112 -0.0354  0.0375
21577W        W38424   4.983  13.833   4.374 -0.0687  0.2917  0.0142
21578W        W38425   9.276  10.537   1.119  0.1202 -0.2944 -0.0581
21579W        W38426   5.881  14.837  15.255  0.2103 -0.1270  0.1318
21580W        W38427   7.782   7.639  14.378  0.4220 -0.1380  0.0074
21581W        W38428  12.750  16.630  11.779 -0.1434 -0.0360  0.0374
21582W        W38429   2.618   0.084   0.355 -0.3812  0.0713  0.0480
21583W        W38430   5.387  16.574  14.035 -0.0125  0.1761 -0.2030
21584W        W38431   7.012  18.418  13.228  0.0630 -0.0962 -0.1817
21585W        W38432   9.785   4.611   3.969  0.1406  0.0459  0.1920
21586W        W38433  11.509   0.076   2.508  0.1355 -0.2255 -0.1798
21587W        W38434   1.099   1.939   1.418 -0.0849  0.2494 -0.0065
21588W        W38435   4.090  13.150   1.897 -0.2304  0.4481 -0.0309
21589W        W38436  16.884   5.078  15.331 -0.0182 -0.1810  0.0658
21590W        W38437  14.127  16.338   3.141 -0.1605 -0.0477 -0.1175
21591W        W38438  13.171   6.441   4.194  0.2218  0.0402  0.0366
21592W        W38439   3.470   6.945  14.620 -0.0117 -0.0699 -0.1502
21593W        W38440  16.822  15.901   0.027 -0.1353 -0.0249  0.1287
21594W        W38441  15.267   8.402  13.086 -0.1805 -0.0274 -0.2016
21595W        W38442  18.176  13.089  15.292 -0.1610  0.3442 -0.0637
21596W        W38443   1.316  12.652   4.707 -0.0258  0.2779  0.1822
21597W        W38444   3.342   7.241   5.214  0.0200  0.0819 -0.1184
21598W        W38445   5.144   3.230  14.202  0.2292 -0.0398 -0.0224
21599W        W38446   5.779   3.570   0.997  0.0527 -0.1902  0.1287
21600W        W38447  16.392  12.788  11.979  0.1253  0.0219  0.0166
21601W        W38448   9.834  14.089   0.845 -0.0693  0.0293  0.1007
21602W        W38449  17.654  13.855  14.251 -0.0968  0.0872  0.3020
21603W        W38450   2.385  17.555  15.061  0.0142  0.0879 -0.4808
21604W        W38451  12.918  17.028   1.214  0.0330  0.0633 -0.2006
21605W        W38452  17.813  12.117  10.855  0.0661 -0.2429 -0.3732
21606W        W38453   8.273  14.780  12.653 -0.0647  0.3511 -0.1770
21607W        W38454  14.602  12.776   0.922  0.3208 -0.0176  0.0368
21608W        W38455  13.532   9.010  14.859 -0.0905  0.3604 -0.2987
21609W        W38456  12.157   3.175   4.869  0.0284  0.2244 -0.1227
21610W        W38457  17.328  11.966  13.070 -0.0620 -0.1223  0.0971
21611W        W38458   5.258   4.409  14.928 -0.0987 -0.0767 -0.3099
21612W        W38459   1.167  11.187  12.513  0.1256  0.0383 -0.0052
21613W        W38460   3.658  13.909   2.156  0.3702 -0.0763 -0.1924
21614W        W38461  11.166   9.847   4.100  0.0606 -0.1107 -0.2601
21615W        W38462   2.589   4.451  10.700 -0.2643 -0.1860 -0.3175
21616W        W38463   0.350  16.328  12.913 -0.0459  0.0494  0.0093
21617W        W38464   3.897   6.670  10.988  0.0671 -0.1015 -0.0316
21618W        W38465  15.941  14.605  14.360  0.0442 -0.2478  0.2647
21619W        W38466  13.252   2.111   0.773  0.0105 -0.0528 -0.4226
21620W        W38467   2.761  15.355   0.969 -0.0159  0.0392  0.0478
21621W        W38468   7.560   9.181  10.759  0.2953 -0.2889  0.2595
21622W        W38469  11.907   5.895  11.314 -0.0804 -0.0940 -0.1728
21623W        W38470   7.218   2.791   1.935  0.0193  0.0947  0.1419
21624W        W38471   5.110   4.148   4.651  0.2483  0.0793 -0.0848
21625W        W38472  11.895  15.404  15.376  0.0684 -0.0253  0.2835
21626W        W38473   8.377   6.159  14.252 -0.4329  0.1114 -0.0406
21627W        W38474  16.892   8.458   3.530  0.1311 -0.0141  0.1835
21628W        W38475   7.393   2.901  11.842  0.0209  0.2048 -0.1219
21629W        W38476   0.948  10.789   3.219  0.0055  0.0538  0.1215
21630W        W38477   9.951   6.929  13.509  0.0878 -0.1864  0.1367
21631W        W38478  12.436  14.637   5.065 -0.3129  0.2225 -0.1065
21632W        W38479   1.825   6.216  10.831 -0.1290 -0.1073  0.1273
21633W        W38480   6.359  10.215  13.053 -0.0100  0.2616  0.0736
21634W        W38481   2.611   0.127   1.441  0.0847 -0.3034  0.1143
21635W        W38482   6.154   1.856  14.613 -0.1104 -0.3457 -0.2666
21636W        W38483   4.958   5.923  12.892 -0.0649 -0.0637 -0.1985
21637W        W38484   3.118   5.573  11.806  0.0419 -0.3633  0.1721
21638W        W38485  13.458  12.088   0.087  0.1076 -0.1156 -0.2015
21639W        W38486   0.877  17.370   2.457  0.0905  0.1474 -0.0260
21640W        W38487   3.454  16.979  11.447  0.0796  0.1327 -0.3022
21641W        W38488  13.632   2.913   1.377 -0.2558 -0.6126 -0.0305
21642W        W38489   3.228  17.435   3.499 -0.0401 -0.0917  0.1219
21643W        W38490  14.277  16.167   5.030 -0.2486  0.2649 -0.0298
21644W        W38491  13.352  15.253  12.671 -0.1927  0.2736 -0.2666
21645W        W38492   0.854  11.791   3.537 -0.3736  0.0288 -0.1733
21646W        W38493  10.746   5.187   0.761 -0.0708  0.1220  0.1344
21647W        W38494  18.283  12.611   0.093 -0.0679  0.1948  0.1267
21648W        W38495   8.045  11.468  14.351 -0.0763  0.2247  0.2018
21649W        W38496   3.474   0.993   1.053 -0.0500  0.1443  0.0756
21650W        W38497  11.411  18.775   1.239 -0.0113 -0.5249 -0.0799
21651W        W38498   4.796  16.646   2.526  0.1930  0.2711 -0.0019
21652W        W38499  18.749  12.003  10.545  0.1883 -0.3264 -0.2193
21653W        W38500  16.823  12.174  12.429  0.0994 -0.2494 -0.2875
21654W        W38501  14.579   7.182   4.749 -0.4482 -0.3046 -0.0335
21655W        W38502   2.568   5.693   3.794  0.0522  0.2349  0.2747
21656W        W38503  18.428  12.136  13.424 -0.0245 -0.0980  0.1762
21657W        W38504   4.603  14.236  14.661  0.0479  0.1009 -0.2096
21658W        W38505  17.136  15.828  12.247 -0.0698 -0.0965 -0.3234
21659W        W38506  12.219   1.274   1.183 -0.1079  0.0947 -0.0434
21660W        W38507  12.314  15.762  15.383  0.0203  0.0374  0.2059
21661W        W38508   9.715  10.930   1.119 -0.0466 -0.0195  0.1335
21662W        W38509   1.867  13.873  10.641  0.0183 -0.0443 -0.0497
21663W        W38510  10.896   6.378   1.882 -0.5767 -0.0349  0.2619
21664W        W38511  17.460  17.534   2.790 -0.1538 -0.1774 -0.1066
21665W        W38512   6.887  11.622  14.586  0.1683  0.0627 -0.0558
21666W        W38513   4.517  16.459  12.076 -0.2893 -0.2103  0.0910
21667W        W38514  15.109   4.942  13.313 -0.0201  0.3867 -0.0889
21668W        W38515   2.509   9.240  11.157 -0.2634  0.0469  0.3347
21669W        W38516  13.580   8.409   4.775  0.0549  0.0699  0.1266
21670W        W38517   0.948   2.926   3.460 -0.1558 -0.3528 -0.0897
21671W        W38518  17.212   9.660   0.210 -0.1275 -0.1215 -0.1110
21672W        W38519  15.850   1.501  14.278 -0.1034 -0.4490 -0.1559
21673W        W38520   3.368   5.901   4.939  0.0151 -0.1104  0.0854
21674W        W38521   1.236   8.215  15.034  0.2610 -0.1557 -0.0020
21675W        W38522  10.746   0.984  11.546  0.0485  0.2172 -0.0724
21676W        W38523   9.846  13.287   1.365  0.2010  0.0350  0.0402
21677W        W38524   7.728  11.547  12.929  0.0936  0.1132 -0.3372
21678W        W38525   6.769  10.816  14.003 -0.2318 -0.2238 -0.1549
21679W        W38526   4.817   3.435   1.539 -0.2740  0.1541 -0.1800
21680W        W38527  10.758   2.502  15.116  0.0043  0.1658  0.4489
21681W        W38528  18.638  17.027   0.903  0.0882  0.0796  0.1052
21682W        W38529  11.674   9.472  13.266 -0.1395  0.2118 -0.3973
21683W        W38530   0.331   2.054  10.730 -0.1565  0.3203  0.0367
21684W        W38531  10.072  15.918  14.750 -0.0569 -0.2401 -0.0679
21685W        W38532  17.577  15.727  14.456 -0.2796  0.1914  0.1080
21686W        W38533  15.595   7.658  11.610 -0.5082  0.1283 -0.2178
21687W        W38534   0.417   7.362   4.630  0.0462 -0.1713  0.2921
21688W        W38535  15.353  16.563   2.751  0.0964  0.2024 -0.1138
21689W        W38536  17.698  14.039  11.102 -0.1060  0.1229 -0.0076
21690W        W38537   5.037  11.855  13.672  0.2089  0.0237 -0.0060
21691W        W38538  10.599  18.025  11.339  0.0588 -0.0243 -0.0021
21692W        W38539  12.886  17.462   4.771  0.1667 -0.0093  0.0216
21693W        W38540   7.331   5.648   0.189  0.1556  0.3495  0.0227
21694W        W38541  12.933   0.580  11.884  0.1512  0.0020 -0.1771
21695W        W38542  14.496   7.429  12.591  0.0326  0.2027 -0.0985
21696W        W38543  11.408   5.009  14.794 -0.3388 -0.1284 -0.0754
21697W        W38544   2.770  11.641   5.591  0.0469  0.0603 -0.2699
21698W        W38545   8.643  18.155  11.612 -0.1283  0.3392  0.1470
21699W        W38546  17.785   9.247   2.502  0.0249  0.1248 -0.0186
21700W        W38547  11.160  14.351  11.326  0.0770 -0.2774  0.0001
21701W        W38548  10.034  10.826   0.487 -0.0528  0.2171 -0.0062
21702W        W38549  12.134   2.011  12.818  0.1312  0.2596  0.3522
21703W        W38550  10.420   6.460  12.821  0.0511 -0.2046  0.0752
21704W        W38551  10.819  15.223  12.922 -0.0740 -0.1036 -0.1133
21705W        W38552   7.834   9.803   3.207 -0.0763 -0.1474  0.3948
21706W        W38553  13.290  15.170  10.349 -0.1054  0.1516  0.1577
21707W        W38554   1.136   8.385   0.396 -0.0008  0.1491 -0.3976
21708W        W38555  13.748   8.871   2.072  0.0349  0.3866 -0.1483
21709W        W38556   9.165  10.722  12.274  0.1559 -0.1230 -0.1711
21710W        W38557   8.340   8.210   5.370  0.1818 -0.1907  0.0321
21711W        W38558   4.177  16.505   4.028  0.0611 -0.1354 -0.0230
21712W        W38559   2.882  14.402   0.207  0.4642 -0.2108 -0.1451
21713W        W38560   5.770  11.804   3.747 -0.2522  0.0168  0.1168
21714W        W38561  15.936   5.240  11.599  0.1531 -0.2868  0.1573
21715W        W38562   5.108   8.930   0.010  0.2413  0.0112 -0.1318
21716W        W38563   4.326  16.991   3.759  0.0851 -0.1795  0.4868
21717W        W38564  15.314  15.674  14.929 -0.0484 -0.0539  0.1033
21718W        W38565  12.939  10.351  14.982 -0.2341 -0.0267  0.0564
21719W        W38566   1.086   4.263   5.600 -0.2166  0.0324  0.3383
21720W        W38567  10.532  16.435   2.599 -0.0869  0.0185  0.0213
21721W        W38568   4.028   4.706  11.378  0.0115 -0.2949 -0.3124
21722W        W38569  18.512  14.858  15.204  0.1424 -0.2698  0.1184
21723W        W38570   5.823  18.684  11.544 -0.0904  0.1362  0.3506
21724W        W38571   0.364   4.136  13.989 -0.0085 -0.1413 -0.1480
21725W        W38572   6.116  10.967  14.708 -0.3328  0.0260  0.3542
21726W        W38573  15.000  11.160  11.602  0.1739 -0.0718  0.0127
21727W        W38574  11.799  18.374   2.770  0.1926 -0.0062 -0.2887
21728W        W38575  16.380   6.408  11.693  0.0513  0.0129 -0.4679
21729W        W38576  11.070   4.591  15.048  0.2077 -0.0023  0.2897
21730W        W38577   0.275  12.082  15.081  0.1480 -0.1148 -0.0255
21731W        W38578  16.141  12.985  11.208  0.0418 -0.2721  0.0209
21732W        W38579   2.759   7.138  11.022 -0.1179 -0.0759  0.4635
21733W        W38580   1.824  13.170   5.559 -0.2450  0.1809  0.0035
21734W        W38581  16.186  17.978  12.711 -0.0231  0.0059  0.1390
21735W        W38582   0.953  18.021   3.215 -0.0492  0.1168 -0.1270
21736W        W38583   6.550   2.602  14.249  0.4971  0.1392 -0.3656
21737W        W38584   4.658  11.379  12.975 -0.1398  0.2764 -0.0200
21738W        W38585  14.945  15.975  12.264  0.0135  0.0797  0.1353
21739W        W38586  12.403  13.248   3.352  0.1473  0.1439 -0.0763
21740W        W38587  17.521   8.839   4.382  0.0062  0.2934 -0.0840
21741W        W38588  16.739   0.829   0.348 -0.1574 -0.0542  0.2087
21742W        W38589  13.937   1.434  13.255  0.2774 -0.0736 -0.2754
21743W        W38590  11.087   3.917   0.780 -0.0465 -0.0500 -0.1294
21744W        W38591   6.514   6.720   3.003  0.0637  0.0692 -0.0429
21745W        W38592  11.961   3.812   2.392  0.0037 -0.2035  0.0064
21746W        W38593   7.909   0.123   2.038  0.1368  0.0297 -0.1912
21747W        W38594   7.813   0.627  13.421 -0.0836  0.0844  0.3987
21748W        W38595  15.986   0.662   2.200 -0.1390 -0.2185  0.0681
21749W        W38596  16.621   3.866  14.922  0.0687  0.2054  0.3250
21750W        W38597   9.342   8.095  12.180 -0.0339  0.2794  0.2722
21751W        W38598  15.308  17.010   1.858 -0.1209 -0.0126 -0.0317
21752W        W38599  14.848  18.171   3.131 -0.0228  0.1007  0.4050
21753W        W38600  16.363   6.473   4.398 -0.0394 -0.1845 -0.2890
21754W        W38601   4.548   1.040   5.414 -0.0942  0.1108 -0.0736
21755W        W38602   9.797   6.091   4.662  0.2706 -0.0957  0.1197
21756W        W38603   9.299  14.740  15.203  0.1336  0.2066 -0.4090
21757W        W38604  16.986   9.141   2.963  0.1523  0.0489 -0.0950
21758W        W38605  16.773  16.840   3.412  0.1182  0.0431  0.0330
21759W        W38606   2.854   9.691   5.076 -0.3931 -0.3291  0.1747
21760W        W38607  15.543  17.442   2.275 -0.1077 -0.3415  0.0496
21761W        W38608  18.180  17.637  13.861  0.0487  0.0392  0.0250
21762W        W38609  17.330   3.455  11.428  0.1927  0.3651  0.5203
21763W        W38610  13.866   0.788  11.970  0.0611 -0.0745  0.2058
21764W        W38611   4.671  16.232   0.129 -0.0433 -0.0309 -0.0212
21765W        W38612   6.386   0.573  11.351 -0.0651 -0.1279  0.0488
21766W        W38613   7.515   0.271  10.718 -0.1865  0.4435 -0.1436
21767W        W38614   3.924  16.739  12.569 -0.0580  0.0630  0.3016
21768W        W38615  18.717  15.881   5.316 -0.3337 -0.3889  0.0165
21769W        W38616  15.194   5.449  11.166 -0.0549  0.2800 -0.3471
21770W        W38617  13.808  17.051  13.398  0.1901 -0.0855  0.1538
21771W        W38618  10.414   1.579   2.619  0.1683 -0.0976 -0.2640
21772W        W38619  18.570   2.493   1.715  0.0189 -0.3466 -0.1622
21773W        W38620   5.783  18.067   4.480 -0.0251 -0.2615  0.2295
21774W        W38621   5.526  16.080  13.992  0.1216 -0.0697 -0.2705
21775W        W38622   8.403  14.356   1.341  0.0835  0.2178 -0.0887
21776W        W38623   4.053   1.089   0.123 -0.0676  0.0898  0.1087
21777W        W38624  13.055   9.674  13.240 -0.0274  0.2798  0.0958
21778W        W38625   2.697   6.266   1.468  0.1301  0.3596  0.0427
21779W        W38626  11.439  15.666  11.844 -0.0380 -0.0640 -0.2917
21780W        W38627   9.491  14.218   0.402  0.2332  0.1548  0.0263
21781W        W38628  16.954  12.472  12.047  0.1160 -0.1117 -0.1851
21782W        W38629   8.323  11.457  13.311  0.0166 -0.1019 -0.0495
21783W        W38630   1.072  15.544  15.079 -0.1776 -0.3063  0.0547
21784W        W38631  12.819  12.617  15.453  0.1338  0.1124  0.1486
21785W        W38632  18.655   5.570  11.847 -0.2235  0.0591  0.0096
21786W        W38633   4.219  17.010   2.061  0.0252 -0.2073  0.0326
21787W        W38634  12.146   8.318   4.441  0.1803  0.1282 -0.1333
21788W        W38635   4.468  11.101  10.622  0.1151  0.1548  0.0900
21789W        W38636  18.471  14.325  14.361 -0.0963 -0.3508 -0.0897
21790W        W38637  13.406  18.444  10.821 -0.4623 -0.0038 -0.1205
21791W        W38638   7.279  16.671  14.743 -0.1272 -0.1477 -0.0097
21792W        W38639  11.573   3.899  14.592 -0.3710 -0.0962  0.1148
21793W        W38640  11.249   5.535   1.493 -0.1792 -0.0333  0.0500
21794W        W38641   6.226   1.259   1.367  0.0064  0.0187 -0.0134
21795W        W38642   4.637   0.250  12.776  0.2105  0.0337  0.0727
21796W        W38643  13.825  14.658   0.454 -0.1321  0.0679  0.1987
21797W        W38644   5.789   9.662  11.858 -0.1347  0.1036  0.0166
21798W        W38645   3.166   6.647  15.332 -0.0438 -0.3343  0.2093
21799W        W38646   3.762  10.380   4.955  0.1526  0.2195  0.2780
21800W        W38647  11.247  11.375  14.086 -0.2578 -0.0628 -0.1687
21801W        W38648  11.595  11.717   2.288  0.0122 -0.1778  0.0069
21802W        W38649  12.254   6.866  14.039  0.0855 -0.3327 -0.2101
21803W        W38650   6.604  15.740   4.834 -0.0217  0.2313 -0.1367
21804W        W38651   3.079   4.373   4.063  0.1537  0.4617  0.2211
21805W        W38652  16.124  11.682  11.959  0.0397 -0.1621 -0.0676
21806W        W38653   4.685   3.895   0.042 -0.1006  0.0507 -0.2153
21807W        W38654  12.832   5.500  15.053 -0.1948 -0.0334  0.1283
21808W        W38655  15.918   3.673   3.670  0.2407 -0.0223  0.0182
21809W        W38656   6.757  13.375  14.881 -0.2966  0.1169 -0.1822
21810W        W38657   5.866   1.878   4.020 -0.1946  0.2613 -0.1342
21811W        W38658   2.069   8.210   4.239  0.1610 -0.0786  0.3134
21812W        W38659   1.633   9.643   5.005  0.1405  0.2206 -0.3743
21813W        W38660   3.100  14.959  11.148  0.3820 -0.4374  0.1727
21814W        W38661  15.230   1.526   3.004  0.3480 -0.0257 -0.1656
21815W        W38662   5.351  18.299   4.459 -0.1898 -0.1853  0.0720
21816W        W38663  17.719   6.471   2.264 -0.0702 -0.0133  0.0112
21817W        W38664  16.354   3.816   0.899 -0.0292 -0.3047 -0.1409
21818W        W38665  11.770   4.615   2.220 -0.2253  0.2557 -0.0976
21819W        W38666   1.392   4.007  14.222 -0.2537  0.0118  0.0828
21820W        W38667   2.458   4.437   1.056 -0.1653 -0.2181  0.0689
21821W        W38668  16.817   2.964  13.855 -0.1015 -0.1852 -0.1143
21822W        W38669  18.647  15.933  11.667  0.0275 -0.0320  0.0208
21823W        W38670   5.912  16.069   5.145 -0.2036  0.0431  0.0436
21824W        W38671   8.998  16.422  11.784 -0.0205 -0.1762  0.1419
21825W        W38672   0.720  18.270   0.600  0.1483  0.1260  0.0724
21826W        W38673   0.519   2.351   5.389  0.1930 -0.1566 -0.4055
21827W        W38674   7.239   8.140   0.170  0.0986 -0.2053 -0.0139
21828W        W38675  13.363  15.563  10.619 -0.0891  0.1094  0.0924
21829W        W38676   6.986   0.824   0.276 -0.1582  0.1623  0.0780
21830W        W38677  11.050   4.046   4.556  0.3327 -0.0513  0.1351
21831W        W38678  10.402  16.011  14.015  0.1130  0.1921  0.1528
21832W        W38679  17.480   8.187   4.455 -0.0916 -0.1706  0.3682
21833W        W38680   7.649  14.991   0.765 -0.0301 -0.2288  0.1519
21834W        W38681  15.780   6.544   4.490 -0.2806 -0.3899 -0.0420
21835W        W38682   8.700  12.640   1.205  0.1434 -0.0848  0.1777
21836W        W38683  16.629  13.296   3.902  0.1145  0.1333  0.0400
21837W        W38684   5.452  14.899  13.226  0.2496  0.1409 -0.0098
21838W        W38685   5.615  12.914   1.242  0.0128  0.2341 -0.0564
21839W        W38686   3.285   3.209   0.205 -0.2997 -0.1510 -0.0784
21840W        W38687  17.922  18.192   0.417 -0.4253 -0.1683 -0.1467
21841W        W38688  11.286  11.267   3.720  0.1088  0.0357 -0.0599
21842W        W38689  15.266  14.332   3.636  0.2043 -0.0178 -0.3617
21843W        W38690   1.137  17.470   1.945 -0.1249  0.2643 -0.0880
21844W        W38691   4.404  10.322  12.563 -0.0542  0.1988  0.1482
21845W        W38692  18.074  18.816   5.606 -0.0104 -0.0863  0.1596
21846W        W38693   6.522  11.156  14.339  0.2498 -0.0511 -0.0668
21847W        W38694  16.532   3.160   4.657 -0.1826 -0.0975 -0.0774
21848W        W38695   0.204   5.814  12.640 -0.0271 -0.0773  0.2361
21849W        W38696  13.999   7.491  14.762 -0.2151  0.1308  0.2210
21850W        W38697  13.084   1.562  13.934  0.0378 -0.1231 -0.0251
21851W        W38698  14.476  10.239   2.044  0.6470 -0.3730  0.1764
21852W        W38699   7.880   5.123  12.625  0.2170 -0.0450 -0.1251
21853W        W38700   4.830   5.240   1.073 -0.0119 -0.1231 -0.0167
21854W        W38701  11.700  12.586  11.090 -0.2599 -0.2069 -0.1872
21855W        W38702   9.446  13.805  14.726  0.1371 -0.0458 -0.2347
21856W        W38703   1.252   7.629  11.897  0.0915  0.0671  0.2496
21857W        W38704   9.723   7.418  15.302 -0.4926 -0.0218 -0.0471
21858W        W38705  17.866   3.725  11.420 -0.2644  0.1643  0.4262
21859W        W38706  12.438  10.073  12.724  0.0646  0.1472  0.1972
21860W        W38707  11.056   4.471   0.424  0.1275 -0.0092 -0.0182
21861W        W38708   8.870   1.856   4.607  0.1707  0.3042 -0.1521
21862W        W38709  13.721  13.543   1.757  0.1295  0.1084  0.0950
21863W        W38710  13.471  12.983   2.589 -0.4178 -0.0871 -0.0362
21864W        W38711   5.966  14.396   4.221  0.1775  0.0356  0.0870
21865W        W38712  13.150   9.631   4.229 -0.0604 -0.1295 -0.0670
21866W        W38713  16.696   9.115   2.515  0.0908  0.2784  0.2990
21867W        W38714   9.978  16.013  14.245 -0.1276  0.2658 -0.1727
21868W        W38715  10.744   4.387  11.354  0.1620  0.0876  0.1077
21869W        W38716  11.434  12.686   4.727  0.1359 -0.2010 -0.1196
21870W        W38717   6.056   8.648  12.034  0.2745 -0.1252 -0.0751
21871W        W38718  15.073   8.468   3.568 -0.0443  0.1288 -0.2445
21872W        W38719  15.452   2.828  13.788 -0.1299 -0.0830 -0.0185
21873W        W38720   4.900  10.385   5.219 -0.0140 -0.2304  0.1860
21874W        W38721   6.619   0.302   1.654 -0.5013 -0.1569  0.0579
21875W        W38722   1.195   3.749   3.767 -0.3294 -0.0124  0.5225
21876W        W38723  14.149  14.146  15.170  0.2976  0.2049  0.0230
21877W        W38724   1.095  17.898   2.247  0.0778 -0.0359 -0.0897
21878W        W38725   8.471   4.246  15.008 -0.0033  0.0793  0.1729
21879W        W38726  13.512  11.101   2.430 -0.0674 -0.0912  0.0186
21880W        W38727   7.532   0.568   4.299 -0.3005 -0.3599  0.1649
21881W        W38728   1.844  12.750   3.814 -0.0301 -0.2463 -0.0434
21882W        W38729  17.730  13.310   2.518  0.3176  0.0837 -0.3660
21883W        W38730  12.425   3.298  11.926 -0.4494 -0.1426 -0.2688
21884W        W38731   6.123   0.484  12.951 -0.1050  0.0652  0.0677
21885W        W38732   9.290   5.301  14.620 -0.2535 -0.2404 -0.0204
21886W        W38733   9.137   6.680   2.194 -0.0266 -0.0205 -0.0299
21887W        W38734  17.374  17.359  13.445 -0.0223  0.0431  0.2674
21888W        W38735   7.633  14.881  12.659  0.0500  0.0024 -0.0040
21889W        W38736  12.585  11.915  12.077  0.1420  0.0756  0.4653
21890W        W38737  16.149  17.673   1.224  0.5180 -0.0373 -0.1196
21891W        W38738  14.067  11.827  11.938  0.1099 -0.1690 -0.0103
21892W        W38739   5.860   2.484   2.000  0.1642  0.0285 -0.1328
21893W        W38740   5.071  12.240   3.754 -0.0886 -0.1691 -0.1774
21894W        W38741   6.437  15.982   2.372  0.0699  0.1633  0.0900
21895W        W38742   2.030  16.024  14.258  0.3466  0.1386  0.2711
21896W        W38743   1.981  18.412  12.009  0.0039 -0.0273 -0.1241
21897W        W38744   0.168   8.762  11.140 -0.3148  0.0861 -0.0038
21898W        W38745   0.532   8.882   4.820 -0.2351 -0.1244  0.2376
21899W        W38746  16.598  17.153  12.402 -0.0741  0.0233 -0.0847
21900W        W38747  16.943   3.392  13.585  0.0192 -0.0792  0.0608
21901W        W38748   9.115   2.666  12.667 -0.2560 -0.0753 -0.0623
21902W        W38749  13.338  12.677   5.884 -0.1043 -0.1203 -0.0217
21903W        W38750  15.016   2.229   4.068 -0.0328 -0.2392  0.1310
21904W        W38751   8.331   3.103   3.467 -0.0937  0.2082 -0.0746
21905W        W38752  11.613   6.223   4.952 -0.0653  0.1028  0.1284
21906W        W38753  18.432   6.903   3.546  0.0847  0.0438 -0.0867
21907W        W38754  16.284  15.836  10.957  0.3697 -0.0201 -0.3541
21908W        W38755  11.952   4.984  13.786 -0.2250  0.0400 -0.0408
21909W        W38756   4.562   2.597   0.434  0.0152 -0.3413 -0.1814
21910W        W38757   7.510  10.004   2.256  0.2284  0.0970 -0.1132
21911W        W38758   1.395   1.453  14.804  0.0256  0.1588 -0.1133
21912W        W38759  12.969  11.811  14.827  0.1307 -0.1067  0.0575
21913W        W38760   3.381   3.327   4.562  0.1867 -0.1445 -0.1123
21914W        W38761   5.767   9.691   2.746  0.4261 -0.2429  0.0694
21915W        W38762   1.905  18.148   3.044  0.1330 -0.0241  0.1161
21916W        W38763   8.888   2.236  12.426 -0.0127 -0.1046 -0.0155
21917W        W38764  10.138   1.006   4.410  0.0802 -0.1363 -0.0576
21918W        W38765  12.916   6.112  14.342 -0.2076 -0.1965  0.0645
21919W        W38766  13.511  13.524  14.602  0.3548  0.1557 -0.0352
21920W        W38767   3.843  18.478   0.543  0.2912 -0.0467  0.0787
21921W        W38768  17.741   7.730  13.215  0.0454  0.0999 -0.0455
21922W        W38769   2.287   6.996  11.160  0.0450 -0.2102 -0.0355
21923W        W38770   1.939  11.883   1.792 -0.0098  0.0795 -0.1634
21924W        W38771  12.622   3.983  12.097  0.2786 -0.1831 -0.1190
21925W        W38772  14.604   7.525   4.412 -0.0335 -0.2055 -0.2551
21926W        W38773  10.521  17.562   4.899 -0.0966  0.0525  0.1197
21927W        W38774   8.366  15.088  14.141  0.1914 -0.0254 -0.3868
21928W        W38775  10.733  11.448   1.416 -0.0524  0.1670  0.0370
21929W        W38776   2.003   4.024   2.603 -0.0365 -0.1041 -0.3721
21930W        W38777  17.627  16.124  11.430 -0.1361  0.0962 -0.4236
21931W        W38778  14.964  15.243   3.092  0.2496 -0.2710 -0.0055
21932W        W38779  14.233  18.186  11.572  0.0442  0.1582  0.0238
21933W        W38780   9.795   1.740  12.683  0.0136  0.0784 -0.2273
21934W        W38781   5.051  15.678   1.274  0.1126  0.2802  0.2056
21935W        W38782   3.880   0.546  12.944  0.1191  0.2414 -0.0285
21936W        W38783  17.330   5.125   0.814  0.1691 -0.1418  0.2807
21937W        W38784  10.895  11.534   3.551  0.2286  0.2885  0.1305
21938W        W38785  12.627  16.439  13.661  0.0936 -0.1332  0.0416
21939W        W38786  18.020   9.591   5.443  0.3090 -0.0739  0.2436
21940W        W38787  17.830  10.879  12.454  0.2058 -0.0958 -0.0951
21941W        W38788  14.720   7.990   0.438 -0.0695 -0.0663  0.1236
21942W        W38789   4.031   5.148   2.413  0.2991  0.2941  0.0560
21943W        W38790  16.425  10.662   5.156  0.3033  0.1058 -0.1383
21944W        W38791   9.334   7.515   0.822 -0.0418  0.1124 -0.0213
21945W        W38792  14.676  11.582   4.295 -0.1672  0.3394  0.2478
21946W        W38793  13.666  13.275   5.247 -0.2616  0.1193 -0.0923
21947W        W38794  12.230   4.865   0.358  0.1746 -0.1409 -0.3371
21948W        W38795  11.458  12.497  10.584 -0.2109  0.2328  0.0958
21949W        W38796  12.543  14.610   3.870 -0.0345 -0.0329  0.2757
21950W        W38797   5.804  17.348   3.836  0.1294 -0.0004 -0.3063
21951W        W38798  14.626  13.861  13.173 -0.0721  0.1746  0.0264
21952W        W38799   5.838   0.221  12.153  0.0109 -0.1068  0.0292
21953W        W38800   8.873  17.621  13.983 -0.0102 -0.5608  0.0809
21954W        W38801   9.812  16.432   2.221  0.2752 -0.1076  0.0196
21955W        W38802  14.923  13.959   2.306 -0.0548  0.0151  0.4338
21956W        W38803  13.449  12.313  13.943 -0.2422 -0.1280  0.3274
21957W        W38804   4.086  15.837   0.822 -0.1409  0.0191  0.0420
21958W        W38805  13.922   2.253  14.380  0.1269 -0.1837 -0.3475
21959W        W38806  12.883  13.336  11.172 -0.3109 -0.2062 -0.0218
21960W        W38807   4.070   6.935   4.728 -0.1642 -0.2732  0.0169
21961W        W38808  12.965   6.278   4.816 -0.1902 -0.0075  0.3181
21962W        W38809  12.962  16.999  14.079 -0.1436  0.0156  0.0296
21963W        W38810   5.902   5.557  12.846  0.1129  0.1397 -0.1217
21964W        W38811  17.461   7.745   2.356  0.0861 -0.1288 -0.2702
21965W        W38812  14.362  18.354  13.467 -0.2968 -0.0814  0.0916
21966W        W38813   9.226   9.156   2.232  0.0868  0.1216 -0.3097
21967W        W38814  10.992  17.282  14.051 -0.2789  0.1677 -0.0093
21968W        W38815   4.238   4.131   5.271  0.0683  0.1416 -0.0144
21969W        W38816   0.507   5.872   1.107  0.0038 -0.0184  0.1770
21970W        W38817  17.347   6.346  13.102  0.0155 -0.0320 -0.0977
21971W        W38818  13.786   6.444   3.225  0.1740  0.1046  0.1540
21972W        W38819   1.298   2.498  13.361  0.3233 -0.0239 -0.0689
21973W        W38820  14.123   6.443  13.894 -0.2898 -0.0018 -0.0654
21974W        W38821   1.921  18.226   4.109 -0.0718 -0.2309 -0.0370
21975W        W38822  14.767  14.839   0.163 -0.0216  0.0545  0.1071
21976W        W38823  17.533   2.801  12.381  0.2559 -0.4059  0.1373
21977W        W38824  14.489  11.816   1.011  0.1876 -0.2050  0.1276
21978W        W38825   8.916  17.764  12.438 -0.3149 -0.0121  0.0081
21979W        W38826   2.367   1.853  11.452  0.3109 -0.0599 -0.2753
21980W        W38827   6.696  12.321   2.666  0.1731 -0.2721  0.1146
21981W        W38828   7.885  15.685  10.739  0.4230 -0.0067 -0.2228
21982W        W38829   2.564   4.776  11.692 -0.0084  0.0006  0.1896
21983W        W38830  12.812  10.788  11.131  0.0734  0.2872 -0.1204
21984W        W38831  14.210  12.998   1.688 -0.3000  0.2108  0.0959
21985W        W38832   7.878   2.058  13.508 -0.1047 -0.2111 -0.3008
21986W        W38833  17.723  11.424   4.035 -0.0609 -0.1437 -0.0032
21987W        W38834   4.214   1.441   0.610  0.1066  0.2190 -0.0589
21988W        W38835  12.473   0.194   2.512  0.0640 -0.2974  0.0222
21989W        W38836  17.977   7.249  13.114  0.2046  0.1205 -0.0983
21990W        W38837  14.845  13.368   4.213  0.2720 -0.1137  0.1050
21991W        W38838  11.651  11.206   2.378  0.1060  0.0550  0.0697
21992W        W38839   6.609   3.340  11.951 -0.0558 -0.1916  0.0232
21993W        W38840  17.701  11.188  11.480  0.0772  0.1085 -0.2564
21994W        W38841   0.764   6.657   1.816  0.0608  0.2357 -0.1445
21995W        W38842  16.480   0.119   3.976  0.3899  0.0440  0.0470
21996W        W38843  15.909   5.735   3.882  0.0461 -0.0459  0.1462
21997W        W38844  18.762   7.501   2.538  0.0084 -0.1846 -0.0009
21998W        W38845   4.721  12.401  14.022  0.0062 -0.0450  0.3042
21999W        W38846   6.345  14.373   0.921  0.1544 -0.0937  0.0924
22000W        W38847  13.007   2.108   5.145 -0.3031  0.3019 -0.0069
22001W        W38848  12.710  15.717   2.853 -0.2723  0.0698  0.0108
22002W        W38849  13.110  14.751  12.771  0.0865  0.0347  0.1555
22003W        W38850  10.412   2.224  10.434 -0.1277  0.1062 -0.2950
22004W        W38851  13.412  16.972   3.082  0.1248  0.0430 -0.1865
22005W        W38852   7.084   4.307  11.190  0.0784  0.1200  0.0161
22006W        W38853  13.202   2.931   0.553  0.2097  0.0811  0.3060
22007W        W38854   9.988  10.845   1.613 -0.0433 -0.0013  0.0591
22008W        W38855   1.412  16.749   1.900  0.3089 -0.0144  0.1940
22009W        W38856   7.142   3.263  14.132  0.2425 -0.2499  0.1581
22010W        W38857   3.550   2.108   0.199 -0.1802 -0.1309 -0.0220
22011W        W38858  13.629   5.127   3.211 -0.2049  0.1123  0.1262
22012W        W38859   9.562   2.947  13.220  0.0658 -0.0873  0.1306
22013W        W38860  17.109   2.515   4.922 -0.0923  0.3084  0.1001
22014W        W38861   9.416   3.750  13.224 -0.1822 -0.1109 -0.1507
22015W        W38862  17.746   6.642   2.782 -0.4250 -0.2728  0.2828
22016W        W38863  18.531  17.671  12.247 -0.0534  0.1555  0.0304
22017W        W38864  11.316  17.569   5.042 -0.1738 -0.0505  0.1109
22018W        W38865   4.139   3.039  12.355  0.0211  0.0061  0.1501
22019W        W38866  16.240  15.409   1.107  0.2834  0.0296 -0.2414
22020W        W38867   1.954   9.601  11.150  0.1215  0.2827 -0.1798
22021W        W38868   7.914   2.652  13.278 -0.0272  0.1409 -0.0792
22022W        W38869   6.896   6.788   4.115  0.2670 -0.1322 -0.0791
22023W        W38870   0.925  11.831   0.771 -0.0080 -0.0269 -0.0066
22024W        W38871   3.306   7.303   1.620  0.1517 -0.0428 -0.2656
22025W        W38872  13.371   8.209  14.658 -0.0323 -0.2295 -0.3029
22026W        W38873   4.355   2.577   3.206  0.2069 -0.0282 -0.2863
22027W        W38874   5.553   7.108  10.379 -0.0897  0.0888  0.2180
22028W        W38875  12.477  14.121  10.735 -0.0295 -0.1663  0.1620
22029W        W38876  10.251   6.228   4.572 -0.2761 -0.2366  0.1622
22030W        W38877  12.290  16.555  11.921 -0.0100  0.0065 -0.2180
22031W        W38878   9.267  18.685   5.950  0.0349  0.3135  0.2223
22032W        W38879  16.259   7.047   0.369  0.0336  0.0731 -0.0216
22033W        W38880   9.129   3.946   2.589  0.1871 -0.2358 -0.2200
22034W        W38881  18.656  14.524  11.071  0.2813  0.2088 -0.0146
22035W        W38882   6.183   4.047  13.753 -0.1924  0.2199  0.2652
22036W        W38883  15.005   7.530  12.489 -0.1117  0.1223  0.0045
22037W        W38884  11.782   5.856   0.595  0.0504  0.1896 -0.0274
22038W        W38885   5.835   0.140  13.178 -0.2166 -0.1940  0.3005
22039W        W38886  14.532   5.158   0.960  0.2379  0.0325  0.3432
22040W        W38887   8.999   0.591   1.350 -0.0019 -0.2355 -0.0241
22041W        W38888   2.823  11.032  11.459 -0.1681 -0.1610 -0.2620
22042W        W38889   2.496  14.642  14.364 -0.2830 -0.3866  0.0508
22043W        W38890  17.469   2.264  12.842 -0.1306 -0.1644 -0.1077
22044W        W38891  12.120  12.443  15.056 -0.1457  0.2459  0.2731
22045W        W38892   3.743   9.703   2.280 -0.1792 -0.0319  0.0569
22046W        W38893   1.055   2.801   2.028 -0.0671  0.0005 -0.3466
22047W        W38894   7.357   2.948  11.295 -0.1447 -0.6790  0.0199
22048W        W38895  16.503   6.078   1.304 -0.0059  0.0037 -0.1270
22049W        W38896   3.345   4.014  13.594 -0.0942  0.2920 -0.0150
22050W        W38897  18.176  11.920   4.697 -0.0372  0.0898  0.0389
22051W        W38898  13.034  13.597  12.790  0.1503  0.0213 -0.0974
22052W        W38899  15.983  16.313  11.084 -0.2687  0.1238 -0.3543
22053W        W38900   6.691  18.805   3.529  0.1210  0.3243  0.1086
22054W        W38901   4.273   9.747   2.102  0.1055  0.1228 -0.0980
22055W        W38902  18.224   1.965   0.514 -0.1836 -0.3540  0.0204
22056W        W38903   0.483  12.393  13.238 -0.1615  0.5067 -0.0882
22057W        W38904   6.024  11.821   0.320  0.1891 -0.0581  0.0754
22058W        W38905   0.894   1.289  10.636  0.0485  0.1221  0.2366
22059W        W38906   5.351  12.350  11.795  0.0210 -0.0882 -0.0217
22060W        W38907  13.483   5.414   0.112  0.4586 -0.0511 -0.0722
22061W        W38908  11.573  18.605   5.040  0.1884 -0.0219  0.4209
22062W        W38909   7.298   9.721   4.298 -0.1333 -0.0802  0.2314
22063W        W38910   7.309   9.525   2.247  0.1538  0.1967  0.3823
22064W        W38911   4.977   8.396  14.736 -0.0442  0.0403 -0.0071
22065W        W38912  18.602   2.965   1.639 -0.1081  0.0022 -0.0035
22066W        W38913  16.558  10.694   0.394  0.0277  0.2044 -0.0001
22067W        W38914   3.315   6.496   1.444  0.2357 -0.0097  0.0286
22068W        W38915  11.744   4.944   3.207 -0.1158  0.0844 -0.0535
22069W        W38916   7.087  17.593  11.904  0.0920 -0.0401  0.3574
22070W        W38917   7.267   1.008   1.184  0.3310  0.2078  0.2373
22071W        W38918   4.977   6.374  13.900 -0.3849  0.1817  0.1703
22072W        W38919   7.227  12.183  14.069 -0.1138  0.0388  0.0858
22073W        W38920  15.570  16.727  12.751 -0.0686 -0.0249 -0.1920
22074W        W38921  10.626   4.052   5.696 -0.0489 -0.0050 -0.0925
22075W        W38922   2.841   8.697   5.066  0.2275  0.1478 -0.0112
22076W        W38923   0.080  16.570  10.104  0.1066 -0.1635  0.1391
22077W        W38924   3.844   5.981   1.446  0.0901 -0.0736 -0.1338
22078W        W38925  11.563   8.259   0.653 -0.2577  0.0308 -0.0436
22079W        W38926  13.931  16.528  15.062 -0.0461  0.1130 -0.0094
22080W        W38927  10.940   0.583  12.523 -0.1866 -0.1864  0.1734
22081W        W38928   0.195   0.401  10.951 -0.2109 -0.0534  0.1556
22082W        W38929  15.376   9.142  12.139 -0.0628  0.0604  0.2353
22083W        W38930   2.369   1.990   3.134 -0.0878  0.1879  0.1197
22084W        W38931   9.460   1.101  10.896 -0.0654  0.3483  0.1268
22085W        W38932  13.935   4.447  13.057 -0.1908 -0.2628 -0.0154
22086W        W38933   6.271  11.645  11.913 -0.0895 -0.1193  0.0197
22087W        W38934   4.581   1.337  11.562  0.2195  0.4436  0.0503
22088W        W38935   6.705  15.120   1.737  0.3463  0.2333  0.2008
22089W        W38936   0.980  13.346   2.695 -0.0280 -0.0413  0.0185
22090W        W38937  10.896   5.357   3.014 -0.4448  0.0698  0.0018
22091W        W38938  10.757   5.101  15.059  0.1842  0.0260 -0.1105
22092W        W38939   7.826  10.980   1.352 -0.1459 -0.0335  0.3897
22093W        W38940   6.814   2.463  15.289  0.0869  0.2067  0.1913
22094W        W38941   8.849  14.835  11.218  0.0698  0.1387  0.1157
22095W        W38942   9.049   5.451   0.303 -0.1342  0.4093  0.0452
22096W        W38943  15.298   2.363   3.027 -0.0123  0.2723  0.0889
22097W        W38944  16.969  14.514   2.172  0.1691  0.2835 -0.0215
22098W        W38945   0.177  17.085   1.535 -0.3631  0.0924 -0.4817
22099W        W38946   6.970   6.055   0.005 -0.2002  0.0074 -0.1079
22100W        W38947  13.577  10.669   1.669  0.0184  0.1781 -0.1803
22101W        W38948  17.348  10.917  11.790 -0.0112 -0.1934 -0.0758
22102W        W38949   7.313   8.453   1.118  0.0540  0.2203 -0.1294
22103W        W38950  16.861   0.065   5.840  0.1599 -0.1033  0.2141
22104W        W38951  17.639  14.004   0.929  0.3036  0.1982 -0.0290
22105W        W38952  18.445  12.626  13.507  0.2629  0.0829  0.2791
22106W        W38953   2.209   2.688  12.441 -0.0274  0.0802  0.1232
22107W        W38954   5.682   7.124  15.360 -0.0104 -0.3127 -0.3627
22108W        W38955  17.297  17.497   4.685 -0.0965  0.0245 -0.1124
22109W        W38956  16.784  18.727  12.324  0.2038  0.2065 -0.4101
22110W        W38957  12.348  17.115  12.046 -0.2262  0.1896 -0.1714
22111W        W38958  10.812   1.986   2.779  0.1416  0.1016 -0.1561
22112W        W38959   5.140   2.097   3.223  0.2907 -0.0064 -0.2614
22113W        W38960   4.246   1.764  15.099 -0.3794  0.1874  0.0299
22114W        W38961   6.579  18.441  13.528 -0.0159  0.3593 -0.0538
22115W        W38962  13.411  17.358   4.366  0.0188  0.1681  0.2596
22116W        W38963   3.330  14.206  12.833 -0.1321 -0.1097  0.1523
22117W        W38964   8.024  14.846  15.558 -0.1817  0.2892  0.1059
22118W        W38965   0.081   3.016  12.107  0.0889 -0.3400  0.1525
22119W        W38966   9.629  10.958   4.931 -0.2143 -0.2371 -0.0799
22120W        W38967  14.625   7.312  11.265 -0.1071  0.0476 -0.1000
22121W        W38968   2.487  17.381   2.588  0.3195 -0.2203 -0.0007
22122W        W38969  16.242  18.005  11.154 -0.3799  0.0703  0.0960
22123W        W38970   8.155  16.274   4.300 -0.3639 -0.0372  0.0304
22124W        W38971  11.616   2.763  12.912  0.2227  0.2649 -0.2192
22125W        W38972  14.889  14.791  11.601 -0.1936 -0.0933 -0.0597
22126W        W38973   8.322  13.150   2.399  0.1452  0.1299  0.0312
22127W        W38974   4.721   7.665  12.800 -0.0026 -0.0463  0.0670
22128W        W38975   7.381   3.487   0.106 -0.1086  0.0602  0.2474
22129W        W38976  17.713  16.202   5.270  0.2313  0.0293  0.2045
22130W        W38977   1.705   0.339  11.726 -0.0637 -0.0656  0.0848
22131W        W38978   8.964  10.828  14.460 -0.1817 -0.3973  0.0331
22132W        W38979   0.042   3.956   3.620  0.1136 -0.3668  0.1472
22133W        W38980   5.665   5.133  15.503  0.0722 -0.2283  0.0860
22134W        W38981  14.309  15.145   4.154 -0.1734 -0.2634 -0.3400
22135W        W38982   2.357  15.272   1.979  0.1368  0.0366 -0.0718
22136W        W38983   9.638  12.159  13.017  0.0430 -0.1485  0.3847
22137W        W38984   6.900   2.762   0.651  0.1549 -0.2332 -0.0413
22138W        W38985  13.909  18.364  13.668 -0.0314 -0.0111 -0.1524
22139W        W38986   8.192  12.083  12.153  0.0970 -0.1863  0.2398
22140W        W38987  10.460  14.439   5.168 -0.0932 -0.2226 -0.4684
22141W        W38988  12.970   6.691   1.030  0.3032 -0.0882  0.2146
22142W        W38989  16.002  12.863   4.386  0.1212  0.2412 -0.1379
22143W        W38990   3.672  10.018   5.331  0.0513 -0.0524  0.0909
22144W        W38991  13.253   9.677  15.465  0.0466 -0.0607  0.3560
22145W        W38992  18.307   8.336   4.560  0.0173  0.2522  0.0286
22146W        W38993  15.917  15.096  15.149  0.0816 -0.1434 -0.0090
22147W        W38994  13.013  11.470  13.062 -0.0264  0.1379 -0.0700
22148W        W38995   3.916   5.134  15.462  0.0295  0.1076  0.0280
22149W        W38996   0.721   2.331  13.964  0.2968 -0.0525 -0.2328
22150W        W38997  12.367   9.144  13.759 -0.1015 -0.0723 -0.2579
22151W        W38998  17.859  10.769   0.195 -0.2472 -0.4998 -0.3103
22152W        W38999  10.982  14.105  12.060  0.2823 -0.1926  0.2917
22153W        W39000  15.433  15.882   0.787 -0.0806 -0.0149 -0.0705
22154W        W39001  12.452   3.940   2.381 -0.0277 -0.1054  0.1161
22155W        W39002  11.397  13.863   1.445  0.0461 -0.1758  0.1901
22156W        W39003  10.256   1.935   4.682 -0.1413 -0.0059 -0.1949
22157W        W39004  12.246   8.814   4.327  0.1600  0.0366 -0.0917
22158W        W39005   5.364  13.841   2.968  0.0227  0.2684 -0.0866
22159W        W39006   7.113   4.303   4.085  0.1084 -0.0001  0.1508
22160W        W39007  16.430  10.637  14.790 -0.6572 -0.2211  0.3486
22161W        W39008   7.170  16.157  13.298  0.2139 -0.0381 -0.1930
22162W        W39009  15.065   9.483   2.547 -0.1687 -0.0588 -0.3557
22163W        W39010   6.518   3.195  10.933 -0.1222  0.0794 -0.1039
22164W        W39011   1.197  16.764  14.298 -0.1839 -0.3340 -0.2846
22165W        W39012  17.668  11.588   1.356  0.2019  0.1152  0.1948
22166W        W39013   0.774   3.017   3.924 -0.4493 -0.2861  0.0938
22167W        W39014   3.053  10.666  12.115 -0.1117 -0.0700 -0.1081
22168W        W39015   7.841  16.342   5.243 -0.3575 -0.1977  0.0795
22169W        W39016   5.226  16.012  11.080  0.3288  0.1329 -0.0272
22170W        W39017   4.029   1.706   3.745 -0.1774 -0.4628  0.2168
22171W        W39018   4.524  14.010  13.210  0.1484  0.0753 -0.2604
22172W        W39019  13.756  12.892   1.508  0.3599  0.0312  0.2844
22173W        W39020   9.927   7.048  13.997  0.0814  0.5946  0.1413
22174W        W39021   8.886  10.174   3.801 -0.1782 -0.1334 -0.2345
22175W        W39022   9.931   3.223  15.474  0.0776  0.0021 -0.0128
22176W        W39023  10.971   9.036   4.801 -0.1616 -0.3381 -0.1111
22177W        W39024  11.386   4.813   1.866 -0.0806  0.0291 -0.2981
22178W        W39025  12.249   9.433   0.022  0.0477  0.1122  0.1879
22179W        W39026  17.238   2.419  15.165 -0.4448 -0.0362  0.1461
22180W        W39027   7.911   4.829   0.624  0.0805  0.0553 -0.1352
22181W        W39028  13.877   9.759   3.509 -0.0142  0.0225  0.1732
22182W        W39029  15.607  18.189   3.553 -0.0314 -0.1907 -0.1758
22183W        W39030   3.874   2.313   3.771 -0.1761 -0.1234  0.1352
22184W        W39031   2.886  13.413  12.778 -0.2326 -0.1056 -0.2044
22185W        W39032   6.993   1.928   5.199 -0.2317 -0.3906  0.2098
22186W        W39033   0.299   5.686   0.669 -0.0202 -0.2049 -0.1867
22187W        W39034  16.701   0.665   3.895  0.0968 -0.0861  0.1317
22188W        W39035   5.484  12.486   3.370 -0.0588  0.0332  0.2021
22189W        W39036  10.508  11.839   3.269  0.1438 -0.0641 -0.1832
22190W        W39037   5.557  14.131   1.992 -0.0968 -0.0104 -0.0493
22191W        W39038  11.885   3.548   0.265 -0.1420 -0.1047 -0.4000
22192W        W39039   6.787  18.153   4.783 -0.0453 -0.1203 -0.1884
22193W        W39040   2.027  18.216   0.612 -0.0508  0.0718 -0.4438
22194W        W39041   8.986  11.237  14.114  0.0867  0.2684  0.0957
22195W        W39042  10.490   6.485   0.382  0.1706 -0.2594 -0.0810
22196W        W39043   8.586  18.832  15.404 -0.1831 -0.1814 -0.1855
22197W        W39044  13.360   1.772  14.958  0.3959 -0.2415 -0.1598
22198W        W39045   8.808  13.133  15.045  0.1546  0.1233  0.0434
22199W        W39046   5.794  16.535   4.913  0.2648 -0.2884 -0.0865
22200W        W39047   3.153   1.913   1.986  0.1972  0.1421 -0.1848
22201W        W39048  12.968   9.121  10.919 -0.0863  0.0789  0.0982
22202W        W39049  14.047   2.041   1.819 -0.1530 -0.4318 -0.0223
22203W        W39050   8.433  15.029  15.304  0.1274  0.1983  0.2644
22204W        W39051  16.087  15.819   1.331 -0.1093 -0.1115  0.1721
22205W        W39052  16.445  17.835   3.598 -0.3052  0.1067  0.2517
22206W        W39053   8.926  11.402   5.749  0.2269 -0.2970 -0.0642
22207W        W39054   9.236  13.364   5.612 -0.2327  0.2236  0.2190
22208W        W39055   6.558   0.260   5.187 -0.2750  0.3248  0.1543
22209W        W39056   6.571   3.950   4.662 -0.0278 -0.4560 -0.1404
22210W        W39057   2.506   3.433   1.292 -0.2653 -0.0245 -0.1840
22211W        W39058  17.045   2.894   3.920 -0.0430 -0.1360  0.2259
22212W        W39059  17.627   0.893  13.190 -0.0230  0.2984  0.0842
22213W        W39060  12.225  11.851   0.286 -0.1095  0.1084  0.1072
22214W        W39061   2.208  12.498  12.429 -0.2445  0.1060  0.2452
22215W        W39062  15.292   3.072  11.724 -0.0142 -0.0088 -0.0978
22216W        W39063   9.279   3.481   3.282 -0.0702  0.1813 -0.0911
22217W        W39064  14.886  11.768   1.375 -0.0941 -0.2630  0.0535
22218W        W39065   7.277  13.059  12.010  0.2562 -0.2319 -0.0911
22219W        W39066  10.821  17.230  12.246  0.1613  0.3123  0.1610
22220W        W39067   3.422   3.561  14.337  0.0568 -0.0269  0.0585
22221W        W39068   0.240  15.661   1.968 -0.0376 -0.1577 -0.0491
22222W        W39069  15.661  11.734  14.688 -0.0353 -0.0236 -0.0658
22223W        W39070  18.642  18.783  14.368  0.1938  0.1754 -0.2422
22224W        W39071   1.076   6.393  11.369 -0.0385  0.1674  0.2461
22225W        W39072   2.350  12.773   4.754  0.5275 -0.7580  0.0482
22226W        W39073  15.938  11.806  13.295 -0.0972 -0.0145 -0.3800
22227W        W39074  11.875  17.924   2.915  0.1497 -0.2313 -0.0030
22228W        W39075  11.591   3.778  11.372  0.2510  0.1545  0.0647
22229W        W39076   7.731  13.253   3.319  0.1879 -0.1118 -0.1825
22230W        W39077   6.025  15.398  11.183  0.0823 -0.2499 -0.3285
22231W        W39078   4.090  13.217   2.957 -0.0928 -0.0620  0.2935
22232W        W39079   4.288  13.489   2.189 -0.2104 -0.1338  0.2648
22233W        W39080  13.994   2.484   2.723  0.0788  0.0557  0.1707
22234W        W39081  14.599  15.612   0.005  0.3086 -0.0572 -0.4269
22235W        W39082  18.557  12.922   1.821  0.3082  0.1813  0.2387
22236W        W39083  14.292   5.653  11.487  0.0518  0.4796 -0.2519
22237W        W39084   0.677  15.008  14.308 -0.0859 -0.1508  0.0593
22238W        W39085   5.053  17.230   2.378  0.0245  0.2345 -0.1318
22239W        W39086   2.043   2.632   3.740  0.3667 -0.2821  0.2376
22240W        W39087  16.070   6.781  11.753  0.2345  0.1291 -0.2510
22241W        W39088   6.384   6.633   0.503  0.0812 -0.2294  0.3031
22242W        W39089  13.717  16.425  11.685  0.0733  0.0085  0.2099
22243W        W39090  12.269   7.182   2.823 -0.0498 -0.1827 -0.0512
22244W        W39091  17.673   7.168  15.273 -0.1496  0.3485  0.2225
22245W        W39092   1.376   1.536  14.138  0.0804 -0.1819  0.0243
22246W        W39093   4.447   7.274  11.676  0.1807  0.1078  0.0174
22247W        W39094  16.740  17.696  13.979  0.2302  0.0410  0.1207
22248W        W39095   1.145  13.942   1.545  0.2115  0.0526 -0.2179
22249W        W39096   5.436  18.056   2.457  0.0495  0.1188  0.0543
22250W        W39097   9.691   9.290  13.081 -0.1453 -0.2468  0.0593
22251W        W39098   8.540  16.930   4.723  0.4592 -0.0295  0.1145
22252W        W39099   3.473   2.083  11.803  0.1408  0.0478  0.2028
22253W        W39100  18.379   9.991   1.433 -0.0303  0.1189  0.0731
22254W        W39101  17.101   5.804  11.681  0.0157 -0.1477  0.1463
22255W        W39102  10.644  15.627  13.634 -0.0997 -0.2322  0.1384
22256W        W39103   2.107  12.603  14.286  0.1145  0.0248  0.3225
22257W        W39104  14.165   3.830  12.213 -0.2819 -0.2031 -0.0289
22258W        W39105   7.949   2.388  10.448  0.1527  0.1014 -0.0665
22259W        W39106   3.169   9.670   4.688 -0.0403  0.1251 -0.1545
22260W        W39107   5.285  14.070   1.430  0.2106  0.1313  0.2821
22261W        W39108   8.169  16.203   1.264 -0.1403  0.2163 -0.0335
22262W        W39109  14.363  17.869   2.766 -0.0968  0.0882 -0.0597
22263W        W39110  13.767  12.198   5.446 -0.0085  0.1090 -0.1109
22264W        W39111   0.667  10.536  15.272  0.1165  0.3537  0.3052
22265W        W39112   2.464  13.127  14.829 -0.1182 -0.2436  0.2279
22266W        W39113  17.557   4.797   4.238  0.0925 -0.1714 -0.0914
22267W        W39114   9.910   5.672  14.265 -0.5921 -0.1617 -0.0247
22268W        W39115   7.744  16.128   1.616  0.1037  0.0761 -0.0359
22269W        W39116  15.711   4.701  13.418 -0.0252 -0.0839 -0.0670
22270W        W39117   1.951  16.939  12.475 -0.0581  0.0003  0.1302
22271W        W39118   7.734  14.842   2.536  0.1860  0.0201  0.0397
22272W        W39119  16.252   5.507   0.181  0.2277 -0.1105 -0.1017
22273W        W39120  17.035  12.568  13.654  0.0356 -0.1385  0.1619
22274W        W39121   2.210   0.003  15.063 -0.4832  0.0948 -0.0229
22275W        W39122  17.362   2.323   1.650  0.2152 -0.1010 -0.0323
22276W        W39123  17.068   6.014   1.296  0.4008 -0.1903  0.0694
22277W        W39124   5.409   0.531  15.281 -0.2404 -0.1434  0.1187
22278W        W39125   9.324  16.058   0.944  0.0137 -0.2875  0.1996
22279W        W39126  13.442   1.330  13.096 -0.1155 -0.1088  0.0443
22280W        W39127   2.915   2.150  12.208 -0.0561 -0.0803  0.2160
22281W        W39128   9.514  17.866   1.542 -0.1398 -0.0441 -0.0038
22282W        W39129  18.043  15.069   4.684  0.0316  0.0873 -0.0175
22283W        W39130  11.019  15.359  13.384  0.2740  0.0217  0.3289
22284W        W39131  13.772  10.279   3.213 -0.1764  0.4545  0.1418
22285W        W39132  16.358   2.350   2.757 -0.0483 -0.1035  0.0918
22286W        W39133   7.669   3.528   5.400  0.3152 -0.2697 -0.0218
22287W        W39134   4.689   3.167  14.903 -0.2372  0.0157 -0.0284
22288W        W39135   3.363   6.409  13.872  0.2111  0.0601  0.3712
22289W        W39136  18.696   6.419   1.842 -0.0761 -0.0393 -0.2470
22290W        W39137   5.468  18.782   4.286 -0.1384  0.0785 -0.0364
22291W        W39138  15.163   6.112   2.876 -0.2058  0.0318 -0.2924
22292W        W39139  12.756  11.675  11.327 -0.1355  0.2215  0.0105
22293W        W39140  17.190   8.152   2.533 -0.2740 -0.0895 -0.2101
22294W        W39141  15.893   6.851   5.219 -0.1664 -0.1822 -0.1024
22295W        W39142   0.058   2.379   2.210 -0.0384  0.2541  0.0265
22296W        W39143   5.908   4.650  14.930 -0.1305  0.1659  0.1120
22297W        W39144  16.908   0.553  13.718  0.0416 -0.6109 -0.0470
22298W        W39145   0.338   1.886   1.542  0.0752  0.1273 -0.0909
22299W        W39146   0.200  17.721   2.683 -0.0664  0.0914 -0.3198
22300W        W39147  17.409  17.756   3.417 -0.0855 -0.2191 -0.1084
22301W        W39148   3.921  13.025  13.714  0.3816 -0.1392 -0.0213
22302W        W39149   0.893  12.343  14.539 -0.1777  0.0770 -0.0408
22303W        W39150   7.869  12.892   2.320 -0.1527 -0.0539 -0.4453
22304W        W39151   8.640   4.164  14.445 -0.0161  0.1482 -0.1784
22305W        W39152   4.957  12.597  14.405  0.1454  0.2054 -0.1434
22306W        W39153   5.290  11.112  14.920  0.1027 -0.3648 -0.0201
22307W        W39154   6.050   8.907   1.636  0.0327 -0.0956  0.2074
22308W        W39155   3.408  12.501   1.818 -0.0092  0.0587  0.0825
22309W        W39156   3.072  11.774  13.619 -0.3498  0.2049 -0.0743
22310W        W39157   6.054   4.125  10.090 -0.1831  0.4260  0.1985
22311W        W39158   6.181   2.361  14.763  0.0939  0.0449  0.0735
22312W        W39159  12.494  11.709   3.587 -0.0438  0.2678 -0.0138
22313W        W39160   7.722  18.470  14.135  0.0017 -0.1745 -0.1041
22314W        W39161   7.828  10.184   1.054 -0.3141  0.0160 -0.2946
22315W        W39162   5.927   8.621  12.639  0.5938  0.1116  0.1671
22316W        W39163  16.949   9.015  14.822  0.1564  0.1111 -0.3136
22317W        W39164   8.322  12.985   0.906  0.1028 -0.1312 -0.3150
22318W        W39165  15.723  13.512   0.929  0.1421  0.0425 -0.1908
22319W        W39166   2.499   4.821  12.241  0.0409  0.1506  0.2002
22320W        W39167  17.646  17.673   3.931  0.1994  0.0086 -0.1550
22321W        W39168  10.168   3.852  12.707  0.0462 -0.0339 -0.1862
22322W        W39169   9.069  12.592  12.458 -0.0942 -0.0008  0.2375
22323W        W39170  18.505  13.412   3.235 -0.0036  0.1224  0.1921
22324W        W39171  14.953   5.912  15.487  0.0851 -0.0778  0.0456
22325W        W39172  13.137   2.734   1.990 -0.2200  0.0756  0.2168
22326W        W39173  12.456   8.011   3.314 -0.0211  0.1691  0.1993
22327W        W39174   6.025  14.056   0.689  0.0689 -0.3394  0.2822
22328W        W39175   4.125   8.073  11.157  0.0505  0.0408  0.2988
22329W        W39176   7.056   0.948  14.409  0.1302  0.0668 -0.2977
22330W        W39177   1.253  18.472   3.426  0.0581 -0.0123  0.3298
22331W        W39178  11.771  13.104  13.962 -0.1468 -0.1427  0.4222
22332W        W39179  18.282   2.053  10.794  0.2581  0.2078 -0.0647
22333W        W39180  13.914   4.863   4.107  0.0290 -0.1582 -0.2008
22334W        W39181  11.280   6.037   0.652  0.1713  0.1439  0.1965
22335W        W39182  15.153   4.487   3.902  0.0933  0.0357 -0.1540
22336W        W39183   4.689  12.448   5.214  0.1530  0.2792  0.0036
22337W        W39184  16.251   5.393   2.613 -0.1746  0.3551  0.0535
22338W        W39185   2.296  15.735  15.428 -0.1530 -0.0971 -0.2296
22339W        W39186   5.339   0.216  13.319  0.0290 -0.2437 -0.0882
22340W        W39187  18.123  17.858   4.030 -0.0984  0.1454 -0.0267
22341W        W39188   3.996   6.932  15.304  0.0787 -0.0965 -0.0526
22342W        W39189   7.926  14.926  11.670  0.0844  0.2681 -0.0691
22343W        W39190  14.730  12.844   1.881 -0.0845 -0.2815 -0.1838
22344W        W39191  13.771  13.449  13.712  0.2120 -0.4075  0.2893
22345W        W39192   5.569   1.307  14.134  0.0855  0.0875 -0.0010
22346W        W39193   8.062   5.895  11.400  0.0701  0.1719  0.0563
22347W        W39194  15.228   0.001  13.597 -0.1343 -0.0497  0.1417
22348W        W39195  16.596   3.021  14.459  0.1460 -0.1403 -0.0919
22349W        W39196   2.894  17.168  11.313 -0.0772 -0.2211  0.3563
22350W        W39197  11.234  13.404  12.558 -0.0372 -0.0576  0.0071
22351W        W39198   5.316   1.611   3.115 -0.1646 -0.0381 -0.1141
22352W        W39199   0.733  16.491  13.156  0.0193  0.0304 -0.1428
22353W        W39200   7.113  13.840   3.371  0.1350  0.1307  0.0772
22354W        W39201  10.856   9.062   3.290  0.0539 -0.0169 -0.0950
22355W        W39202  15.130   7.576  11.252  0.0381 -0.1380  0.1400
22356W        W39203   5.600  16.447  12.373 -0.3137  0.0163  0.2636
22357W        W39204  15.637   2.142   4.386 -0.0487 -0.0493 -0.1672
22358W        W39205   0.455  12.946  13.850 -0.4160 -0.0577  0.0243
22359W        W39206   9.560   4.535   5.355 -0.0307 -0.0848  0.0481
22360W        W39207   4.008   1.012  13.005 -0.0318 -0.4751 -0.2272
22361W        W39208   8.347   6.494   0.511 -0.1929 -0.0448 -0.0706
22362W        W39209  12.659  17.013   2.190 -0.1086 -0.0576 -0.3558
22363W        W39210   1.300  17.072  11.036  0.1605  0.1966  0.1603
22364W        W39211  10.150  17.595  14.427  0.2058  0.1933  0.1146
22365W        W39212   4.563  11.746  14.203  0.1483  0.0203 -0.0507
22366W        W39213  11.299  17.081   1.157  0.0390 -0.3005  0.3785
22367W        W39214   8.549   9.297  15.038  0.1453 -0.1386 -0.1788
22368W        W39215   2.339   9.811   2.529 -0.0587 -0.2790 -0.0015
22369W        W39216  10.834  18.358  13.377  0.1929  0.3998 -0.2742
22370W        W39217   5.511  17.829   3.892  0.1367  0.2812  0.1478
22371W        W39218  14.262  17.367  12.395  0.1347  0.0799  0.3297
22372W        W39219   3.572  10.113  14.944 -0.0119  0.1436 -0.0492
22373W        W39220   4.904   0.942  11.568  0.0904 -0.1802 -0.1833
22374W        W39221   5.096   2.041  15.356  0.1599  0.1482  0.0964
22375W        W39222   3.464  12.527  15.510 -0.1617  0.0777  0.0938
22376W        W39223   9.129  14.882  11.642 -0.0402 -0.0291  0.0003
22377W        W39224   7.168  16.959  14.271  0.1378  0.0078  0.3230
22378W        W39225   4.363   6.959   1.677  0.0409 -0.1105 -0.0321
22379W        W39226  12.848   3.391  15.007  0.0191  0.3968 -0.1687
22380W        W39227   5.506   3.975  15.069  0.1073  0.0391  0.1536
22381W        W39228  13.108  15.402   0.107  0.2165 -0.0325  0.0742
22382W        W39229  16.615   5.448   9.910 -0.1678  0.0926  0.3736
22383W        W39230  11.373   0.458  14.571  0.0074 -0.1676  0.0297
22384W        W39231   8.546   1.088  10.885 -0.2696 -0.0989  0.0145
22385W        W39232  14.238   4.398  14.148 -0.4236 -0.0059  0.0566
22386W        W39233   4.907   2.016  13.416  0.0047  0.0601  0.3178
22387W        W39234   5.191  12.474  12.614  0.2029  0.1330 -0.0104
22388W        W39235  17.029  12.473   1.952 -0.1846 -0.0008  0.1064
22389W        W39236   4.813  12.683   3.854  0.1146  0.0599 -0.3636
22390W        W39237  17.607  14.929   1.157  0.1259  0.1840  0.1010
22391W        W39238   5.088   1.115  12.468  0.0686 -0.2553  0.1642
22392W        W39239   6.347   4.558   5.465 -0.1553  0.0833  0.0879
22393W        W39240   0.663  11.073   1.840 -0.2915 -0.0064  0.1592
22394W        W39241  17.940  10.307   2.619  0.2457 -0.1159  0.2198
22395W        W39242  18.045   5.501   0.123 -0.0560  0.2361 -0.2218
22396W        W39243  11.720  10.102  15.004 -0.1187 -0.0389 -0.0318
22397W        W39244  17.820  18.121   4.923 -0.1736  0.3327  0.0278
22398W        W39245   3.176  13.647  11.922 -0.2254 -0.0248  0.1613
22399W        W39246   8.410  14.051   3.921 -0.0562 -0.1769 -0.0442
22400W        W39247   2.763   3.910   1.637 -0.2803  0.1355  0.0963
22401W        W39248   0.581   6.621   0.294 -0.1544 -0.0075 -0.0761
22402W        W39249   1.500  10.283   3.857  0.1069  0.0230  0.4288
22403W        W39250   6.408   8.884   3.018  0.1032  0.1653  0.0833
22404W        W39251   1.242  12.080   3.420  0.1857 -0.2505  0.4573
22405W        W39252   2.573   3.909   1.171  0.1441 -0.2518  0.2278
22406W        W39253   1.936   5.327  11.550 -0.2418 -0.3170 -0.0199
22407W        W39254   3.575  15.357  12.103 -0.2247  0.0611  0.1895
22408W        W39255   4.971  10.106  12.357 -0.0470  0.2063 -0.4186
22409W        W39256  10.199   3.959   4.675 -0.1690 -0.2883 -0.0585
22410W        W39257  10.000   8.597   5.434 -0.2648 -0.1045 -0.2444
22411W        W39258   9.569   1.962  13.655  0.0671  0.1873 -0.0645
22412W        W39259   8.018   1.545  15.280  0.0551 -0.1027 -0.0890
22413W        W39260   9.106  14.972   2.929  0.1803 -0.4070 -0.1828
22414W        W39261  18.450  11.349   4.318 -0.1276  0.2872  0.0302
22415W        W39262   4.123   9.431  11.259  0.3328 -0.0030 -0.0760
22416W        W39263  12.544  10.372  14.642  0.1659 -0.1818  0.2625
22417W        W39264  11.314   6.932   0.354  0.1010 -0.2540 -0.0748
22418W        W39265   2.517   4.144   2.054 -0.0765 -0.2417 -0.1968
22419W        W39266  16.094  15.512   1.790  0.0509 -0.1038 -0.2442
22420W        W39267   7.459   6.869  12.744  0.0086  0.0846 -0.0163
22421W        W39268  12.777  10.251   3.097  0.0985 -0.4075  0.0686
22422W        W39269  12.520  12.491   1.658 -0.1326  0.2059 -0.1671
22423W        W39270  16.705  12.552   2.443 -0.4322  0.2168 -0.1792
22424W        W39271  10.583   9.069  10.420 -0.1626  0.1052  0.0897
22425W        W39272   1.149   3.738   2.334 -0.2639  0.0922  0.1640
22426W        W39273   4.099  15.044   2.443 -0.0601 -0.1229 -0.2688
22427W        W39274  16.593  12.188   2.830  0.0965 -0.0704 -0.0721
22428W        W39275   7.954   2.430   0.283  0.1331  0.0623  0.2515
22429W        W39276   4.025  14.676   1.484  0.0168  0.0573  0.0604
22430W        W39277   4.495   3.860   1.587  0.5661 -0.3561 -0.0063
22431W        W39278   8.095   4.133  11.534  0.1276 -0.0746 -0.0051
22432W        W39279   2.803  17.958   5.425  0.2884  0.0177 -0.1558
22433W        W39280   0.121  16.663  11.319 -0.2307 -0.2978  0.0001
22434W        W39281  15.202  18.537  15.317 -0.1082  0.0235  0.1591
22435W        W39282   4.055  15.393   0.367 -0.0501 -0.1459 -0.0583
22436W        W39283  13.812  12.927  11.981 -0.0107 -0.0433 -0.3289
22437W        W39284   9.551  16.223  15.544 -0.3227 -0.1692 -0.1436
22438W        W39285   9.477   7.441   2.820  0.0752  0.1636  0.0573
22439W        W39286   3.565   4.360  10.727 -0.0415  0.0072  0.4742
22440W        W39287   9.536   4.898   3.506 -0.2462 -0.0539  0.2542
22441W        W39288  10.164  10.150   2.714  0.1347  0.0612 -0.1347
22442W        W39289  11.144   7.430  14.285  0.1231  0.3811  0.1070
22443W        W39290  16.543   1.174   3.442  0.0564 -0.0127 -0.0632
22444W        W39291  18.520  11.845  14.408  0.0006 -0.0943  0.0521
22445W        W39292  12.886   9.727  12.764  0.1985  0.2563  0.0461
22446W        W39293   3.462  15.821  10.308  0.0474 -0.1020  0.0471
22447W        W39294   0.674   6.130   0.601 -0.2858  0.2788 -0.2126
22448W        W39295   5.106  11.651   2.454 -0.0434  0.0423 -0.1129
22449W        W39296   0.734  18.277   2.268  0.1404 -0.1521  0.2407
22450W        W39297  11.962   7.700  14.506 -0.1995 -0.0362 -0.0272
22451W        W39298   5.792   0.618   2.629 -0.2966  0.0286  0.0973
22452W        W39299  13.709  12.616   5.049 -0.0972  0.1261 -0.1204
22453W        W39300   4.992   7.422   1.447  0.1504  0.1109  0.1096
22454W        W39301   8.018   5.948  12.565  0.1356  0.0072  0.0114
22455W        W39302  11.837  17.770   4.642 -0.3925  0.0408 -0.1990
22456W        W39303  14.419  17.053   3.217  0.1337 -0.0615 -0.0730
22457W        W39304  18.616   5.172   2.853  0.1691 -0.0510  0.1652
22458W        W39305   4.390  17.383   0.620 -0.3023 -0.2467 -0.0099
22459W        W39306   1.619   4.732  12.035 -0.0947 -0.2672 -0.0765
22460W        W39307   4.423  13.647   2.989 -0.4210  0.0415  0.3132
22461W        W39308  12.147   8.552   0.075 -0.1037 -0.3420 -0.1379
22462W        W39309   4.732   7.930  13.971 -0.0121  0.0573 -0.5020
22463W        W39310  15.832   5.210   4.114 -0.1067 -0.0116 -0.1357
22464W        W39311  18.132  16.004   3.022  0.1066  0.1989 -0.1841
22465W        W39312   1.381  18.266   3.015 -0.0691  0.0051  0.1187
22466W        W39313   5.891  17.564   1.901  0.1702  0.1654 -0.0963
22467W        W39314   6.154   5.269  15.475 -0.1335  0.0038  0.1324
22468W        W39315  12.430  16.279   3.671 -0.0350  0.0368 -0.1598
22469W        W39316   2.761  13.374   1.795  0.4104 -0.3972  0.2105
22470W        W39317  14.606   7.726  14.120 -0.1439  0.2957 -0.5031
22471W        W39318  16.491   8.806  15.008 -0.0028 -0.3017  0.0394
22472W        W39319   4.512  14.629  14.942  0.0259 -0.1603  0.0154
22473W        W39320   3.876  10.523   3.183  0.0694  0.1877 -0.2048
22474W        W39321  10.516  15.849  14.996 -0.0158 -0.1048 -0.1850
22475W        W39322   6.083   3.736   1.415  0.2633  0.0355 -0.3266
22476W        W39323   8.530   7.641  14.464  0.1875  0.0425  0.1128
22477W        W39324  15.267  17.451   5.601 -0.0014  0.4420  0.3249
22478W        W39325   4.477  10.735   0.760 -0.0371  0.0974 -0.1130
22479W        W39326   3.261   8.927   0.349  0.0466 -0.1738 -0.0838
22480W        W39327  11.148  16.233  13.458 -0.2036  0.0043 -0.0176
22481W        W39328   8.147   5.387  11.636 -0.0007  0.0081 -0.3304
22482W        W39329  10.233  13.204  15.261  0.0943 -0.1465  0.0206
22483W        W39330  15.971   8.215  12.495  0.2602  0.1947 -0.0108
22484W        W39331  11.634   8.678   0.339 -0.0341  0.0460  0.1131
22485W        W39332   1.959   6.144  14.723 -0.0670  0.0006  0.3078
22486W        W39333  15.456  12.153  11.140  0.2582 -0.1869 -0.1950
22487W        W39334   4.624   6.488  15.353 -0.2228 -0.0073  0.0241
22488W        W39335   0.750   5.976   5.599 -0.0128 -0.2601  0.0009
22489W        W39336   7.340   6.861   1.643  0.3794  0.0637 -0.1372
22490W        W39337   3.279   3.868   1.293  0.1697  0.0742 -0.0333
22491W        W39338   9.520   4.380  11.402 -0.2118 -0.0892  0.1215
22492W        W39339   7.508   2.270   4.030  0.0458  0.0209 -0.0977
22493W        W39340  14.382  16.572   2.457  0.3251 -0.0719 -0.1651
22494W        W39341   2.903   4.408   1.875 -0.2688  0.2440  0.1864
22495W        W39342   7.939  14.497   1.497 -0.0928  0.0171  0.5269
22496W        W39343  11.662  10.918   0.919  0.4230 -0.1289  0.1058
22497W        W39344  16.583  17.663   0.392  0.0926  0.0007 -0.1441
22498W        W39345   3.606   5.763  11.534 -0.0800 -0.0678 -0.0912
22499W        W39346  11.403  10.535   0.233 -0.0113  0.0595  0.1675
22500W        W39347  14.975  16.079   0.670 -0.2859  0.0925 -0.2016
22501W        W39348  17.827   4.090  11.024  0.0521 -0.0305 -0.2167
22502W        W39349   1.154  17.636   3.929 -0.2245  0.0664  0.1501
22503W        W39350  13.725   3.185  14.594  0.1356 -0.0825  0.3239
22504W        W39351   4.467  10.069  13.306  0.2309  0.1964  0.0862
22505W        W39352  12.726   1.416  12.428 -0.1303 -0.0749  0.1098
22506W        W39353   7.075  10.975  15.274  0.1150  0.1679  0.0782
22507W        W39354  14.717   5.491  11.158  0.1976  0.0343  0.0781
22508W        W39355   4.825  17.550   0.884  0.0617  0.1441 -0.1040
22509W        W39356  12.170  18.639   1.871 -0.2485 -0.1162 -0.1494
22510W        W39357  12.911   3.284   5.337 -0.3238  0.0771 -0.1677
22511W        W39358  10.805  11.103   2.139 -0.0696 -0.0272 -0.3700
22512W        W39359   7.315  12.105   3.958  0.0800 -0.0846 -0.1448
22513W        W39360   8.774  14.687  12.866  0.1434 -0.2236 -0.2332
22514W        W39361   7.304  16.739  13.839  0.2328  0.3015  0.0878
22515W        W39362   1.357  18.068  11.225  0.1642 -0.1106 -0.0622
22516W        W39363  13.481   2.545   0.667 -0.0069 -0.3153  0.2162
22517W        W39364  11.635  18.351   1.135 -0.0630  0.0407  0.2365
22518W        W39365  14.265  14.473  14.381 -0.1561  0.0107 -0.0479
22519W        W39366   9.032  16.901  11.397 -0.1096  0.0229 -0.3734
22520W        W39367   4.893   2.002   3.893 -0.0760 -0.1299  0.1301
22521W        W39368  17.974   5.131   1.386  0.2862 -0.0311  0.0766
22522W        W39369   7.897   0.270   3.213 -0.0543 -0.2546  0.3247
22523W        W39370   0.451   2.565  14.471  0.1879 -0.0634  0.1544
22524W        W39371   1.042   8.818  13.954  0.1159  0.1008 -0.0230
22525W        W39372  12.481   9.212   2.386 -0.0132  0.2515 -0.4695
22526W        W39373   4.928   2.086   2.130 -0.0623 -0.3426  0.0607
22527W        W39374   0.676  17.175   3.264  0.1594  0.1196  0.1344
22528W        W39375   4.379   9.439   0.545 -0.0370  0.1654  0.0254
22529W        W39376   1.035  10.987  11.884 -0.0035  0.1665 -0.3262
22530W        W39377   0.597   2.702   0.014 -0.0304 -0.0561 -0.1552
22531W        W39378   9.625   9.624   1.079 -0.0233  0.1365  0.1392
22532W        W39379  12.655  15.245  12.240  0.1908 -0.0268 -0.0380
22533W        W39380  15.647  16.076   1.209  0.1968  0.1381  0.2545
22534W        W39381   6.457   4.318  13.357 -0.3035 -0.2594  0.2349
22535W        W39382  17.962  12.596  10.740 -0.1229  0.0229 -0.1247
22536W        W39383   7.348   1.651   1.990  0.1926 -0.2716 -0.3078
22537W        W39384  14.451  14.124   0.136 -0.1259 -0.1445 -0.3687
22538W        W39385  14.581   1.692  11.357  0.0654  0.1150  0.0100
22539W        W39386  11.589  16.062   1.574  0.0910 -0.5216 -0.1187
22540W        W39387   3.903  13.527   0.699 -0.1873 -0.0525  0.2771
22541W        W39388  12.830   0.845   4.266  0.1357  0.2065  0.1434
22542W        W39389   5.876  18.709   5.086 -0.2612 -0.1653  0.1137
22543W        W39390   6.117   5.623  13.725 -0.0350 -0.2738 -0.1189
22544W        W39391  16.052   6.336  15.453  0.1641 -0.2045 -0.1353
22545W        W39392  10.116  18.253  15.047  0.1010  0.0899  0.1885
22546W        W39393  15.125  17.845  15.046 -0.0511  0.0738  0.1018
22547W        W39394  18.353   9.815  14.719 -0.2302 -0.0291 -0.0245
22548W        W39395  17.780   9.464   2.000  0.3349  0.2189 -0.0415
22549W        W39396   0.438  13.700   0.281  0.1038  0.0472  0.2983
22550W        W39397   7.350   2.107   3.447  0.0866  0.1025  0.3890
22551W        W39398   7.486  10.024   3.456  0.0512  0.1055  0.2695
22552W        W39399   0.698   7.727   2.322 -0.2251  0.0613  0.1779
22553W        W39400   3.094  11.921   3.067 -0.0457 -0.0209  0.0091
22554W        W39401   2.928   2.452   4.298 -0.1169  0.5525  0.0351
22555W        W39402   2.752  11.777  12.979 -0.2182  0.0052  0.0333
22556W        W39403  18.522   5.668   5.646  0.1058  0.1938  0.0919
22557W        W39404   2.503   6.871   2.769 -0.3456  0.0836 -0.2136
22558W        W39405   3.975  14.388   4.149 -0.0403  0.1624  0.2008
22559W        W39406   5.743  15.134  14.269  0.0810  0.0059 -0.1687
22560W        W39407   8.893   8.641  12.040 -0.0070 -0.0367  0.0638
22561W        W39408   8.315   2.976  13.226  0.3946  0.3459 -0.2606
22562W        W39409  13.825   3.682   3.160  0.1714  0.1899 -0.0575
22563W        W39410  17.066  17.293  13.910  0.2585 -0.2259  0.3048
22564W        W39411   5.681   1.975   2.378 -0.2968  0.0123  0.1212
22565W        W39412  11.099  17.993   2.270  0.2403 -0.0177 -0.1631
22566W        W39413   4.981  16.797   1.254 -0.0753 -0.0459  0.2644
22567W        W39414  14.076   9.380  14.087 -0.0437  0.2633  0.0120
22568W        W39415  11.730   4.781   4.224  0.1452 -0.1186  0.0909
22569W        W39416  14.186  14.779  12.217 -0.1520 -0.0274 -0.1185
22570W        W39417   4.839   9.121   4.647  0.1149 -0.2543 -0.4051
22571W        W39418  14.498   7.522  14.789  0.2412  0.1810  0.0456
22572W        W39419   8.820   9.384   0.859 -0.1633  0.1110 -0.0346
22573W        W39420  11.083   6.082   3.797  0.0310 -0.3580  0.1706
22574W        W39421  18.668  12.974   2.516  0.1043 -0.0073  0.0701
22575W        W39422  15.019   1.409  10.708 -0.2531 -0.2103  0.0835
22576W        W39423  13.859   9.963  11.656  0.0482 -0.0048 -0.0407
22577W        W39424   1.366   5.460   0.785  0.2374  0.2946  0.0613
22578W        W39425   9.688   6.744   4.123 -0.0387 -0.0049  0.0862
22579W        W39426  11.553  12.219   3.924 -0.3128 -0.0040 -0.3268
22580W        W39427   7.536   7.275   1.465  0.0652 -0.3100 -0.1445
22581W        W39428  10.842  12.197  11.349  0.1348 -0.0043  0.2462
22582W        W39429   3.749   6.134  12.343  0.0590  0.1393  0.0796
22583W        W39430  14.966   5.418  13.226 -0.1454  0.0807  0.0521
22584W        W39431  14.070   6.220   2.246  0.1790 -0.1153  0.0590
22585W        W39432   6.859   3.237   1.832 -0.2488  0.2308  0.2520
22586W        W39433  12.818  13.311   4.253 -0.0262 -0.1120 -0.3605
22587W        W39434   5.230   3.467  13.242  0.0264  0.6075  0.1646
22588W        W39435  15.612   0.334  15.207 -0.1033 -0.2954 -0.0973
22589W        W39436   0.532  14.079  13.200 -0.3351  0.2159  0.1889
22590W        W39437  11.941  13.367   3.345 -0.0806 -0.1989  0.0464
22591W        W39438   3.520   9.559   3.856  0.2810 -0.0381 -0.0209
22592W        W39439  14.694  11.440  12.469  0.0224  0.0281  0.4832
22593W        W39440  10.159  17.461  12.062  0.0184 -0.2868  0.0637
22594W        W39441   3.113  15.533  13.361  0.2136 -0.2480  0.2058
22595W        W39442   8.781   9.207  14.060  0.1246 -0.1974 -0.0589
22596W        W39443  14.729   8.952   4.750  0.0058  0.2202  0.4895
22597W        W39444   1.772  17.819  14.581  0.1383  0.0297  0.2683
22598W        W39445  12.331  12.844   5.153 -0.1012  0.1615  0.1403
22599W        W39446   7.899   7.037   3.740 -0.0388  0.0468  0.0967
22600W        W39447   5.907   7.416   2.369  0.1424 -0.2191 -0.2364
22601W        W39448  17.930  10.795  10.044 -0.0777  0.1268 -0.1778
22602W        W39449  17.388  16.663   5.164  0.1679  0.0489  0.0692
22603W        W39450  14.506  16.108  10.060  0.2040  0.0377  0.1900
22604W        W39451   2.351  11.429   3.651  0.1952  0.2649  0.2972
22605W        W39452   9.780  17.278  11.261 -0.1764 -0.1870 -0.1788
22606W        W39453   4.132  16.716   4.710  0.2909  0.0535  0.0068
22607W        W39454  10.854   4.524   4.609 -0.0382 -0.0886 -0.0479
22608W        W39455   7.361   7.010  11.902 -0.0542  0.0257 -0.1761
22609W        W39456  11.158   6.404   4.168 -0.2561 -0.2676 -0.3231
22610W        W39457   9.387  13.075   2.360 -0.1523  0.0047  0.3566
22611W        W39458  15.926   3.790  15.511 -0.1327  0.0478  0.0037
22612W        W39459   6.790  15.928  11.669  0.4043  0.1412 -0.0117
22613W        W39460   3.896  15.013  11.769 -0.0765 -0.0812 -0.2429
22614W        W39461  15.571  10.814  14.799 -0.0210 -0.1546  0.0133
22615W        W39462  15.759   9.330  14.854  0.1676  0.1182 -0.0581
22616W        W39463   0.970   0.457  10.084 -0.0561  0.2956  0.1223
22617W        W39464   3.701   3.286  12.177 -0.1658  0.0253 -0.0763
22618W        W39465  17.739   5.694  15.214 -0.0247  0.0219  0.3033
22619W        W39466  12.121   1.813   2.611 -0.2260  0.1466  0.2810
22620W        W39467  12.665   3.665  11.601 -0.1477 -0.1007  0.1263
22621W        W39468  13.539   6.366   0.382 -0.0518 -0.0690  0.3454
22622W        W39469   3.238  10.556   1.922  0.0152  0.2124  0.1845
22623W        W39470   6.018   6.637  12.992 -0.0398 -0.1477 -0.0803
22624W        W39471   0.828   1.532   1.331  0.0530 -0.0956 -0.0583
22625W        W39472   1.238   6.596  14.961  0.0287  0.1071 -0.4272
22626W        W39473  13.609   2.833  13.752  0.1582 -0.1054  0.1103
22627W        W39474  11.805  11.875   4.244  0.5634 -0.0564 -0.1178
22628W        W39475   5.365  13.724  12.371  0.0524 -0.1898  0.0245
22629W        W39476   0.889   1.580  14.316  0.2010  0.2993  0.2828
22630W        W39477  16.603  12.236  13.347 -0.0082  0.1932  0.3464
22631W        W39478   3.480  16.405  13.325 -0.1135  0.0063  0.0015
22632W        W39479   1.870  16.534   3.432 -0.0236 -0.1876  0.2074
22633W        W39480  18.739   6.837  14.229  0.2919 -0.3538 -0.0348
22634W        W39481  15.726   5.423  11.125  0.1586 -0.0230 -0.3678
22635W        W39482  14.939   0.462   5.382  0.2510 -0.0569 -0.4178
22636W        W39483   1.527  15.694   2.472  0.1942 -0.1619 -0.1318
22637W        W39484  12.730  16.886   0.288 -0.0764 -0.1564  0.1850
22638W        W39485  13.180  14.086  12.061 -0.0460  0.0679  0.2439
22639W        W39486  14.817   1.471  11.712 -0.3466  0.1109 -0.3406
22640W        W39487  12.438  13.173  11.319  0.2333 -0.1082  0.2146
22641W        W39488   2.400  17.892   5.882 -0.0530  0.1016  0.0121
22642W        W39489  11.134  15.467  14.714 -0.2143  0.0434  0.0498
22643W        W39490   3.738   6.644   3.213  0.0520  0.0825  0.2906
22644W        W39491  11.692  13.651   3.765 -0.1298  0.0728 -0.1720
22645W        W39492  10.623   4.172   4.290  0.2178  0.1034 -0.0406
22646W        W39493   8.358   6.020   4.572  0.3972  0.0099 -0.2151
22647W        W39494   9.500  18.759   1.028  0.0103  0.0852  0.0202
22648W        W39495   7.106   3.196  12.602  0.2668 -0.1152  0.3450
22649W        W39496   6.250  14.616  15.512 -0.0950 -0.0579 -0.0736
22650W        W39497  13.808   9.691  12.556 -0.2216  0.1947 -0.1641
22651W        W39498   4.371   1.663   2.747 -0.1062 -0.0462 -0.1459
22652W        W39499  15.361  10.830   1.426  0.0907 -0.2904 -0.2659
22653W        W39500  13.157   5.850  14.879 -0.2231 -0.1994 -0.2491
22654W        W39501   1.885   8.348   2.882 -0.0052 -0.2868  0.0205
22655W        W39502  15.456   2.236  11.696 -0.2302 -0.1972 -0.2153
22656W        W39503   7.624  12.509  14.101 -0.1851  0.3767  0.1113
22657W        W39504   5.537   2.294   1.549  0.3089 -0.2748  0.0266
22658W        W39505  11.168   2.466  13.686 -0.1290  0.1986  0.1038
22659W        W39506  10.814  13.488  11.469 -0.4014 -0.2655 -0.1454
22660W        W39507   5.576  18.684   0.880 -0.1070  0.3324  0.0902
22661W        W39508   4.029  12.445   4.388 -0.2848 -0.0337  0.2483
22662W        W39509   4.381   5.587   0.416 -0.3021 -0.0382 -0.0224
22663W        W39510  11.847  18.191   0.108  0.0492  0.4419 -0.1930
22664W        W39511  11.668   0.505   3.069 -0.2241 -0.1464 -0.0711
22665W        W39512   5.066  12.938   0.430  0.0803 -0.1754 -0.0108
22666W        W39513   7.235  12.400  13.105 -0.0443 -0.1042 -0.0218
22667W        W39514  15.193  10.774   2.725 -0.1466 -0.0518  0.0131
22668W        W39515  11.005  18.394   1.323  0.0149 -0.0436  0.0613
22669W        W39516  14.924  17.647  11.091 -0.0754 -0.3699  0.2938
22670W        W39517  17.166  17.064  10.017  0.1520  0.2673 -0.3762
22671W        W39518   0.769  18.829  15.102  0.0449 -0.2058 -0.1372
22672W        W39519   5.161  11.763   1.460  0.0466  0.2797  0.1631
22673W        W39520  14.500   1.361   4.374  0.5029  0.2776  0.1521
22674W        W39521   9.960  16.552   2.730 -0.1475 -0.2217  0.0271
22675W        W39522   8.957  17.744   2.503  0.0174  0.0504 -0.1556
22676W        W39523  18.521   8.347   1.718  0.0617 -0.0212 -0.3052
22677W        W39524  15.565  13.545   2.698 -0.1688 -0.2702 -0.2021
22678W        W39525  11.304  13.776  10.569  0.2004  0.1976  0.0878
22679W        W39526  14.634  17.927  11.477 -0.1094  0.1965 -0.0551
22680W        W39527   3.798  11.409  13.296 -0.0560 -0.1396 -0.1088
22681W        W39528  11.104  18.474  11.440  0.2585 -0.3044  0.1291
22682W        W39529  14.188  10.387  11.830 -0.2460  0.0109  0.1065
22683W        W39530   0.955  17.267  10.358  0.0033  0.0668  0.2009
22684W        W39531   7.143   7.663   1.896 -0.4972 -0.0368  0.2714
22685W        W39532  12.993   5.722   3.036  0.2454 -0.0432 -0.1144
22686W        W39533   7.608   2.337   1.217  0.2758  0.0909  0.1630
22687W        W39534  10.866  10.315   1.475 -0.2201  0.0548  0.0047
22688W        W39535  12.148  13.037   2.145  0.0856  0.0810  0.0679
22689W        W39536  17.881   7.283   2.357 -0.0000  0.1560 -0.1038
22690W        W39537   8.214   2.133  11.091  0.2211  0.1383  0.0681
22691W        W39538  13.514  13.318   0.352 -0.0165  0.0736 -0.0860
22692W        W39539  14.484  16.081  14.860  0.1320 -0.1271 -0.3548
22693W        W39540  15.202   3.705   1.907 -0.1715  0.1536  0.1514
22694W        W39541  15.295  13.126   0.386 -0.0690 -0.1559  0.2659
22695W        W39542   8.882   7.522   2.693  0.1951 -0.0315  0.3419
22696W        W39543   8.970   5.806  15.064  0.1787 -0.2406 -0.0095
22697W        W39544  15.906   2.111  12.825  0.2836 -0.0750  0.2525
22698W        W39545   5.908  13.273   3.213  0.1902 -0.4102  0.0590
22699W        W39546   8.086   4.816  14.493  0.1317  0.1510 -0.0314
22700W        W39547  14.414  11.958   4.036 -0.2453  0.2534 -0.1256
22701W        W39548   0.928   4.172  10.775 -0.0422 -0.0745 -0.3842
22702W        W39549  18.580  14.372   4.906  0.0530 -0.0495  0.0384
22703W        W39550  14.795   7.355  14.426 -0.3375  0.2067 -0.1274
22704W        W39551  13.693  17.677  14.314 -0.1661  0.1408 -0.1331
22705W        W39552  10.450   2.100  11.966 -0.2334 -0.2010  0.2515
22706W        W39553   2.316   1.483  11.855 -0.1990 -0.0893  0.3325
22707W        W39554   7.600  17.068   2.686 -0.2993 -0.0962  0.1403
22708W        W39555   1.341   2.282  11.463 -0.4360 -0.0329 -0.0743
22709W        W39556  18.622  10.779  15.329 -0.1080  0.1541 -0.0167
22710W        W39557   3.623  18.600   3.672  0.2252 -0.3069 -0.1332
22711W        W39558   7.031  13.177   5.346 -0.0941  0.2365  0.0329
22712W        W39559   8.593  18.467  12.371 -0.3066 -0.2783  0.3349
22713W        W39560   1.273  18.715  13.256  0.0044  0.1343  0.2088
22714W        W39561  14.025   9.074  11.926 -0.2289 -0.1497 -0.1978
22715W        W39562   2.975   3.826   5.576  0.2015  0.1355 -0.1201
22716W        W39563  18.391   9.562   1.220  0.0814 -0.1719  0.0971
22717W        W39564   1.046  15.139   1.288 -0.1705  0.0785  0.3020
22718W        W39565   5.014   6.388   0.109  0.0032  0.1951  0.1322
22719W        W39566  12.114   8.335   3.445 -0.0943  0.0845 -0.0423
22720W        W39567  11.926  15.881  10.374  0.2289 -0.1231  0.1542
22721W        W39568   6.831  14.051  12.777  0.0396 -0.1228 -0.0703
22722W        W39569  10.402  13.124   4.213  0.0197 -0.2244  0.1307
22723W        W39570   9.388   3.550  12.392 -0.2368  0.1445  0.3084
22724W        W39571  14.229  11.820   0.563  0.1302  0.0508  0.1103
22725W        W39572   6.074   3.217   1.966 -0.0643 -0.0926 -0.0571
22726W        W39573   0.334  16.442   3.507  0.1268  0.3689  0.0966
22727W        W39574  16.650  15.328   4.575  0.0668 -0.3089 -0.2758
22728W        W39575  11.225   9.544  12.445 -0.0539 -0.0778 -0.0593
22729W        W39576   5.337  13.708   0.061  0.0082  0.1331 -0.3644
22730W        W39577  16.729  12.679  14.101  0.4733  0.3756  0.1412
22731W        W39578  11.052   3.081  11.198 -0.2171  0.2477  0.0374
22732W        W39579  14.634   3.150   4.829  0.1935  0.0490  0.2866
22733W        W39580   5.370  18.005   1.394  0.1737  0.0497  0.1545
22734W        W39581  16.942   0.807   1.125  0.1030 -0.2914 -0.3626
22735W        W39582  12.278   6.498   4.886 -0.0297 -0.0487  0.1829
22736W        W39583   8.559   8.971   0.975 -0.0625 -0.0761  0.2337
22737W        W39584   4.561  11.373   4.701 -0.0571 -0.1258  0.3624
22738W        W39585  14.890  18.218  11.163 -0.0183  0.0403  0.0925
22739W        W39586   8.784   3.448  13.015  0.2273  0.0195 -0.0083
22740W        W39587   8.135   1.747   1.558 -0.0242  0.0154 -0.0397
22741W        W39588   8.239  18.578   2.708  0.0390  0.2412 -0.2889
22742W        W39589   9.339   7.638   4.516  0.3528 -0.0556  0.3226
22743W        W39590  15.482  12.354  13.474 -0.1311  0.1886 -0.1354
22744W        W39591  14.325  16.973  14.355 -0.2661 -0.0417 -0.0055
22745W        W39592  10.363   1.652  11.808 -0.1226 -0.1261  0.1221
22746W        W39593   1.075   6.454  13.086  0.2031 -0.1299  0.0276
22747W        W39594  15.174   9.597   4.556 -0.3671  0.1226  0.0435
22748W        W39595   8.882   3.692  11.206 -0.0209 -0.3982 -0.0757
22749W        W39596   1.219   8.369  14.422 -0.2263 -0.0096  0.1067
22750W        W39597  12.680   7.628   5.400 -0.2275  0.0354 -0.2938
22751W        W39598   0.415  16.735   4.617 -0.0349  0.1620 -0.0662
22752W        W39599   5.158   1.465  11.671 -0.2109 -0.1892 -0.0498
22753W        W39600   9.602  14.439   5.443 -0.0792  0.1692 -0.0792
22754W        W39601  16.327  18.535  12.533  0.2768  0.0744 -0.2059
22755W        W39602   1.310   7.882  14.611 -0.0719 -0.1157 -0.0390
22756W        W39603  10.529  12.817  10.814  0.0867 -0.1796 -0.1389
22757W        W39604  11.132   9.112  11.126 -0.1443 -0.1574  0.2915
22758W        W39605  12.306   2.328   4.510  0.1975 -0.0014  0.0355
22759W        W39606  16.360   2.876  14.014 -0.1205 -0.2048  0.0184
22760W        W39607   6.068  16.822   5.557  0.1777 -0.1907 -0.1289
22761W        W39608  17.899   4.958  13.961  0.0180 -0.0277 -0.2761
22762W        W39609   9.760  16.065   0.692  0.1488  0.0214  0.2526
22763W        W39610  10.031   7.268  12.742 -0.3906  0.3884 -0.0946
22764W        W39611   6.589  13.003   4.380  0.0523 -0.1728  0.2059
22765W        W39612  18.122  14.252  12.218 -0.0759 -0.0093  0.0449
22766W        W39613   1.840   6.029   4.597  0.1973  0.1613 -0.2197
22767W        W39614   6.758   6.759   1.171  0.3636  0.4509 -0.1709
22768W        W39615   0.705  13.444  14.654  0.3847 -0.1677 -0.1080
22769W        W39616  11.478  12.911   1.221  0.0659 -0.1102  0.0745
22770W        W39617   7.964   1.413  14.405  0.0638 -0.2258 -0.2587
22771W        W39618   9.793   3.907   1.854 -0.2257  0.0154 -0.0717
22772W        W39619  11.527  13.292   5.135 -0.1718 -0.1024 -0.2107
22773W        W39620  12.064   4.998  11.154 -0.1070 -0.0004  0.1239
22774W        W39621  13.129  14.264  15.372  0.0888 -0.3608 -0.1601
22775W        W39622   5.057  11.553  14.120  0.0307  0.1618 -0.1250
22776W        W39623   1.264  17.593  14.880  0.2376  0.1061  0.1564
22777W        W39624  12.773  12.024   2.219 -0.3764 -0.1241  0.1175
22778W        W39625   6.488  18.503  15.429  0.0081  0.0800  0.4850
22779W        W39626   0.805  14.958  10.674  0.1173 -0.2255 -0.0593
22780W        W39627  13.880   2.959   2.926 -0.0268 -0.3806 -0.1023
22781W        W39628  10.939   0.506  14.852  0.1571  0.2068 -0.6469
22782W        W39629  14.077   2.457   4.065  0.1947  0.0673 -0.1834
22783W        W39630   5.429   8.646  14.134  0.1537 -0.2026 -0.1514
22784W        W39631   0.278   6.095   4.857 -0.0620  0.1086  0.1987
22785W        W39632  13.765   4.284   2.105 -0.2608 -0.2232 -0.0925
22786W        W39633   5.143   7.557  11.880  0.0350  0.1072 -0.0766
22787W        W39634  16.037  12.378   0.377 -0.1754 -0.0173 -0.4325
22788W        W39635  17.529   3.680   3.429  0.2768  0.1266  0.3412
22789W        W39636   8.382   5.907   4.056 -0.4435 -0.1516  0.2580
22790W        W39637  12.707   8.455  11.878 -0.0783 -0.0428  0.2060
22791W        W39638   7.956   5.246   3.694  0.2693  0.1017  0.1505
22792W        W39639   9.331   0.597   9.945  0.2645 -0.1417  0.2725
22793W        W39640   9.872   3.261   2.800 -0.1916 -0.0019  0.0756
22794W        W39641  12.434   3.697   3.178 -0.0564  0.0692  0.0205
22795W        W39642   6.260  14.624  12.807  0.0672 -0.0581  0.0978
22796W        W39643  16.358   8.242   1.699  0.0091 -0.0881 -0.3279
22797W        W39644  16.506  17.944   1.399  0.0259 -0.0473 -0.0958
22798W        W39645   9.972   4.024  13.156  0.2573 -0.2740  0.1073
22799W        W39646   0.045  12.239   4.570  0.1660 -0.0844 -0.3855
22800W        W39647   6.213  11.950  13.679  0.2907  0.2805  0.3120
22801W        W39648   7.772  16.016  13.350 -0.1045 -0.1371 -0.0023
22802W        W39649  11.204   4.020  13.610 -0.1319 -0.1697 -0.1439
22803W        W39650   8.981  16.866  11.988  0.2452  0.1867  0.0202
22804W        W39651  13.497   9.852   5.051 -0.1307 -0.0030 -0.0641
22805W        W39652  13.725   2.320  10.139  0.2992  0.2784  0.0423
22806W        W39653  12.462   1.092  11.050 -0.1716 -0.1082  0.2278
22807W        W39654  16.709   8.809  11.272 -0.1148 -0.2045 -0.1389
22808W        W39655  10.826  10.939   3.638 -0.0181  0.1029 -0.0579
22809W        W39656  18.030   1.320   2.292 -0.3980 -0.3632  0.1208
22810W        W39657  17.387  14.319   2.628  0.3978  0.3109 -0.3008
22811W        W39658  11.204   9.286   1.465 -0.0274  0.1116 -0.2662
22812W        W39659  14.803   4.263  11.462  0.0913  0.4859 -0.0515
22813W        W39660   3.058   4.884   4.091  0.0713 -0.1561  0.3377
22814W        W39661   7.909  16.278   2.577  0.1415 -0.3948 -0.1469
22815W        W39662   4.842   2.003  14.452 -0.1188 -0.1231  0.0362
22816W        W39663  16.436  17.577  11.326  0.0209  0.0990 -0.4341
22817W        W39664  16.381   0.987  14.456  0.0928  0.0477 -0.0528
22818W        W39665  11.586   1.982  14.507 -0.0293 -0.1914 -0.1439
22819W        W39666   4.460  12.334   4.681  0.1624  0.0679  0.1155
22820W        W39667   0.908   1.249  14.781 -0.0582  0.0223 -0.1667
22821W        W39668  14.315   9.144   0.061 -0.1453  0.2376 -0.1855
22822W        W39669   1.209   1.345   0.087 -0.0840  0.1130  0.0390
22823W        W39670  13.489  13.444   4.741 -0.1578  0.4544 -0.0605
22824W        W39671   0.609  10.373  13.513 -0.0892  0.1682 -0.1949
22825W        W39672   7.334  18.626   2.689  0.0468  0.1098  0.2149
22826W        W39673   5.513  17.200   2.017 -0.0926  0.0081  0.0039
22827W        W39674   3.477   6.551   0.871  0.1409  0.0253  0.0797
22828W        W39675   1.665  10.491   0.754 -0.1630  0.0027 -0.1448
22829W        W39676  18.774  12.773  13.907 -0.2351 -0.1675 -0.0455
22830W        W39677   3.969   4.602  12.279 -0.0140  0.3797 -0.1277
22831W        W39678   6.476   5.605  13.292 -0.0024  0.2308 -0.1666
22832W        W39679   0.689   6.556  14.654 -0.2629 -0.2582 -0.0853
22833W        W39680   1.645   6.981   4.277 -0.1257  0.2710  0.3765
22834W        W39681   8.379   7.607   0.997 -0.2355 -0.1402  0.2507
22835W        W39682  11.656   2.000  11.322 -0.1660 -0.3652 -0.0179
22836W        W39683  10.016   2.723   5.293  0.0315  0.2427 -0.2058
22837W        W39684   0.020   1.143   3.042  0.6124 -0.2596 -0.1738
22838W        W39685   7.432  18.268   0.220  0.1159  0.1094 -0.2823
22839W        W39686   1.090  18.717   1.668  0.1029  0.1157 -0.1758
22840W        W39687  13.023   5.192   3.858  0.2185  0.1187  0.0881
22841W        W39688   7.051   4.971  15.007  0.1168  0.2277 -0.0361
22842W        W39689   9.758   9.313   4.389  0.0177 -0.1290  0.1491
22843W        W39690   8.573  13.411   5.137  0.0030  0.3079 -0.2816
22844W        W39691   1.683   0.597  13.969 -0.2253 -0.2941 -0.0776
22845W        W39692  14.612   6.416  10.904 -0.1946  0.2725 -0.3182
22846W        W39693  18.440   7.722   2.217  0.0021  0.2309  0.0968
22847W        W39694   9.382  12.062   2.163  0.3796  0.3339  0.0454
22848W        W39695   5.646   5.503   3.415 -0.0746 -0.0440  0.2304
22849W        W39696   5.737   6.962   2.540  0.2680  0.0701 -0.6226
22850W        W39697   2.175   2.832   4.614 -0.0523 -0.0878 -0.2426
22851W        W39698  11.158   5.659  11.495  0.3095 -0.1580 -0.1334
22852W        W39699  18.009  12.751   1.903  0.2102  0.2512  0.0635
22853W        W39700  17.438  11.825   4.011 -0.1117  0.3138 -0.2770
22854W        W39701  15.077  11.737   0.309  0.0024 -0.1193  0.1824
22855W        W39702   3.443  18.024  13.960  0.1006 -0.1077  0.0770
22856W        W39703   6.421   4.624  15.247  0.1065 -0.0779 -0.2609
22857W        W39704  17.067   5.940   0.783 -0.3972 -0.0311  0.3044
22858W        W39705  12.092  18.788   2.998 -0.0539  0.1045 -0.0685
22859W        W39706   0.701   3.444   5.455 -0.3234  0.1670 -0.2547
22860W        W39707  10.849   5.320   3.526 -0.0073  0.1511 -0.2573
22861W        W39708   6.850   1.095   1.535 -0.0454  0.1354  0.0940
22862W        W39709   8.586  14.350   1.813 -0.0045  0.0699  0.2230
22863W        W39710   2.486  13.009  12.776  0.1775 -0.0155 -0.1182
22864W        W39711   8.467   5.164  14.244 -0.2272 -0.3747 -0.2199
22865W        W39712  11.827   9.878  14.123 -0.1566 -0.1204  0.0024
22866W        W39713  17.609   5.618   3.866 -0.1449 -0.1640 -0.0851
22867W        W39714  15.483   4.343   4.948 -0.2194  0.0404 -0.0437
22868W        W39715   3.032   9.163   1.561  0.1046  0.0733  0.0877
22869W        W39716   0.398   0.066  11.326  0.2730  0.0117  0.1931
22870W        W39717   1.970   4.590  13.489 -0.0398  0.0386  0.0502
22871W        W39718   7.283   1.923   4.357  0.1370  0.1513 -0.1239
22872W        W39719  13.213  17.837  12.491  0.0893  0.1007 -0.2055
22873W        W39720   6.873  16.171   0.955  0.2066  0.4583 -0.2660
22874W        W39721  16.091  15.293  12.072  0.2660  0.2375 -0.1537
22875W        W39722  13.626  17.870  15.417 -0.1865 -0.0824  0.1628
22876W        W39723  15.212  13.921  12.194  0.0909 -0.0057 -0.3891
22877W        W39724  18.113   7.901   4.943 -0.0921  0.1609  0.2082
22878W        W39725   2.910  14.844  14.650  0.0070  0.2752 -0.1739
22879W        W39726  14.384   3.496   0.937 -0.1423  0.0188 -0.2297
22880W        W39727   0.255  11.208   1.455 -0.0060  0.0479 -0.1058
22881W        W39728   6.435   6.364   4.234  0.1460 -0.0669 -0.2618
22882W        W39729   3.597   9.595   4.353 -0.2652  0.1674 -0.2753
22883W        W39730  15.627  16.652   0.071 -0.0918  0.1458 -0.2014
22884W        W39731   5.967   0.473   3.806 -0.0023  0.1904 -0.3836
22885W        W39732   8.212  13.953   3.480 -0.3489 -0.0364  0.1085
22886W        W39733   0.555  10.088   1.500  0.1098 -0.3544  0.0557
22887W        W39734  12.195   4.118   3.834  0.3136  0.1602  0.0437
22888W        W39735   6.109   9.431  13.947 -0.0842  0.0357  0.3609
22889W        W39736   5.586   8.198  14.898  0.0085  0.0114  0.0103
22890W        W39737   7.133   0.089  11.551 -0.0602 -0.1026  0.0846
22891W        W39738   4.789   0.328  14.167  0.0612  0.0535 -0.0289
22892W        W39739   5.463   8.208  13.815 -0.2465  0.1315 -0.0297
22893W        W39740   2.850  16.491   2.162  0.1515  0.0662 -0.1173
22894W        W39741  18.525   3.228   2.069  0.2605 -0.0089  0.0618
22895W        W39742  17.984   2.038  11.174 -0.0995  0.0449  0.3481
22896W        W39743  13.657  14.028  15.362 -0.1393  0.1411 -0.0709
22897W        W39744   4.762  15.075  15.064  0.1896 -0.1306 -0.0215
22898W        W39745   7.390  14.082  14.600 -0.0714 -0.3806  0.1658
22899W        W39746  18.576  11.093  11.014  0.0931  0.0523 -0.1419
22900W        W39747  16.860   6.604   5.214  0.3031  0.1795 -0.3539
22901W        W39748   9.322   0.954  14.639  0.0363  0.2117 -0.0322
22902W        W39749  12.599   6.330   3.854  0.1425  0.1396  0.2187
22903W        W39750   4.649  11.295  13.965  0.1451 -0.0009  0.0151
22904W        W39751  12.314  11.970   0.760  0.1312 -0.0286  0.4353
22905W        W39752  16.669  16.245   5.557 -0.0989 -0.1052  0.0202
22906W        W39753  15.513  14.328   5.100 -0.2428  0.1855  0.2159
22907W        W39754  10.935   0.682   0.085  0.3001 -0.0539 -0.0392
22908W        W39755  13.396  17.002   2.244  0.1398 -0.0084 -0.2587
22909W        W39756   5.672   1.066   0.281  0.2646  0.2428 -0.0547
22910W        W39757  12.842   5.385   2.510  0.1070  0.1721  0.1933
22911W        W39758   9.071   4.699   1.700  0.1519  0.0948 -0.0004
22912W        W39759   8.810   2.142  13.320  0.0235 -0.0228 -0.1325
22913W        W39760   4.535   5.856  14.574 -0.3757  0.2129  0.2277
22914W        W39761   3.924   7.737   0.926  0.1765  0.1485  0.2152
22915W        W39762   5.599   5.950   0.968 -0.0256  0.1619 -0.0165
22916W        W39763  15.265  15.316  13.831  0.2808 -0.3226  0.0618
22917W        W39764  18.733   4.305   2.374 -0.0059  0.0541 -0.0078
22918W        W39765   7.177   4.921   0.798  0.0667 -0.0790  0.0988
22919W        W39766  14.868   5.792   2.449 -0.3450 -0.1442 -0.0654
22920W        W39767   6.813  14.251   2.672  0.1450  0.1015  0.1096
22921W        W39768  12.348  13.926  14.108 -0.1171  0.1324 -0.2461
22922W        W39769  14.962   0.990  14.088 -0.2997  0.2075  0.0143
22923W        W39770  12.775   1.259  10.664  0.0905  0.1701  0.1242
22924W        W39771   4.322  12.886   4.622  0.2233 -0.0117 -0.0189
22925W        W39772   8.419   0.113  11.702 -0.0227 -0.0565 -0.2249
22926W        W39773   1.588   5.764   3.686 -0.4174  0.2702  0.1573
22927W        W39774   6.146  11.157   2.236 -0.1496  0.2294 -0.0670
22928W        W39775  16.079   6.681   9.710  0.0757  0.1040 -0.3191
22929W        W39776  11.344   7.011   1.389 -0.1690  0.0480  0.0864
22930W        W39777   6.885   1.941   0.864 -0.0432 -0.0142 -0.2231
22931W        W39778   7.152  16.362   1.274  0.2082  0.3928 -0.0445
22932W        W39779   3.182   5.351   5.197  0.0503 -0.0206 -0.3578
22933W        W39780  10.040  15.824   4.731 -0.1665  0.0087 -0.2025
22934W        W39781   7.082   0.286   0.969  0.3757  0.1636 -0.1394
22935W        W39782   3.866   5.519  12.780  0.1972 -0.0515  0.0701
22936W        W39783  18.621   2.242   3.535  0.2056  0.0171 -0.0932
22937W        W39784   6.529  15.560  11.890  0.1680 -0.0002  0.1638
22938W        W39785   6.070   0.342   0.157 -0.1794 -0.0661  0.2486
22939W        W39786   3.291   7.631   3.395  0.2132 -0.0982  0.0006
22940W        W39787   6.311  15.563   2.614  0.1419  0.0550  0.0299
22941W        W39788   1.413   6.034  11.564 -0.0261 -0.0524 -0.0643
22942W        W39789  17.736  13.917  13.722  0.3067 -0.0636  0.1276
22943W        W39790  10.696   4.765  13.000  0.1604 -0.1814 -0.3906
22944W        W39791  11.067   3.130   4.919  0.0491  0.1778  0.0952
22945W        W39792   0.292   7.466   4.067  0.0599  0.0512 -0.1282
22946W        W39793   6.501   5.309   3.221  0.1129  0.0937  0.0929
22947W        W39794  15.921   0.092  11.260 -0.2256  0.2413  0.0597
22948W        W39795  17.270  17.918   4.251 -0.1304 -0.0569  0.1127
22949W        W39796   0.763   0.618  11.858  0.1115  0.1633  0.1855
22950W        W39797   5.160   7.102   4.796 -0.0418 -0.0556 -0.0189
22951W        W39798  13.617  13.512  15.408 -0.1131  0.3672 -0.0623
22952W        W39799  11.897   5.356  12.983 -0.2354 -0.0215  0.0226
22953W        W39800  10.254   7.103   2.623  0.1009  0.4895 -0.1740
22954W        W39801   8.201   4.999   1.658 -0.0105 -0.0075  0.1266
22955W        W39802  16.218  16.930   2.065 -0.0886  0.1155  0.1145
22956W        W39803   8.544   9.978  14.163  0.0892  0.0837  0.0836
22957W        W39804   0.739  14.039  11.274  0.1966  0.0158  0.1747
22958W        W39805  13.975  16.818   2.406  0.0454 -0.1393  0.0899
22959W        W39806  14.927   1.359   4.128 -0.1537  0.0253  0.1354
22960W        W39807   8.262  12.595  12.860  0.0941 -0.0346 -0.1989
22961W        W39808  11.845  12.569  13.028  0.1833  0.2444 -0.0402
22962W        W39809  11.523  14.539   3.164  0.1142 -0.2097  0.1431
22963W        W39810  15.833   5.689   0.646  0.2763 -0.2383  0.2337
22964W        W39811   9.006   0.432   4.047  0.1861 -0.2077 -0.4298
22965W        W39812  16.319   5.332  14.529 -0.0326  0.3548  0.3178
22966W        W39813   7.479  18.167   5.271  0.1133 -0.2382 -0.0913
22967W        W39814  18.827  10.067  14.775 -0.1162  0.1172 -0.0679
22968W        W39815   2.761  17.094  13.121  0.0657 -0.0623 -0.0100
22969W        W39816   0.043   8.899  11.546  0.0424  0.1641 -0.2259
22970W        W39817   4.404   1.836   0.375  0.0242 -0.2386  0.0538
22971W        W39818  11.533  13.165   4.656 -0.1329 -0.1097  0.1071
22972W        W39819   5.929  15.457  11.706  0.1605  0.1001 -0.3567
22973W        W39820  18.810   9.958  10.289 -0.1282 -0.0070 -0.1805
22974W        W39821  17.766  14.535  13.964 -0.1747  0.0060 -0.4535
22975W        W39822   6.843   9.131  12.305  0.0590  0.3490  0.1296
22976W        W39823  14.388  12.553  15.053  0.0609  0.2546  0.2821
22977W        W39824  17.699   0.836   4.007  0.0162  0.0381  0.1576
22978W        W39825  12.685   6.358  13.258  0.1538  0.1338 -0.1129
22979W        W39826  13.285  16.686  11.647  0.1775 -0.1495  0.1062
22980W        W39827  17.209   4.127  11.120 -0.3473 -0.0045  0.0024
22981W        W39828  10.839  16.248  11.788  0.0728  0.2859  0.1147
22982W        W39829   8.957   7.438   0.284 -0.0370 -0.1019  0.0456
22983W        W39830   7.841   9.983   1.593 -0.1722  0.1191 -0.2613
22984W        W39831  11.281  13.598   4.259  0.1136 -0.0605  0.1288
22985W        W39832   9.638  14.778  13.945 -0.2000 -0.3442  0.1735
22986W        W39833  13.382  13.853   4.915 -0.0004 -0.3291 -0.0197
22987W        W39834  11.875  11.508   0.342 -0.1063  0.0224  0.3034
22988W        W39835   7.640   2.287  11.054 -0.0643 -0.2465 -0.1612
22989W        W39836   7.185  11.720  11.122 -0.2715  0.0825 -0.0119
22990W        W39837  13.132  12.109   5.134 -0.3218  0.0418  0.3537
22991W        W39838   9.229   0.528   4.500 -0.0784 -0.1074 -0.0246
22992W        W39839  10.571  17.210  11.811  0.2115  0.1561 -0.2508
22993W        W39840   8.839  17.067   5.111 -0.0038  0.0987 -0.1717
22994W        W39841   7.014   4.905   3.382 -0.1526 -0.0796 -0.0028
22995W        W39842   5.386  16.709  14.882 -0.1135  0.0428  0.1011
22996W        W39843  17.373   1.899   4.446 -0.3483  0.0120 -0.0233
22997W        W39844   1.411  15.055   0.996  0.1694 -0.0437 -0.1184
22998W        W39845  13.306  14.314   2.471 -0.2653  0.0335 -0.1748
22999W        W39846  10.259  13.581  14.370  0.1131  0.2174  0.1587
23000W        W39847   9.244   8.958   3.097  0.0220 -0.2654 -0.0660
23001W        W39848  10.086   5.809  11.408  0.1735  0.0701  0.2124
23002W        W39849   8.100   5.625  15.370  0.2029  0.0273 -0.3673
23003W        W39850   0.298   8.900  15.495 -0.3386 -0.0496 -0.0112
23004W        W39851  17.380   4.442   1.484  0.1790 -0.0004 -0.0451
23005W        W39852  15.424  11.139   4.607  0.1348 -0.3982 -0.0979
23006W        W39853  14.076   5.280  14.334  0.2922 -0.1806 -0.2534
23007W        W39854   3.086   6.075   2.650  0.5625 -0.0449  0.1259
23008W        W39855   5.928  13.130   0.415 -0.2020  0.0332 -0.0350
23009W        W39856   3.569   7.279  12.710  0.0651 -0.0716  0.0021
23010W        W39857  11.753  17.187   1.952 -0.2708  0.4074 -0.4187
23011W        W39858   6.069  11.275  15.108 -0.0551  0.1380 -0.0955
23012W        W39859   7.837  17.431   1.828 -0.2298 -0.3060  0.2776
23013W        W39860  10.891  10.566  11.203 -0.1125  0.0364  0.1563
23014W        W39861  13.964   1.514   3.738 -0.2217 -0.2117 -0.2444
23015W        W39862   2.765   2.607   1.208 -0.1799  0.0275 -0.0819
23016W        W39863   7.742  17.485  13.944 -0.2647 -0.1436  0.1783
23017W        W39864   0.655  17.828  12.513  0.2664  0.0152 -0.0356
23018W        W39865   4.942   5.063   3.495 -0.4619 -0.0085  0.0350
23019W        W39866   0.097  11.531   3.001 -0.0121 -0.2299 -0.2320
23020W        W39867   8.328   9.484   0.831  0.2192 -0.1738  0.0882
23021W        W39868   6.095  18.255  10.189 -0.0638 -0.1556  0.2177
23022W        W39869  15.167  18.608   2.250  0.1384 -0.0290 -0.0970
23023W        W39870   6.567  16.503   2.762 -0.3742 -0.2447 -0.1721
23024W        W39871  11.514  15.898  11.002  0.0020  0.1595 -0.1507
23025W        W39872   9.428   4.690  11.832 -0.1894  0.0956  0.2335
23026W        W39873  18.466   3.838   4.789 -0.1064  0.1696  0.1245
23027W        W39874   3.993  11.070   2.309  0.0792 -0.2191 -0.2589
23028W        W39875  13.764  18.841  15.547 -0.0208 -0.2789 -0.0125
23029W        W39876  14.039   8.030  13.498  0.0170 -0.1095  0.1270
23030W        W39877  15.015   9.108   3.373  0.0995  0.0048 -0.3146
23031W        W39878  14.108   1.054   3.920  0.2811 -0.0280 -0.1579
23032W        W39879   1.350   8.602  15.397  0.1093 -0.0377 -0.0528
23033W        W39880   5.815  15.897   5.678  0.3247  0.0027 -0.0082
23034W        W39881   9.252   4.488   3.368  0.1337 -0.0421 -0.0128
23035W        W39882  16.637   0.905  15.017  0.0566 -0.0765 -0.0534
23036W        W39883  14.875  10.396  12.981  0.1103 -0.2636 -0.0144
23037W        W39884   2.303   2.690  11.381 -0.1136 -0.0464  0.1935
23038W        W39885   3.355   1.564   3.215 -0.3646 -0.0609  0.0362
23039W        W39886  13.949  14.571   1.425  0.1910  0.1382  0.2204
23040W        W39887   8.359  17.302  10.656 -0.1656 -0.0922 -0.0020
23041W        W39888  18.248   8.842   1.627 -0.0976  0.2859  0.1663
23042W        W39889  14.968   0.545  11.017 -0.0480  0.2542  0.1123
23043W        W39890  14.724   7.770   3.103  0.0158 -0.1640  0.1162
23044W        W39891  13.892   9.186  12.480  0.0114 -0.1353  0.1441
23045W        W39892   3.335   6.977   1.235  0.2550 -0.1874  0.1007
23046W        W39893  14.617   3.191   2.603 -0.0517  0.0444  0.1203
23047W        W39894   5.435   9.307   0.157  0.2438 -0.0767  0.0701
23048W        W39895   9.414  13.886  12.478  0.0071 -0.2658  0.2737
23049W        W39896   2.828  15.382   2.441 -0.1630 -0.2261  0.1685
23050W        W39897  14.325   3.961  14.634  0.0068 -0.0294 -0.1979
23051W        W39898   5.318   6.224   2.378 -0.2745 -0.2994 -0.1070
23052W        W39899  12.902   0.132  15.309 -0.3099 -0.1644  0.1164
23053W        W39900   8.337   9.025   2.031  0.0055 -0.0819  0.0546
23054W        W39901  18.550   6.010   1.594 -0.1414  0.0278  0.0542
23055W        W39902   7.387  10.619  13.043 -0.0426 -0.0834 -0.1007
23056W        W39903   9.482   9.361  15.035  0.0870  0.0899 -0.0301
23057W        W39904   0.419   5.845  10.737 -0.1837 -0.1171  0.0735
23058W        W39905   3.044   4.634   4.557  0.2022  0.3588  0.1288
23059W        W39906   9.460   3.654  14.607  0.0941  0.3498 -0.0287
23060W        W39907   9.496  18.316  11.901 -0.0650  0.2508  0.0016
23061W        W39908  16.438   1.639   0.633  0.0476  0.0483 -0.0390
23062W        W39909  14.162  12.270   2.231 -0.0034  0.0963 -0.3994
23063W        W39910  10.068   1.602   0.182 -0.0748 -0.2288 -0.1158
23064W        W39911  16.178   0.851   3.211  0.1386 -0.3557 -0.0135
23065W        W39912   3.391   2.117  11.030 -0.0767 -0.0326  0.2785
23066W        W39913   9.146   7.864  13.829 -0.1231 -0.0634 -0.1922
23067W        W39914  16.805  10.107   4.573  0.0043  0.2433 -0.2084
23068W        W39915  14.630  13.007   0.170  0.1183  0.1891 -0.1085
23069W        W39916   8.068  14.698   0.518  0.0203 -0.0827 -0.0375
23070W        W39917   8.162   8.412  13.466  0.1982  0.0318 -0.0220
23071W        W39918   2.691   7.381  13.193  0.0051 -0.1989  0.0290
23072W        W39919   9.408   7.055  11.509  0.0975 -0.0985  0.0010
23073W        W39920  16.243   2.001   2.202  0.0278  0.0149 -0.1654
23074W        W39921  10.080   4.872  14.431 -0.2489  0.0740  0.2178
23075W        W39922   3.373  17.315  13.177  0.1909  0.1061 -0.0366
23076W        W39923  11.578   8.739  11.005  0.1261 -0.0097  0.1560
23077W        W39924   6.701   6.927   3.397  0.1796 -0.0918  0.2423
23078W        W39925   1.531   6.153  12.692  0.0303 -0.0833  0.1735
23079W        W39926  16.992  14.480  12.532 -0.1821  0.2163 -0.0976
23080W        W39927  17.570   8.898  13.635  0.0419  0.2207 -0.0923
23081W        W39928  16.187   4.752  13.161  0.0168 -0.1756 -0.1291
23082W        W39929   3.822  10.636   4.517  0.2131  0.0571  0.0248
23083W        W39930   2.325   1.283  13.795 -0.0321 -0.0603  0.2836
23084W        W39931   2.420   9.336  14.824 -0.0598 -0.2044 -0.2156
23085W        W39932  12.325  14.052  12.172 -0.0619  0.1333  0.1900
23086W        W39933  10.442  11.733   3.799  0.2775 -0.1514 -0.0110
23087W        W39934   5.273   0.446   5.487  0.0928 -0.0267 -0.1526
23088W        W39935   8.161  10.530  14.629 -0.5828  0.2903  0.3078
23089W        W39936  12.224  14.503  11.871 -0.0268  0.3691  0.2151
23090W        W39937   6.326   1.900   3.828  0.1571 -0.0072 -0.1177
23091W        W39938   5.766   6.220   2.617  0.0859  0.0865  0.1951
23092W        W39939   3.248   3.229  14.773 -0.2461 -0.3155  0.0606
23093W        W39940  15.497   3.507   5.292 -0.1250  0.3495  0.0124
23094W        W39941   1.858   3.412   5.432 -0.0917  0.0615 -0.1989
23095W        W39942  14.017  11.964  11.477  0.0541 -0.0450  0.0960
23096W        W39943  14.367   1.235  13.448 -0.2001  0.3171  0.3676
23097W        W39944  12.896   5.660   4.027 -0.1772  0.0955  0.0188
23098W        W39945  15.605   4.496   3.616  0.0058 -0.1763 -0.0333
23099W        W39946   8.996   2.774  14.222  0.1868  0.1233 -0.1552
23100W        W39947   0.046   6.692   3.622 -0.2806 -0.4379  0.2093
23101W        W39948  14.764  14.516   0.979 -0.1246  0.0081  0.3485
23102W        W39949   1.911   8.691  11.457 -0.0252  0.0535 -0.0408
23103W        W39950   8.242   4.139  13.936  0.0381  0.0831 -0.1704
23104W        W39951   6.265  10.223   1.528 -0.0239  0.3272 -0.0527
23105W        W39952   5.685   5.215   1.967  0.3936 -0.3034 -0.0110
23106W        W39953  15.347   0.939  12.320  0.0362  0.2730 -0.2076
23107W        W39954   5.479   7.968  11.967 -0.3978  0.0668 -0.1863
23108W        W39955  10.961   1.507  12.483 -0.0840  0.0310  0.0394
23109W        W39956  17.711   0.132  12.146 -0.1361 -0.2748 -0.1469
23110W        W39957   6.276  14.597  13.785  0.1485  0.0345 -0.2585
23111W        W39958   6.656  13.481   0.489 -0.4836  0.0612  0.1378
23112W        W39959  11.652   1.200  11.830 -0.2743  0.0133 -0.1822
23113W        W39960   9.067  18.246   2.278 -0.2535 -0.3316 -0.2822
23114W        W39961   0.088   7.285   1.549 -0.1626 -0.2826  0.2354
23115W        W39962   3.722   3.222  15.007 -0.0813  0.3149 -0.3149
23116W        W39963  13.052   9.293   1.080  0.0230 -0.3451 -0.1995
23117W        W39964  12.039  16.275  13.114 -0.2842  0.0010 -0.0839
23118W        W39965   0.651   2.071  11.786 -0.2667  0.1991 -0.1436
23119W        W39966   2.482  15.273  11.905  0.2311  0.1821  0.0544
23120W        W39967   1.524   9.213   2.453  0.1213 -0.1694  0.0066
23121W        W39968   3.758  16.576   4.408  0.1793 -0.0087  0.2061
23122W        W39969  10.066   7.429   3.941 -0.0585 -0.0924  0.1502
23123W        W39970  18.514  13.635  11.397 -0.1004  0.2302  0.1410
23124W        W39971   4.297  10.938  13.940  0.0721  0.0572 -0.0788
23125W        W39972   9.047   9.444  13.618 -0.3031  0.0560 -0.2384
23126W        W39973   9.365  13.264   1.360  0.1637 -0.3082 -0.0463
23127W        W39974  14.259  17.645  11.684  0.1357  0.1087  0.0398
23128W        W39975  10.515   4.661  15.053 -0.0998 -0.2313 -0.3077
23129W        W39976   2.238  17.801   2.760  0.1971 -0.1379  0.3211
23130W        W39977  14.771  16.017   9.673  0.3308  0.2855  0.3200
23131W        W39978   3.385  15.607  14.859 -0.1548  0.2879  0.0557
23132W        W39979  10.248   7.031  11.349 -0.3144 -0.0390  0.0809
23133W        W39980  12.564  17.482  13.354 -0.0681  0.1582 -0.1221
23134W        W39981  11.480   9.095   3.708 -0.0125 -0.1172  0.1110
23135W        W39982   5.130  16.280   2.877 -0.0223 -0.1792 -0.0966
23136W        W39983   5.303  11.962   4.233  0.0889 -0.1062 -0.1288
23137W        W39984   4.106   1.913   5.222  0.1039  0.1000  0.0388
23138W        W39985   4.177  16.382   3.141 -0.1864 -0.0882  0.0183
23139W        W39986   2.167   9.454  11.949 -0.1918 -0.2463 -0.1418
23140W        W39987  15.923   2.104   2.578 -0.0969  0.2962  0.2179
23141W        W39988  16.596  18.414   4.826 -0.0181  0.0082 -0.0581
23142W        W39989  13.398  13.136  13.370 -0.3102  0.0632 -0.2889
23143W        W39990   4.654   4.679  15.443 -0.1449 -0.0271 -0.2134
23144W        W39991   1.052  16.310  11.331  0.0747 -0.2759 -0.2985
23145W        W39992  16.292   4.253  13.130 -0.0354  0.3385  0.0305
23146W        W39993   2.877   2.359  10.829  0.0595 -0.1695  0.0058
23147W        W39994  15.601  10.659  14.305  0.0093 -0.1882  0.2607
23148W        W39995  11.722  12.821   2.177  0.0115 -0.0639  0.0224
23149W        W39996  11.193   2.982   1.500 -0.1242  0.3935 -0.3307
23150W        W39997   3.898   3.530   3.333 -0.4640  0.2201  0.0428
23151W        W39998   1.119  12.983  12.817 -0.1038  0.2225  0.0379
23152W        W39999   9.183   0.494   0.235  0.0100 -0.2013  0.2021
23153W        W40000  16.415   2.536  13.067 -0.0205 -0.3187 -0.0390
23154W        W40001   4.435   3.263   1.836 -0.0735 -0.3896  0.0849
23155W        W40002  14.045  17.994   1.505  0.4797  0.0868 -0.1564
23156W        W40003   4.840   9.549   0.749  0.1838  0.0029 -0.0018
23157W        W40004   7.979  12.144   2.149  0.0290 -0.1586  0.2694
23158W        W40005   0.628   9.056   2.477 -0.2696 -0.1354  0.4035
23159W        W40006   8.575  11.555   4.845  0.1565 -0.2008 -0.1933
23160W        W40007   7.089  18.009   4.274  0.1172 -0.2098  0.2259
23161W        W40008   6.079  16.508   0.353  0.0554 -0.2861  0.1246
23162W        W40009   3.580  11.197   2.603  0.0075  0.1731  0.0619
23163W        W40010  11.143  18.764   3.979  0.3040  0.3094 -0.0989
23164W        W40011   7.554  17.464  14.950  0.1424 -0.0928 -0.2420
23165W        W40012  12.870  16.659  13.227 -0.2110 -0.0594 -0.1714
23166W        W40013  18.284  18.747  12.957  0.0595  0.0567  0.3176
23167W        W40014   8.500   0.346   4.370 -0.0737  0.1721 -0.0674
23168W        W40015   9.364  10.424  11.886 -0.0286 -0.1038  0.1246
23169W        W40016  17.743  11.234   3.224 -0.3772 -0.0614 -0.0125
23170W        W40017  14.697   1.801   0.166 -0.1943  0.1142  0.0983
23171W        W40018   6.013   5.970  14.954  0.2520 -0.4257 -0.3526
23172W        W40019   5.929  13.488  13.141 -0.3673  0.1432  0.1351
23173W        W40020   9.314  11.630  13.461 -0.1605  0.1178 -0.0068
23174W        W40021   5.855  12.095  11.661  0.1883  0.1547  0.1770
23175W        W40022   1.911   7.774   4.920 -0.1348 -0.1315  0.1510
23176W        W40023  11.336   4.690   2.943  0.2624  0.0759  0.0326
23177W        W40024   5.466  15.357   0.529 -0.1477 -0.0914 -0.1830
23178W        W40025  18.769  14.737   2.107  0.0638  0.1828  0.0139
23179W        W40026   2.759   6.209   4.435 -0.1521 -0.0297  0.1082
23180W        W40027   4.711   8.267  13.587 -0.2634 -0.0969 -0.0310
23181W        W40028  11.296  12.745  15.245 -0.2132 -0.0556 -0.0053
23182W        W40029   0.101  16.438  12.011 -0.1205  0.0589  0.0167
23183W        W40030  13.076  10.989  14.258 -0.1178 -0.0220  0.1101
23184W        W40031  13.122   4.807  12.169 -0.0424  0.1085 -0.0314
23185W        W40032  16.563  11.474  11.787  0.0822 -0.0839  0.0136
23186W        W40033   9.466   5.470   5.292  0.1364 -0.1944  0.2747
23187W        W40034   6.384   5.089  11.061 -0.0349 -0.1643  0.0920
23188W        W40035  13.360   9.085   1.919  0.0941  0.1261  0.2231
23189W        W40036  11.452  10.388  14.197  0.1868 -0.0111 -0.3161
23190W        W40037   7.538   3.025  15.013  0.1655 -0.3148 -0.0354
23191W        W40038   6.081  17.919  13.945  0.0576 -0.1075  0.2736
23192W        W40039   6.028  10.102  12.022 -0.0391 -0.2852  0.3334
23193W        W40040   0.344   7.198  11.138 -0.1505  0.1094  0.0753
23194W        W40041   4.992   2.538  12.593 -0.0549  0.3311 -0.0194
23195W        W40042   2.174   2.620   0.510  0.0634  0.0039  0.1877
23196W        W40043  16.380  14.094  11.838  0.0103 -0.1360  0.0441
23197W        W40044  18.427   5.681  12.822  0.2604  0.1364 -0.1020
23198W        W40045  16.968  15.564   1.001 -0.0947 -0.0180 -0.2794
23199W        W40046   8.111   5.692  14.139  0.0203 -0.0313  0.1217
23200W        W40047   1.531   2.900  11.293  0.2726 -0.2311  0.1075
23201W        W40048   6.002   7.889   0.244  0.0491 -0.0321  0.0659
23202W        W40049   7.769   7.950   4.026 -0.1045  0.0249  0.0011
23203W        W40050  12.083   1.934  14.697  0.1156  0.1499  0.1699
23204W        W40051  13.412   7.546   4.097 -0.0591  0.2212 -0.0247
23205W        W40052   6.026  18.028   2.105  0.2903 -0.0353 -0.0486
23206W        W40053  12.143   5.025  11.723 -0.0770 -0.0370 -0.2400
23207W        W40054   9.976  18.157   4.047  0.0518  0.0261  0.2827
23208W        W40055  18.199   8.432  14.845  0.1469  0.0039 -0.3312
23209W        W40056   6.249  11.013   4.598  0.1595 -0.2646 -0.1872
23210W        W40057  16.192   9.010   2.554  0.2373  0.0535  0.0382
23211W        W40058   0.569   4.625   1.027 -0.4707 -0.1197  0.1118
23212W        W40059   5.743  14.562  14.282  0.0201 -0.3185 -0.2184
23213W        W40060  12.356   8.396   2.880 -0.1565  0.2850  0.2250
23214W        W40061   0.066   8.056   3.118 -0.0944 -0.0730  0.2050
23215W        W40062   8.970   4.278   4.685  0.2267  0.0047  0.0135
23216W        W40063   4.066  10.429   0.156  0.0468 -0.2120  0.1683
23217W        W40064   8.354   1.181  15.233 -0.1446  0.2175 -0.2061
23218W        W40065   0.983   0.144   4.295 -0.0944 -0.0765  0.0485
23219W        W40066   5.412  10.660   0.311 -0.4054 -0.1379 -0.0499
23220W        W40067   6.416  18.465  10.511 -0.2206  0.0374 -0.0303
23221W        W40068  10.252   1.519  14.111  0.1414 -0.0472 -0.0763
23222W        W40069  10.473   9.046  11.422 -0.3642 -0.2642  0.0082
23223W        W40070   6.290  13.006   1.448 -0.3574 -0.0499  0.1173
23224W        W40071  14.446   4.891   4.077  0.2593  0.1053 -0.2691
23225W        W40072   3.146  12.415  11.351 -0.0960 -0.0400 -0.1706
23226W        W40073   6.028  12.241   1.921 -0.0740  0.2517  0.0718
23227W        W40074  15.757  14.551   0.265 -0.1102 -0.0698  0.0573
23228W        W40075  11.043   1.989  13.763  0.1909  0.0219 -0.1893
23229W        W40076  13.867  12.900  12.496  0.3243 -0.0334  0.0782
23230W        W40077   1.410   5.727   4.567  0.0163 -0.1151 -0.3604
23231W        W40078  18.536  10.125  13.814  0.0828  0.0191 -0.0472
23232W        W40079   1.250  16.903  11.601 -0.2947 -0.2985 -0.2261
23233W        W40080  11.053   5.907   4.308 -0.0023  0.1211 -0.3268
23234W        W40081  11.304  18.310   4.174  0.0596 -0.1725 -0.1976
23235W        W40082  10.555   5.180   2.274  0.0156  0.2835  0.1444
23236W        W40083   5.233   2.322   4.812 -0.2423  0.2506 -0.0491
23237W        W40084  12.209   5.220   1.188  0.0766 -0.3560 -0.1821
23238W        W40085  17.221  14.643   4.957  0.2848  0.2218  0.2150
23239W        W40086   7.838  18.549   1.448  0.1350  0.1121  0.1236
23240W        W40087  13.622   4.434   4.126  0.0285 -0.1266  0.0370
23241W        W40088   0.503  15.532  14.280  0.1577  0.1431  0.0371
23242W        W40089  15.331  10.076   3.805 -0.1498 -0.3600  0.2234
23243W        W40090   0.219   8.520   0.321 -0.1408 -0.0789 -0.3617
23244W        W40091  16.560  13.760   3.001 -0.0344 -0.1009 -0.2356
23245W        W40092  14.011  12.271   3.987 -0.1036  0.0836  0.0967
23246W        W40093   8.301  14.698  14.560  0.0199  0.1195 -0.1284
23247W        W40094   8.166  16.070   0.397 -0.1054  0.2738 -0.1619
23248W        W40095   8.725   0.272   3.506  0.0732  0.0056  0.0068
23249W        W40096   9.202  11.348   0.442 -0.0054 -0.1786  0.2346
23250W        W40097   7.259  10.835  11.560  0.0586  0.1402  0.3885
23251W        W40098   7.120  13.178  15.299 -0.1856  0.0693 -0.0830
23252W        W40099  16.573  14.910   0.792  0.4900 -0.1342  0.1337
23253W        W40100   2.437  17.454   3.633  0.2344  0.1667 -0.1128
23254W        W40101   6.525  12.672  10.530  0.2153 -0.2519 -0.0037
23255W        W40102  10.677  14.801  12.732  0.2021 -0.1306  0.0145
23256W        W40103  10.120   0.134   2.083 -0.3142  0.0295 -0.4293
23257W        W40104   7.083  15.686   5.018  0.1942 -0.2477 -0.0350
23258W        W40105  15.499   0.647   1.465  0.3150  0.1212 -0.3220
23259W        W40106  18.657   5.667   0.622 -0.1771 -0.0538 -0.0805
23260W        W40107   5.497  14.762  11.470 -0.2664 -0.1191 -0.2919
23261W        W40108  12.048  15.129   3.203  0.1593 -0.1639 -0.0710
23262W        W40109  15.838   4.750  15.012  0.1162  0.0802 -0.0725
23263W        W40110  12.184   4.834   1.522 -0.0314 -0.0923 -0.1942
23264W        W40111  12.615   3.015   5.040 -0.1738 -0.1943 -0.3729
23265W        W40112   9.683   4.007   0.831  0.6097  0.4821  0.2932
23266W        W40113  11.818   6.136   1.030 -0.0984  0.0879 -0.2641
23267W        W40114   0.751   6.902  13.245  0.0761  0.0626 -0.0412
23268W        W40115  10.502  18.602  13.866 -0.1799 -0.0449  0.0096
23269W        W40116  10.436  16.424   0.248 -0.2263 -0.0570  0.0178
23270W        W40117  15.818  13.589  11.578  0.2279  0.2045  0.0104
23271W        W40118   5.917   6.172  12.838 -0.0538  0.0264 -0.0853
23272W        W40119   8.477  14.167  12.144 -0.0434 -0.1802  0.0780
23273W        W40120   7.922   7.669  10.896  0.0679 -0.2875 -0.4652
23274W        W40121   3.401   9.315   0.654 -0.0142  0.0715 -0.1455
23275W        W40122  12.399   9.529  12.708  0.2216 -0.1394  0.4967
23276W        W40123  17.959  16.084  14.400 -0.2358  0.0165 -0.0280
23277W        W40124   2.626   2.523  12.892  0.1768 -0.1177  0.1491
23278W        W40125  15.914   0.794  13.482  0.0750 -0.1631  0.1783
23279W        W40126   8.424   1.520  12.752  0.0895  0.3204  0.0528
23280W        W40127  10.687   0.167  15.491 -0.1763  0.1460  0.3238
23281W        W40128   4.468  15.475  14.932  0.2096 -0.1155  0.1040
23282W        W40129  17.268  15.991  15.228  0.0501 -0.1598  0.0727
23283W        W40130   8.993   3.700  14.362 -0.0520  0.2320  0.1197
23284W        W40131  13.963  11.928   0.042 -0.2744 -0.1202 -0.0904
23285W        W40132   1.884   6.202  11.726 -0.1464  0.0511 -0.2258
23286W        W40133   1.176   8.755  12.577 -0.0162 -0.0936 -0.1152
23287W        W40134   9.793  15.343   4.818  0.3403 -0.1093  0.5422
23288W        W40135  14.459  15.938   0.566 -0.0855  0.0324  0.1900
23289W        W40136  13.855   7.440   3.804  0.0588  0.1083 -0.0997
23290W        W40137   9.154  14.706  10.522 -0.1932 -0.1692  0.0433
23291W        W40138  16.109   5.443   5.201 -0.0516  0.2074  0.1428
23292W        W40139  10.927  10.031   0.330  0.3557  0.1434 -0.1200
23293W        W40140   6.927  11.784   3.751  0.0230 -0.1936  0.5402
23294W        W40141   6.081  15.418  14.618  0.0305  0.3037  0.1290
23295W        W40142  17.381   7.112  14.858  0.0175 -0.3218  0.1249
23296W        W40143   3.424   4.787  12.869 -0.1863  0.0101 -0.1610
23297W        W40144   1.238   3.680   1.477 -0.1277  0.1258 -0.0072
23298W        W40145  11.177   8.642  14.624 -0.0847 -0.0496  0.0793
23299W        W40146  17.593   7.701   4.223  0.2266 -0.0745 -0.1291
23300W        W40147   6.513  13.697  13.752 -0.2325 -0.0366 -0.3659
23301W        W40148  13.976   8.200   0.941  0.2194  0.3779  0.0095
23302W        W40149   4.568   6.819   2.132  0.1626 -0.1138 -0.0744
23303W        W40150  11.649   8.464  12.930  0.0499 -0.1100 -0.0778
23304W        W40151   9.420  10.432   0.218  0.2238  0.1310 -0.0612
23305W        W40152  14.850   2.774   2.630 -0.0091 -0.0994 -0.1958
23306W        W40153  10.525  18.024   4.702 -0.0066  0.1522 -0.3434
23307W        W40154   6.867   4.157  15.389  0.1106  0.2075  0.1462
23308W        W40155  16.734   1.226   1.860 -0.0158  0.2362  0.0168
23309W        W40156  15.502  16.321  14.005 -0.0404 -0.2024 -0.3338
23310W        W40157   5.336   4.311  11.798 -0.0598 -0.0952  0.2202
23311W        W40158  17.563  13.431  13.509  0.2003  0.4596  0.3523
23312W        W40159   8.217   2.728   5.057  0.0471  0.0591  0.1320
23313W        W40160   0.999   2.024  14.976 -0.1630 -0.2592 -0.0433
23314W        W40161   7.668  12.195  12.178  0.0303 -0.2489 -0.0020
23315W        W40162   6.471  13.165  14.550  0.0978  0.1548 -0.0022
23316W        W40163  18.107   7.149   2.756 -0.0984  0.2850 -0.1879
23317W        W40164  16.643   2.541  14.578  0.2040 -0.1669 -0.0551
23318W        W40165  12.485   8.835  14.816  0.1577 -0.0364  0.3462
23319W        W40166   3.973   4.679  13.595  0.0164  0.2770 -0.0830
23320W        W40167  10.935   7.297  10.385 -0.0855 -0.0068  0.3861
23321W        W40168  13.696   3.563   0.208  0.0186  0.4815 -0.1015
23322W        W40169  13.618  17.474   5.314 -0.0448 -0.1861  0.1263
23323W        W40170   8.401  11.831   0.870 -0.1645  0.0660 -0.2655
23324W        W40171   1.084   3.292  11.119 -0.1404 -0.2630  0.1960
23325W        W40172  18.344  10.037   2.456 -0.2889  0.2195 -0.0313
23326W        W40173   1.722   8.991   5.221  0.0850 -0.0989  0.4021
23327W        W40174  14.482  16.889  12.631 -0.0325  0.1738 -0.0499
23328W        W40175   5.411   1.060  11.516 -0.1879 -0.3014 -0.1193
23329W        W40176   6.787   5.292  10.145 -0.2285  0.0337 -0.0580
23330W        W40177   3.144  17.282  14.862  0.2222 -0.3238 -0.2153
23331W        W40178   6.270   9.469   1.704 -0.3243  0.3419 -0.0169
23332W        W40179   3.906  13.525  12.620  0.2851 -0.1623  0.2422
23333W        W40180   6.171  18.776  12.738  0.3704 -0.0373 -0.2377
23334W        W40181  15.373  16.759  15.257 -0.0181  0.0611  0.2164
23335W        W40182  14.166  16.560  11.592 -0.0163 -0.0445 -0.0791
23336W        W40183  12.629  14.880  11.950  0.1568 -0.1893  0.1289
23337W        W40184  14.579  13.545   2.405  0.2451 -0.1680 -0.1440
23338W        W40185   3.872  14.863  13.225  0.0425 -0.2399 -0.3739
23339W        W40186  16.042   8.053   0.828 -0.1938 -0.1826  0.0702
23340W        W40187  18.494   5.715  11.378  0.0857  0.1028  0.2468
23341W        W40188  13.325  15.612  11.424 -0.2730  0.3957 -0.2626
23342W        W40189  11.151  10.289   3.817 -0.3216 -0.2668 -0.1260
23343W        W40190  10.946  14.315   5.083 -0.2318  0.0492 -0.2981
23344W        W40191   7.294  11.081   3.499 -0.1368  0.0726 -0.2928
23345W        W40192  15.708  16.144   2.221 -0.1234  0.0981  0.0215
23346W        W40193  15.433   3.640  15.549  0.2299 -0.2612 -0.0503
23347W        W40194  16.438  18.067  14.419 -0.2164  0.3882  0.1167
23348W        W40195  18.207  12.478  12.987  0.1165  0.2067 -0.3048
23349W        W40196  11.398   2.958   5.243 -0.1815  0.1149 -0.2534
23350W        W40197  11.900  12.547   4.988  0.1208 -0.0045 -0.1761
23351W        W40198   6.503  11.025  12.637  0.0021  0.0586 -0.2017
23352W        W40199  11.388   5.749  13.700  0.0926 -0.0327 -0.0157
23353W        W40200   3.144  13.389   0.354  0.2874 -0.0937 -0.0710
23354W        W40201  17.724   3.530   5.539 -0.0546  0.1633  0.2471
23355W        W40202   1.215  10.721   3.686  0.1407 -0.2514  0.3721
23356W        W40203  12.596   5.928  12.939 -0.0345 -0.2378 -0.1771
23357W        W40204   9.286   5.063  11.504  0.1788 -0.2441 -0.1319
23358W        W40205   5.113  14.580   2.721  0.0089 -0.1728 -0.2353
23359W        W40206  16.584  14.046  12.348  0.0363 -0.1077  0.0203
23360W        W40207  14.155  15.736   4.170 -0.3179  0.1142 -0.2890
23361W        W40208   3.893   7.435  13.056  0.0069  0.1477  0.1702
23362W        W40209  13.425  11.200  12.962  0.0760 -0.1290 -0.0721
23363W        W40210  15.076   8.788   5.543 -0.1719 -0.0873 -0.1116
23364W        W40211   1.222   9.664  14.686 -0.2801  0.1997 -0.1056
23365W        W40212  18.697  16.419   0.829 -0.2243  0.1177  0.1697
23366W        W40213   9.049  18.252   3.252 -0.1170 -0.0208 -0.0919
23367W        W40214   6.854   9.791  13.907 -0.0311  0.0199  0.1536
23368W        W40215   3.980   5.574   0.157  0.2679  0.0450  0.1818
23369W        W40216   0.300  11.837   5.066  0.1319  0.0380  0.1991
23370W        W40217   7.281   2.483  13.663  0.1506  0.1069  0.1239
23371W        W40218   3.070   7.567   5.764  0.1611 -0.0551  0.1904
23372W        W40219   4.187  13.198  12.853 -0.2037  0.0371 -0.3251
23373W        W40220  11.380   6.747   4.474  0.1611  0.1606 -0.0196
23374W        W40221  11.438   1.354  13.237  0.0336  0.0942  0.0650
23375W        W40222   0.482   9.880   2.375  0.1346  0.1085 -0.1798
23376W        W40223  14.595  14.945  11.207  0.1095  0.3629  0.2739
23377W        W40224   2.454  15.373   4.506  0.0971  0.0919 -0.1851
23378W        W40225  14.674   6.083  12.571  0.0650  0.0738 -0.3252
23379W        W40226  13.056  14.728  14.903  0.3092 -0.1229 -0.0323
23380W        W40227  18.617   3.291  10.940  0.1864 -0.0504  0.0087
23381W        W40228   4.894   5.497   4.525  0.0143  0.1177 -0.0387
23382W        W40229   7.300   9.405   1.369  0.2719 -0.1948  0.0854
23383W        W40230  18.322  17.712  15.268 -0.0485  0.0691 -0.0535
23384W        W40231   6.823   7.589   4.145  0.3814  0.3106 -0.0517
23385W        W40232  11.468   6.903   3.858  0.0591 -0.0040  0.0091
23386W        W40233  16.226   7.860  14.343 -0.0378  0.0000 -0.1196
23387W        W40234   2.080   3.561   4.092  0.1727  0.3814  0.2274
23388W        W40235   7.065  16.912   5.538  0.1849  0.1741 -0.0700
23389W        W40236   0.407  14.587   3.361  0.1902 -0.1029 -0.0518
23390W        W40237  18.593  10.850   4.201  0.0562 -0.1397 -0.3634
23391W        W40238   2.857   0.259   3.535 -0.1426 -0.0460 -0.0400
23392W        W40239  14.640   7.760  11.612  0.1865 -0.0265 -0.1029
23393W        W40240  15.344  16.111   2.665 -0.3957  0.0533 -0.1235
23394W        W40241   9.362   4.973   4.420  0.0065 -0.0278 -0.4374
23395W        W40242  15.968   8.570   1.576  0.0751 -0.1910  0.0000
23396W        W40243   4.737   0.278   1.705  0.2470  0.0241 -0.0927
23397W        W40244   2.514   7.227   4.347  0.1926 -0.2675 -0.0769
23398W        W40245  13.418  13.136   6.177  0.1459  0.0710  0.2423
23399W        W40246  14.097  14.089  14.097 -0.1778  0.1751  0.1723
23400W        W40247   0.154  13.619  11.958 -0.1054  0.1937 -0.1977
23401W        W40248   7.340  15.879   1.329 -0.0971  0.1381 -0.3175
23402W        W40249   3.530   9.637   0.015  0.1132  0.2093 -0.2837
23403W        W40250   4.723   7.551   2.257  0.1743  0.1539  0.0754
23404W        W40251  13.192  11.299  11.939 -0.2418 -0.1303 -0.3251
23405W        W40252   5.320  12.277  15.093  0.1047 -0.1049 -0.0102
23406W        W40253   5.170   6.162  12.460 -0.0925  0.2382  0.0498
23407W        W40254  18.562   6.807   2.138 -0.1333  0.0080 -0.0576
23408W        W40255   3.334   5.664   4.474 -0.0051  0.0257 -0.5235
23409W        W40256   3.317   9.507  12.162 -0.2709  0.1809  0.1418
23410W        W40257  16.490   2.491   0.044 -0.2350  0.0481  0.4225
23411W        W40258  11.764   9.174   3.195 -0.1091 -0.1164  0.4281
23412W        W40259   8.311   8.152   4.400 -0.2387 -0.1706 -0.3069
23413W        W40260  12.801   6.796   3.261 -0.0536  0.1629  0.0035
23414W        W40261  17.484  10.616   0.866 -0.1710  0.0837  0.1653
23415W        W40262  14.813   6.400   1.374  0.1796  0.0057 -0.4120
23416W        W40263  10.564  17.215   1.726  0.3193 -0.2465  0.1957
23417W        W40264  17.564  15.222  10.221 -0.1106 -0.1848  0.2501
23418W        W40265   9.054   5.828  14.590 -0.2785 -0.0914  0.5050
23419W        W40266   5.612   9.068  11.056  0.1164  0.0598 -0.0911
23420W        W40267   8.498   8.124  13.199  0.3618 -0.1721  0.2121
23421W        W40268   9.211   9.583  14.645 -0.2451  0.2239 -0.0262
23422W        W40269  14.779  16.365   0.976  0.1335 -0.0927 -0.0390
23423W        W40270   6.706  14.525  12.722 -0.1277  0.0193 -0.3225
23424W        W40271   2.477   2.114  14.827  0.0978  0.1429 -0.1476
23425W        W40272  18.568   3.983  14.070  0.2434 -0.2314  0.2189
23426W        W40273   5.987   5.596   1.848  0.2390 -0.0752 -0.2865
23427W        W40274  10.535  10.797   4.017 -0.2391 -0.0989 -0.1267
23428W        W40275  11.491   0.854   3.932  0.0617  0.3187 -0.1392
23429W        W40276  12.580  15.295   3.304 -0.1993 -0.0229 -0.1308
23430W        W40277   2.866  14.759   3.193  0.1630 -0.0852 -0.1170
23431W        W40278  17.315  18.012   1.094 -0.0460  0.0932 -0.1611
23432W        W40279  16.677  18.300  11.260 -0.2998  0.2611 -0.0923
23433W        W40280  13.348   1.628   5.145  0.0688  0.1258  0.2195
23434W        W40281   5.727  16.779  10.962 -0.2237  0.2205 -0.1278
23435W        W40282   1.459   0.978  12.261  0.0035  0.1373 -0.2322
23436W        W40283  15.272   3.728   0.907  0.1204  0.2804  0.1579
23437W        W40284   0.228  10.265   0.408 -0.4464  0.1391  0.2800
23438W        W40285   7.718   7.376  15.272  0.0103  0.1426  0.1474
23439W        W40286   2.156   8.756   2.857  0.2968  0.0501  0.0677
23440W        W40287  10.347   4.511   4.550  0.1191  0.0662  0.3000
23441W        W40288  18.071   5.982   1.424  0.0194  0.0646  0.1460
23442W        W40289  17.151   0.978   2.204 -0.0399  0.1378 -0.1703
23443W        W40290   3.972  17.353   3.664 -0.0244  0.2566 -0.1227
23444W        W40291  14.499  15.056  11.912 -0.0929  0.2511  0.1870
23445W        W40292   4.717  12.220  12.836 -0.0742  0.1209  0.0316
23446W        W40293   3.641  13.976   0.546  0.2495 -0.0778  0.1701
23447W        W40294   3.284   5.347  12.222 -0.1259  0.3330 -0.2317
23448W        W40295  14.477  14.033  14.847  0.0374  0.1286 -0.2928
23449W        W40296  10.362  15.655   1.257 -0.0417 -0.1619 -0.0517
23450W        W40297   5.740  15.189  12.839 -0.3136 -0.2593  0.1494
23451W        W40298  13.871   2.240  15.237 -0.0090  0.1900  0.0185
23452W        W40299   5.524  13.992   9.999 -0.5368 -0.1141 -0.1097
23453W        W40300  10.912  16.682   3.447 -0.1594  0.0910  0.2039
23454W        W40301   9.884   5.356   2.195  0.1827  0.0176 -0.1494
23455W        W40302  14.509  12.557   0.419  0.2429  0.0866 -0.1291
23456W        W40303  17.609  11.543   0.859  0.2104 -0.1962 -0.0175
23457W        W40304  14.660   4.743  11.286 -0.2154  0.0313 -0.1225
23458W        W40305   0.406   4.022  11.906  0.0859  0.0577 -0.1117
23459W        W40306  12.046   5.434  14.513  0.2349  0.1204  0.2410
23460W        W40307  10.281  14.257  13.402 -0.0225 -0.1158 -0.1457
23461W        W40308  17.019  16.474  14.652  0.1752  0.0797 -0.1463
23462W        W40309   4.856   9.946  15.231 -0.1098 -0.0532  0.0905
23463W        W40310  16.753  13.769  11.216 -0.1636  0.1136 -0.0834
23464W        W40311   2.010  15.091  11.966 -0.0256  0.0875 -0.1633
23465W        W40312   8.832  16.132   1.807 -0.5637  0.1789  0.2087
23466W        W40313  16.086  10.763   1.302  0.0022 -0.1614 -0.1499
23467W        W40314  16.106  16.468  12.815 -0.2781 -0.2186 -0.0931
23468W        W40315  10.017   0.074   0.772 -0.0143  0.4591  0.0583
23469W        W40316  15.787   5.716  11.661 -0.3295 -0.4053 -0.3197
23470W        W40317  11.519  10.284   3.488  0.3389 -0.2383 -0.0362
23471W        W40318   4.768  10.867   2.322  0.1856  0.0757 -0.1770
23472W        W40319   4.423   0.166  12.307 -0.1068 -0.1568  0.2394
23473W        W40320   8.424  16.578   0.435 -0.0337  0.0201 -0.2511
23474W        W40321   7.556  10.394   2.985  0.1267  0.1986  0.1119
23475W        W40322  13.647   8.573  12.024  0.3091  0.3342 -0.2814
23476W        W40323  16.931   2.154  12.748 -0.1817  0.1117 -0.2495
23477W        W40324   3.010  14.328   4.220  0.5271 -0.1064 -0.0840
23478W        W40325   9.420  12.436  11.209 -0.0883  0.3429  0.1924
23479W        W40326   0.483  10.155  15.552  0.0806  0.4128 -0.5013
23480W        W40327   6.358   0.857  13.834 -0.0334  0.0341  0.2063
23481W        W40328   9.847  12.057  12.430 -0.0157 -0.2487  0.0718
23482W        W40329   8.122  13.818  12.517 -0.2343  0.1963 -0.2734
23483W        W40330   3.431  13.766  10.538 -0.0314 -0.1456  0.0710
23484W        W40331   4.245   4.240  11.331  0.1679 -0.0363 -0.3446
23485W        W40332   7.611   2.469   3.164  0.1364 -0.0662  0.0466
23486W        W40333  17.866  14.479   2.459 -0.0857  0.0219  0.0826
23487W        W40334   8.205   5.664   0.709 -0.3738 -0.1100 -0.3143
23488W        W40335  18.745  16.630  12.799 -0.1205 -0.1430  0.1380
23489W        W40336  10.985  18.001  15.123 -0.2845 -0.1427 -0.0402
23490W        W40337  11.634  14.159   0.121 -0.1886  0.4031 -0.0954
23491W        W40338  17.285   2.876  14.001 -0.1639  0.0383 -0.0400
23492W        W40339  17.801   7.929   3.170 -0.1162 -0.1842 -0.2008
23493W        W40340   8.401   7.314  12.667 -0.0277  0.3288 -0.1774
23494W        W40341  14.836  18.154   4.001  0.0238 -0.0236 -0.2078
23495W        W40342  10.128   6.498   4.015  0.0322  0.1383 -0.1571
23496W        W40343   2.207   0.863  11.021 -0.1332  0.1386  0.0901
23497W        W40344  10.725  11.785   0.534  0.1241 -0.0827 -0.2294
23498W        W40345   8.719   9.472  10.759  0.0904  0.1258 -0.0336
23499W        W40346   5.913   6.447   1.815  0.0789  0.0160  0.1936
23500W        W40347   9.016   0.125  14.064 -0.0855 -0.1083 -0.3057
23501W        W40348   1.596  12.817   2.684 -0.0396 -0.1602 -0.1142
23502W        W40349  13.145  11.994   2.568  0.0463 -0.0278  0.0563
23503W        W40350  17.800  18.025   5.477 -0.0649 -0.4372  0.0167
23504W        W40351  16.530   8.305  14.922  0.2587 -0.0189 -0.0648
23505W        W40352   7.694   8.365  15.400 -0.3395  0.1831  0.3131
23506W        W40353  11.044  16.773   0.450  0.0642  0.0605  0.0402
23507W        W40354   5.670  18.835  14.657 -0.1744  0.0724 -0.1618
23508W        W40355   1.767   9.694  14.642  0.0119 -0.1241 -0.1881
23509W        W40356   7.371  14.165  14.003  0.1003  0.0148 -0.2005
23510W        W40357   7.194   6.346  13.024 -0.2190 -0.2933 -0.2863
23511W        W40358   8.256  10.383  14.123 -0.2515 -0.1614 -0.2731
23512W        W40359  16.582   3.879   1.608 -0.1090  0.4735  0.3619
23513W        W40360  15.899  15.948  14.122  0.2461  0.3406 -0.0483
23514W        W40361   5.906  12.965  13.339 -0.0436 -0.1129 -0.0828
23515W        W40362   6.313   3.853  13.272 -0.1192  0.1343 -0.0619
23516W        W40363  10.585  11.081  12.256  0.4028  0.3996  0.5906
23517W        W40364  16.991  12.652  12.652  0.1391 -0.1520  0.0065
23518W        W40365  14.944  10.817  10.083 -0.0868  0.0232  0.2902
23519W        W40366  10.828   6.474  13.844  0.2539 -0.1182 -0.0825
23520W        W40367   4.930  11.738  13.142  0.3531 -0.0080 -0.3652
23521W        W40368  12.019   8.212   9.678 -0.0235  0.4687  0.0351
23522W        W40369  11.649   5.529   3.159 -0.6085 -0.2101 -0.2120
23523W        W40370  15.319  13.989   1.612  0.2348  0.2208  0.1337
23524W        W40371   8.066  10.036  14.687 -0.2811  0.1130  0.0675
23525W        W40372  13.728   4.381   3.580  0.1310  0.2103 -0.2408
23526W        W40373   7.354  12.122   0.099  0.0029 -0.2547 -0.0223
23527W        W40374  14.448  15.982  10.981 -0.0328  0.3361 -0.1595
23528W        W40375  13.062   3.875  15.099  0.5321 -0.1187  0.0226
23529W        W40376   0.763   0.243   1.492 -0.2240  0.0238  0.1909
23530W        W40377   6.993   7.231  14.262  0.3230 -0.0336 -0.0501
23531W        W40378   8.450  12.931  14.682 -0.2386 -0.0571  0.1565
23532W        W40379  13.226  15.139  13.571 -0.2083 -0.0650 -0.2086
23533W        W40380   0.352  14.089   3.154  0.0879  0.0116  0.1765
23534W        W40381   8.148  17.553  11.945 -0.2050  0.1899 -0.0006
23535W        W40382  12.248  13.531  13.165 -0.3115  0.2501  0.0773
23536W        W40383   0.090   8.951   2.833 -0.4127  0.1289  0.0634
23537W        W40384   6.436   6.517  11.432 -0.2088  0.0134  0.0479
23538W        W40385   2.379   6.380   2.614 -0.3580  0.1630 -0.0966
23539W        W40386  10.493   1.472   0.347 -0.3909  0.0659  0.0011
23540W        W40387  16.453  14.208  10.971 -0.0201 -0.0778 -0.0159
23541W        W40388   1.737   5.476   1.113  0.0164  0.0697 -0.1296
23542W        W40389  16.386  11.738   2.789 -0.0424 -0.1292  0.3965
23543W        W40390  12.534  17.609   0.431  0.0031 -0.0064  0.2449
23544W        W40391  11.799  17.132  10.031 -0.0458  0.0887  0.1174
23545W        W40392  11.836   4.162  13.865 -0.0351 -0.1694  0.1858
23546W        W40393   2.009  15.526  15.055 -0.3835  0.0280 -0.1027
23547W        W40394  11.193   7.043   0.893  0.1585  0.0308  0.0693
23548W        W40395  15.577   3.908  13.938  0.1960 -0.2448 -0.0207
23549W        W40396  13.200  10.438  11.833 -0.0039  0.0600  0.0007
23550W        W40397   5.016  14.826   3.184  0.0487 -0.0594 -0.1266
23551W        W40398   7.266  15.293   4.180  0.2201  0.1003  0.1797
23552W        W40399  14.565   1.212   5.363  0.2246  0.1690  0.0531
23553W        W40400  17.712  17.918  11.923  0.1811 -0.1753  0.3495
23554W        W40401   7.414  17.227   1.499  0.2264  0.0599 -0.3363
23555W        W40402  16.144   9.931   0.680  0.1729  0.5170 -0.2030
23556W        W40403   7.082  14.225  14.978 -0.0640 -0.3916 -0.2349
23557W        W40404   7.173   1.834   3.824 -0.3762  0.4200  0.0013
23558W        W40405  13.938   3.850   1.343  0.1176 -0.3179  0.1102
23559W        W40406   4.507   8.258  15.344 -0.1181 -0.2175  0.0668
23560W        W40407  11.470   0.845   5.947 -0.1187 -0.0600 -0.0921
23561W        W40408  12.172   4.456   0.675 -0.0220 -0.2701 -0.1396
23562W        W40409  11.593  13.139  15.063 -0.0198  0.0222 -0.0200
23563W        W40410  18.057   9.164   0.080 -0.2503  0.0395  0.4088
23564W        W40411   7.957   9.029   3.569  0.3207  0.1403  0.5813
23565W        W40412   8.469   6.219  13.368  0.0220  0.2084 -0.0818
23566W        W40413   4.502  10.342   0.449 -0.1982 -0.2387 -0.0624
23567W        W40414   6.654   6.545   3.762 -0.1390 -0.2002 -0.0232
23568W        W40415  16.878   8.308   0.986  0.3343 -0.1241 -0.1350
23569W        W40416  13.197  17.532  11.454 -0.1187 -0.2947  0.3454
23570W        W40417  14.295  10.807   1.456  0.3546  0.0309  0.2970
23571W        W40418  18.333   5.524   1.171 -0.4116 -0.2048  0.2375
23572W        W40419  11.975  14.896  12.698 -0.0147  0.1565  0.3725
23573W        W40420  11.727  13.100  11.225 -0.4082  0.2668 -0.0782
23574W        W40421  12.107  18.446  13.765 -0.0892 -0.2431 -0.0464
23575W        W40422   7.795  13.854   0.794 -0.0898  0.0992  0.0032
23576W        W40423  16.809   8.277  11.326 -0.2596  0.1577 -0.1686
23577W        W40424   7.691   7.253  14.779 -0.0068  0.0532  0.2597
23578W        W40425   1.876  15.638   3.657 -0.0445 -0.0816  0.0923
23579W        W40426  10.802  18.778  11.663  0.3593  0.0683 -0.2666
23580W        W40427   7.289   4.599  13.225 -0.0554  0.3332 -0.1678
23581W        W40428  16.801  13.026   2.144  0.0799 -0.0195  0.0738
23582W        W40429   0.696   6.245   5.046 -0.0405  0.0566  0.0294
23583W        W40430  18.039   2.297   1.046 -0.2696  0.1636 -0.1550
23584W        W40431  11.717   7.023   0.724 -0.0198  0.0072 -0.1634
23585W        W40432  16.612  15.434  15.384 -0.0551  0.0056 -0.0105
23586W        W40433   5.082   7.765   5.634 -0.3436 -0.1699  0.3818
23587W        W40434  12.652   9.657   5.906 -0.0860  0.0795 -0.1782
23588W        W40435  12.876  12.060   3.597  0.0534 -0.3161 -0.0258
23589W        W40436   6.755   0.168  12.605  0.1791  0.0381 -0.0520
23590W        W40437   0.870   3.934  12.937 -0.1127  0.3246  0.0586
23591W        W40438  15.112   7.680  11.765  0.3371 -0.1606  0.0002
23592W        W40439   5.734   6.432   0.819  0.0247  0.0902  0.0169
23593W        W40440  12.040  18.672  11.378 -0.2756 -0.0339  0.3240
23594W        W40441   4.187   7.979  13.744  0.6654  0.3428 -0.0388
23595W        W40442   2.141  16.365   0.965  0.2411  0.1132  0.0630
23596W        W40443  18.218   1.882   4.358  0.5059  0.0790  0.2501
23597W        W40444   5.039  16.255  14.168  0.0930 -0.1574  0.1478
23598W        W40445  13.990   6.617   3.726  0.4202 -0.1954 -0.0344
23599W        W40446  13.094   7.379  15.206  0.3303  0.1230 -0.2028
23600W        W40447   6.987  11.838   2.184 -0.2444  0.0326 -0.3486
23601W        W40448  13.539  16.432  14.745 -0.1664 -0.1939 -0.1264
23602W        W40449  18.530   4.725   4.170 -0.3352  0.0615  0.2925
23603W        W40450   5.582  15.443  14.653  0.0336  0.1541 -0.0763
23604W        W40451   9.773  18.228  15.535 -0.1712  0.0088 -0.3324
23605W        W40452   0.350  16.944  13.979  0.0774  0.0299 -0.0046
23606W        W40453   0.915   6.127   1.042 -0.4246  0.0231 -0.1590
23607W        W40454  18.729  15.051   3.574  0.0917  0.1421 -0.0692
23608W        W40455  13.215   1.146   1.065 -0.2366 -0.0567 -0.2538
23609W        W40456  10.104   9.898   4.216 -0.0287  0.0140  0.1451
23610W        W40457  18.599  13.504   2.708  0.0072  0.0621  0.1910
23611W        W40458  16.590   6.054   2.721 -0.1641  0.0252  0.0201
23612W        W40459   6.178  18.064  15.337 -0.0987  0.2300  0.0966
23613W        W40460   7.320  15.038   1.574  0.1744  0.0861  0.1257
23614W        W40461  12.785   2.941   2.320 -0.1153 -0.0363  0.3520
23615W        W40462   9.209  13.416  12.356 -0.0461  0.0609 -0.2753
23616W        W40463   0.158   0.593  12.901  0.0196 -0.1458 -0.1036
23617W        W40464   1.066  14.381   4.047  0.0810 -0.1179 -0.0612
23618W        W40465   6.489  10.338   1.977 -0.1071 -0.0935 -0.2099
23619W        W40466   3.001  18.444   2.878  0.3302  0.1077 -0.3364
23620W        W40467   7.396   4.593  15.007  0.0457  0.2160  0.2403
23621W        W40468  15.110  16.138   4.843  0.1327  0.1397 -0.1903
23622W        W40469   3.114  12.496   0.787  0.0333 -0.3047  0.0371
23623W        W40470  16.947  17.084   2.992  0.2471 -0.3231 -0.0913
23624W        W40471  15.819   5.533  13.701 -0.0464  0.3748  0.1115
23625W        W40472  13.086  15.481   1.606 -0.1366  0.2310 -0.1745
23626W        W40473  14.474   1.043   3.376  0.0517 -0.3212  0.3010
23627W        W40474  11.540   6.267  15.157  0.1238  0.1622 -0.1233
23628W        W40475  14.434   4.180  10.694 -0.0951 -0.2032  0.0990
23629W        W40476  11.580   6.668   2.546  0.2270  0.2185  0.0296
23630W        W40477   8.977  14.297   2.207 -0.4859 -0.0627 -0.2156
23631W        W40478  13.202   5.310   0.531  0.1241  0.1554  0.1406
23632W        W40479  11.210  13.161   2.959  0.0573  0.2430  0.0486
23633W        W40480   0.397  10.749  14.761  0.1317 -0.0389  0.3279
23634W        W40481   5.496   3.958  13.740 -0.3527 -0.1236  0.1895
23635W        W40482   4.747   0.989  15.320  0.2830 -0.0263 -0.1240
23636W        W40483  10.892  10.750  14.532  0.0181  0.1572  0.1924
23637W        W40484   6.087   4.470   1.271  0.2672  0.0973  0.0055
23638W        W40485   2.685   4.911  15.428  0.0791  0.3791 -0.1120
23639W        W40486  16.055  12.500  11.394  0.0058 -0.0937  0.1750
23640W        W40487  10.478  14.001   3.890  0.0044 -0.1618  0.3826
23641W        W40488   1.887  11.121   0.272  0.2347  0.0733 -0.1415
23642W        W40489  12.211   4.059   1.703 -0.0441  0.2058 -0.1494
23643W        W40490  14.381   5.580   0.669  0.0808  0.0349 -0.0197
23644W        W40491  13.985   8.225  10.909 -0.0505 -0.0358 -0.2583
23645W        W40492  13.522  11.367   1.980  0.0365 -0.2998  0.2892
23646W        W40493   4.111  12.398  11.734 -0.1229  0.0517  0.0217
23647W        W40494   3.039   4.342   2.379 -0.1134  0.0458  0.2762
23648W        W40495  17.187   3.218  15.446  0.2034 -0.3124 -0.2931
23649W        W40496   8.244   0.352  15.434  0.0668 -0.1588 -0.2237
23650W        W40497  14.985   4.490  10.992  0.1409  0.4377 -0.2263
23651W        W40498  10.493  11.490   5.761  0.1500 -0.0044  0.1891
23652W        W40499  12.426  15.279   0.025  0.0259  0.6024 -0.1037
23653W        W40500   2.711  18.752   0.784 -0.0410  0.3043 -0.2210
23654W        W40501  10.974  13.204   0.296  0.0129 -0.3405  0.4859
23655W        W40502  18.578   7.319   4.951 -0.1615 -0.1735 -0.1055
23656W        W40503  13.042  14.613  14.262 -0.0532 -0.1340 -0.0071
23657W        W40504  16.604   9.248   3.681  0.1976  0.2316 -0.0598
23658W        W40505   5.002   7.181   3.801 -0.0306  0.3147  0.0255
23659W        W40506  14.737   6.831   1.091  0.1819 -0.1898  0.0697
23660W        W40507  18.451  17.441  14.340 -0.1356  0.1178 -0.0337
23661W        W40508   5.083   9.615   1.483  0.0212 -0.2798  0.0325
23662W        W40509   2.725  17.979  15.245 -0.2645 -0.0692 -0.2229
23663W        W40510   5.120   0.530   3.529  0.1989  0.3818 -0.0203
23664W        W40511   9.940  14.839   2.326 -0.0654 -0.3843 -0.0588
23665W        W40512   5.705  14.618   0.098 -0.0322  0.1337  0.0030
23666W        W40513   6.118  15.673   4.716 -0.1596  0.0564 -0.1843
23667W        W40514   7.619   7.736   2.953  0.0028  0.2081 -0.1960
23668W        W40515   8.684  16.837   0.796 -0.1499  0.3465  0.3839
23669W        W40516   7.773   6.750  14.635  0.1531 -0.0173 -0.0031
23670W        W40517   8.825   5.044   0.132  0.0813 -0.0323 -0.0503
23671W        W40518   1.513  11.861   4.299  0.0675  0.2164  0.4590
23672W        W40519  11.848  14.321   2.039  0.1319  0.1501  0.1460
23673W        W40520   4.032   7.365   2.956 -0.0679  0.0197  0.2658
23674W        W40521   0.307   2.948   0.872  0.3528 -0.1938 -0.3852
23675W        W40522  15.604  17.012   1.447  0.1301  0.0550  0.0639
23676W        W40523  10.128  16.878   0.899 -0.0439  0.3720  0.1407
23677W        W40524   6.191  15.170   1.657  0.0625  0.1370  0.1649
23678W        W40525   2.699  18.076  11.533 -0.1803  0.1399  0.5869
23679W        W40526  10.679   3.844   1.308  0.4466 -0.2876  0.0668
23680W        W40527  10.028   2.011  13.881 -0.0206  0.0790 -0.1149
23681W        W40528   9.693   2.452   3.063  0.1884  0.1862 -0.1343
23682W        W40529   9.890   3.537  14.778 -0.1462  0.0230 -0.1198
23683W        W40530  16.420  13.791  13.347 -0.0372 -0.0548  0.0594
23684W        W40531  15.692   1.626   4.576 -0.1364 -0.2338 -0.1626
23685W        W40532   6.452  18.304   5.701 -0.0754  0.0385  0.0381
23686W        W40533   7.014  11.978  15.239 -0.0915  0.1866  0.0244
23687W        W40534   0.502  10.629  12.009  0.2890 -0.1554  0.3063
23688W        W40535   0.841  16.162  14.688 -0.0744 -0.1517  0.1043
23689W        W40536  13.545   0.497  11.145 -0.1104  0.1726 -0.1282
23690W        W40537  11.958   9.662   3.145 -0.0056 -0.2095 -0.1084
23691W        W40538  11.204  10.927   5.514 -0.0459  0.1520 -0.2058
23692W        W40539   7.032  11.216  14.321  0.0206 -0.0205  0.0114
23693W        W40540   5.806  10.117  11.056  0.0204 -0.1038  0.2125
23694W        W40541  13.635   4.489  15.013  0.1070 -0.1130 -0.2939
23695W        W40542   3.075   2.185   0.874  0.0800  0.0723 -0.1612
23696W        W40543   5.703   1.069  12.649 -0.2013 -0.2641  0.0415
23697W        W40544   0.373  13.016  14.598  0.2468  0.1312  0.0329
23698W        W40545   1.351   6.791  12.258  0.1117  0.0793 -0.0470
23699W        W40546   3.571   8.713   4.113  0.1882  0.2583  0.1011
23700W        W40547   7.395   1.955  13.495 -0.2359 -0.2304 -0.0869
23701W        W40548  16.804   5.713   1.962  0.0173 -0.2904  0.2048
23702W        W40549  15.338   3.432  13.935 -0.0786  0.1986  0.5195
23703W        W40550  15.292  13.608   0.557  0.0331 -0.6088  0.1762
23704W        W40551   9.688  10.287   4.248 -0.3029  0.0728 -0.1380
23705W        W40552  12.935   8.706  13.501 -0.1367  0.4205 -0.1413
23706W        W40553  16.535  14.692  10.946  0.1584  0.2507 -0.1095
23707W        W40554   6.365  17.086  13.809  0.0449  0.2208  0.2339
23708W        W40555  16.641  14.635   1.343 -0.1446  0.4176 -0.1450
23709W        W40556  11.985   6.083   4.596  0.1028 -0.0305 -0.0620
23710W        W40557   5.561   7.873   3.778  0.1601  0.2481 -0.3499
23711W        W40558   4.679   3.406   3.111  0.0601 -0.0786 -0.1630
23712W        W40559  13.066  12.319   4.066  0.0459  0.2823 -0.1322
23713W        W40560   6.666  11.872   1.389 -0.1450  0.3308  0.1788
23714W        W40561   7.312   3.185   0.522 -0.0192  0.1644  0.0313
23715W        W40562   4.605  15.649  12.380  0.0884  0.3324 -0.1360
23716W        W40563  13.452  17.576   2.985  0.1498 -0.0101  0.0886
23717W        W40564  13.510  11.037   4.604 -0.0219 -0.0891 -0.1696
23718W        W40565  15.222  16.441  12.482  0.2803  0.0684  0.1071
23719W        W40566   4.831   6.843  13.140 -0.1571 -0.1549  0.1200
23720W        W40567   3.150  15.675  11.900 -0.1041  0.2571  0.2091
23721W        W40568   8.404  17.245   1.036 -0.0457 -0.0403  0.2580
23722W        W40569   0.457  13.876  13.704 -0.0901 -0.0067 -0.1080
23723W        W40570  11.781   4.479   3.717  0.2179  0.0768 -0.1650
23724W        W40571   0.228   7.134   0.488  0.2132 -0.1464  0.0164
23725W        W40572  16.654   4.373   3.482  0.0239 -0.0876 -0.4051
23726W        W40573   1.852   5.088  14.969  0.1920 -0.1809 -0.0713
23727W        W40574   8.406  16.951  12.457 -0.1074 -0.0704  0.0286
23728W        W40575   8.425   4.857   4.566 -0.0532  0.1471  0.0553
23729W        W40576   6.831   7.340   0.304 -0.2382  0.0613  0.2664
23730W        W40577   0.943  10.827   4.580 -0.0844  0.2413  0.1536
23731W        W40578   6.597   6.248   2.769  0.0171  0.0262  0.3681
23732W        W40579   2.644   4.909   4.958  0.2894  0.2171  0.0077
23733W        W40580   3.629   0.283   1.429 -0.2669 -0.0406  0.1427
23734W        W40581   4.529   2.930   2.896 -0.2104 -0.1386 -0.2437
23735W        W40582   4.145   7.709   3.919  0.0351 -0.2680 -0.2932
23736W        W40583   2.053   4.107  13.627  0.0594  0.0579  0.3499
23737W        W40584   3.033  14.387   1.098 -0.1567 -0.0749  0.0579
23738W        W40585   9.560   0.509   5.364  0.1153 -0.2548 -0.1624
23739W        W40586  12.681  10.016   4.842 -0.0483 -0.2626  0.1333
23740W        W40587   8.649   7.305   5.569 -0.0302 -0.2570  0.0527
23741W        W40588   3.132   3.333   3.266  0.1581 -0.0163  0.3180
23742W        W40589  10.444   7.396  14.131 -0.3190 -0.1188  0.3852
23743W        W40590  16.130  15.843  12.323 -0.0505  0.1523  0.0910
23744W        W40591  12.655   1.300  13.764 -0.0069  0.0887  0.0387
23745W        W40592  15.993   2.529  13.846 -0.0030 -0.2766 -0.1663
23746W        W40593   5.416  15.396   3.817 -0.1060 -0.1523  0.0313
23747W        W40594  18.498  18.761   1.386  0.0568  0.0489  0.0545
23748W        W40595   8.506  14.648   0.887 -0.0602 -0.4669  0.2070
23749W        W40596   7.517   0.920   2.795  0.1260  0.1302 -0.0028
23750W        W40597  12.528   4.996   2.766 -0.0780  0.2415  0.2353
23751W        W40598  13.924   0.562  12.721  0.1522  0.3579  0.2139
23752W        W40599   0.867  18.303  11.206  0.1870 -0.0783 -0.2018
23753W        W40600  17.818  11.270   1.853  0.2242 -0.4459 -0.3382
23754W        W40601   0.876  15.914  10.607 -0.0611 -0.3412  0.0913
23755W        W40602   8.529  17.284  14.285 -0.0891 -0.2045  0.1200
23756W        W40603   1.041   5.279  15.508  0.1529 -0.3306  0.1119
23757W        W40604  17.212  11.653   1.589 -0.1487 -0.2324  0.0193
23758W        W40605   9.271   6.101   4.407 -0.2982  0.1420 -0.1437
23759W        W40606  18.344  14.452  11.817  0.0552 -0.0012 -0.0695
23760W        W40607  12.074   5.490   0.790 -0.1727  0.0148 -0.0063
23761W        W40608   2.593  16.356  10.900 -0.0935 -0.0598  0.1784
23762W        W40609  12.506   4.074   5.262 -0.2996 -0.4221  0.1060
23763W        W40610   9.922   7.783  12.732 -0.0240  0.1826  0.2349
23764W        W40611  11.195  14.108  14.784 -0.1165  0.2088 -0.2210
23765W        W40612  10.679   6.712   1.634  0.0133 -0.1777  0.0901
23766W        W40613  18.201   1.286   2.859 -0.0200  0.0668  0.1468
23767W        W40614  16.111   5.263   3.650 -0.0136 -0.1085  0.0052
23768W        W40615  14.841  16.979   4.414 -0.1870 -0.2255  0.1080
23769W        W40616  11.785   0.254  14.305  0.2281 -0.0163 -0.1930
23770W        W40617   0.564  13.350  13.517  0.1997  0.1437 -0.0587
23771W        W40618  15.289  17.293   0.912  0.1899  0.2682 -0.0595
23772W        W40619  16.546  10.968   1.275 -0.1315  0.2162 -0.0306
23773W        W40620   0.759   0.686   5.286  0.0329  0.1185 -0.1954
23774W        W40621   6.634  17.510  12.056 -0.0594  0.2710  0.2249
23775W        W40622   9.980   8.348  14.093 -0.1349 -0.1918 -0.1551
23776W        W40623   2.275   5.046  14.686 -0.1348  0.2008  0.2167
23777W        W40624   2.529  11.821   3.226  0.3010 -0.2328 -0.1371
23778W        W40625  14.245   2.209  10.218  0.1158  0.1361 -0.0433
23779W        W40626   6.643   5.496  12.452  0.3388  0.0206  0.2585
23780W        W40627  17.278  18.069   2.973 -0.1302  0.0090  0.3949
23781W        W40628  15.809   4.018   0.803  0.0358 -0.0328 -0.1130
23782W        W40629  15.582   8.091   4.301 -0.0345 -0.1368  0.0897
23783W        W40630  15.104   0.353   2.264  0.2092  0.0400 -0.0191
23784W        W40631   0.815   7.347  11.687 -0.0831 -0.1404  0.2844
23785W        W40632   4.576   1.200   2.716 -0.2925  0.0719 -0.1656
23786W        W40633   4.602   0.225   0.766 -0.0966 -0.2417 -0.3625
23787W        W40634   4.746   6.362   0.535 -0.1030  0.2321 -0.2319
23788W        W40635  12.532  12.694   9.589  0.0489 -0.3278  0.0840
23789W        W40636   9.353   5.580   5.792  0.1159 -0.0962 -0.1839
23790W        W40637  11.041   5.230  14.522 -0.0181 -0.2737  0.0287
23791W        W40638  18.269   1.554  10.607 -0.0215  0.2334  0.0651
23792W        W40639  17.349  16.498   0.408 -0.1211 -0.1724  0.1211
23793W        W40640   0.283  18.520  13.800  0.1761  0.0068 -0.4145
23794W        W40641   0.994   1.556  15.196  0.0204 -0.1251  0.2368
23795W        W40642  11.295   1.177   3.622  0.0564  0.0688 -0.2278
23796W        W40643   9.485   1.476   3.062 -0.2001  0.2673  0.1954
23797W        W40644   2.990  10.016  11.487 -0.0324 -0.2851 -0.2178
23798W        W40645   7.715  18.424   4.001 -0.2756  0.0097 -0.1459
23799W        W40646   9.927   5.564   3.447  0.1278  0.0168 -0.0124
23800W        W40647   3.195  12.313  11.825  0.2218  0.0183 -0.0986
23801W        W40648   5.842  13.791   2.852 -0.2443  0.1045 -0.1357
23802W        W40649   3.150   8.402   0.012 -0.0640 -0.1124 -0.0789
23803W        W40650  15.584  18.736   3.840 -0.2335 -0.0077 -0.0938
23804W        W40651   3.645   2.891  13.593 -0.2959 -0.1497  0.1704
23805W        W40652  13.203   4.540   4.432 -0.1154  0.1576 -0.0413
23806W        W40653  11.906  17.682   4.126 -0.2932 -0.0978  0.1371
23807W        W40654   4.800   7.364   3.373  0.1463  0.2666 -0.1529
23808W        W40655  17.001   6.775  12.157 -0.0593 -0.0544  0.0577
23809W        W40656   1.025   4.056   4.127  0.0213 -0.1411  0.1178
23810W        W40657   8.992   9.096  15.053 -0.0323 -0.5386  0.1453
23811W        W40658  13.456   8.097  12.327 -0.4355 -0.0996 -0.1248
23812W        W40659   2.802   0.681  13.626  0.3201  0.0693  0.0356
23813W        W40660  17.760  14.913  13.043 -0.1486  0.4335 -0.1720
23814W        W40661   1.925   3.045   1.731  0.2504 -0.0007  0.1627
23815W        W40662  18.561   1.635   3.084  0.2067 -0.0619 -0.0537
23816W        W40663   8.718   6.617  11.573  0.0692 -0.0874  0.0038
23817W        W40664   6.289   4.819   4.813  0.2629 -0.4021  0.1619
23818W        W40665  13.838   2.657  14.733  0.0954 -0.1311  0.1546
23819W        W40666   2.381  16.515   1.556 -0.0578 -0.1428  0.0648
23820W        W40667   8.058   6.062   1.025  0.1551  0.4642 -0.1074
23821W        W40668  11.761   1.084  12.902 -0.0378 -0.1326  0.1435
23822W        W40669  12.775   6.948   2.773 -0.1400 -0.1378 -0.1923
23823W        W40670  16.194   1.873  11.200 -0.2058 -0.1032  0.3082
23824W        W40671   6.436   3.124   1.556  0.1452  0.0568 -0.0302
23825W        W40672   4.302  11.312  13.480  0.1258  0.1319 -0.0085
23826W        W40673  10.844  11.064  14.107 -0.2889 -0.1985  0.3360
23827W        W40674  18.731  12.325  11.686 -0.2956 -0.2411  0.1917
23828W        W40675   0.186   5.823  11.620 -0.1610  0.1566 -0.2405
23829W        W40676   3.392   9.624  15.094 -0.1767  0.4188 -0.0187
23830W        W40677  11.598  15.810  13.842  0.0733 -0.0819  0.0175
23831W        W40678   7.291   5.255   3.082 -0.0443  0.0750 -0.3340
23832W        W40679  17.643   3.360   1.002  0.1118 -0.1671 -0.0669
23833W        W40680   7.620   3.103   1.928 -0.1777  0.0706  0.2022
23834W        W40681   8.576  15.601  12.713 -0.1020 -0.2277 -0.2267
23835W        W40682   0.941  13.891   9.819 -0.0282  0.0585  0.0109
23836W        W40683  18.690  14.606   0.657 -0.2294 -0.0525  0.0344
23837W        W40684   9.200  15.889  13.169  0.0757 -0.2408 -0.0613
23838W        W40685   7.685   1.017  13.079  0.0886  0.0291  0.0335
23839W        W40686   2.822   8.490   3.983 -0.3075  0.2211 -0.1158
23840W        W40687  16.089   4.642   3.297 -0.0817 -0.0485  0.4223
23841W        W40688   4.048   0.545  11.470  0.0995  0.0104 -0.0221
23842W        W40689  15.642  12.308  12.597 -0.0507  0.0593  0.3198
23843W        W40690   1.589   8.397   4.192 -0.1128  0.0991 -0.0180
23844W        W40691   2.227   1.336  14.827  0.2215  0.0905  0.0651
23845W        W40692   4.826   2.066   4.735 -0.1165 -0.5003 -0.4476
23846W        W40693   4.820   6.309  12.123  0.0386 -0.0053  0.0690
23847W        W40694   5.010   6.877   1.342 -0.0299  0.1035  0.0501
23848W        W40695   3.289  14.069  10.958  0.1034 -0.1209 -0.0231
23849W        W40696  10.614   0.139  13.069 -0.0768  0.2424 -0.0948
23850W        W40697  12.791  13.399  14.711  0.2374 -0.1450  0.2357
23851W        W40698  10.523  14.827  11.619 -0.0288 -0.2196  0.0898
23852W        W40699   1.865  12.151  14.300 -0.4259 -0.1425 -0.1106
23853W        W40700  10.322   1.114   3.132  0.0805  0.0242 -0.0630
23854W        W40701   0.807  14.299   3.158 -0.0266 -0.0388 -0.1797
23855W        W40702   3.144   7.216   3.613 -0.3659  0.2381 -0.1086
23856W        W40703   9.239   4.394   0.140 -0.0764  0.0406  0.4704
23857W        W40704  13.478   3.198  14.094  0.0963  0.0446 -0.2345
23858W        W40705   4.063  18.123  11.366  0.1052  0.0707 -0.1338
23859W        W40706  15.952   2.871   0.754 -0.1377  0.1051  0.2238
23860W        W40707  16.954  11.947  11.327  0.1849 -0.2518  0.0432
23861W        W40708  18.153   8.849   3.244 -0.0323 -0.0858  0.1710
23862W        W40709   7.678   8.503  13.532 -0.0423  0.5076 -0.0096
23863W        W40710   7.622  11.480  11.077  0.2962  0.1924 -0.0412
23864W        W40711  14.540   9.755  10.920 -0.0616 -0.2270  0.0391
23865W        W40712   3.856   4.532  13.078  0.0062 -0.2460 -0.0149
23866W        W40713  13.244  11.137  10.008  0.0059  0.2500  0.0268
23867W        W40714   4.526   8.087  12.496  0.3045  0.1726  0.0016
23868W        W40715   1.607   8.440   3.704  0.2463  0.0698 -0.0633
23869W        W40716  13.107   7.641   2.956  0.2339 -0.2367  0.1789
23870W        W40717   7.347  11.034  13.368 -0.0711 -0.2442  0.0472
23871W        W40718  18.614  15.128   0.759  0.0888  0.1898  0.0147
23872W        W40719   6.207   7.732   3.382  0.1243  0.0258  0.1715
23873W        W40720  16.065   5.456   1.596 -0.0468 -0.2207  0.2177
23874W        W40721  10.491  17.748   2.515 -0.1678 -0.1148  0.2021
23875W        W40722   5.669  17.681  14.046  0.1123 -0.1836  0.0432
23876W        W40723   1.401  11.811   1.018 -0.0758  0.3149 -0.1089
23877W        W40724   5.693  18.384  15.410  0.2349  0.1035 -0.3030
23878W        W40725   1.156   2.189  11.917 -0.0396 -0.1769  0.4571
23879W        W40726   7.966   7.888   1.156  0.0601  0.1125 -0.0390
23880W        W40727  12.454  12.370   4.943  0.2645  0.3103  0.2574
23881W        W40728   6.947   3.660   2.065  0.0554 -0.1515 -0.0130
23882W        W40729  18.649   5.919  14.167 -0.0289  0.0029  0.1779
23883W        W40730   7.004   2.749  11.603 -0.2085  0.0821  0.1450
23884W        W40731  14.122   3.022   4.734  0.2970 -0.0170  0.0124
23885W        W40732   4.271   1.471  11.946  0.1544  0.0425  0.2025
23886W        W40733   0.142  13.214   5.496 -0.1942 -0.3190  0.0430
23887W        W40734  13.955  14.139   5.087 -0.1421  0.0619 -0.0393
23888W        W40735  14.791  17.047   1.799 -0.1744  0.1608 -0.1942
23889W        W40736   4.274  14.025   0.835 -0.2257 -0.1546  0.0325
23890W        W40737   6.147   2.778  14.500 -0.0358 -0.1375 -0.0415
23891W        W40738  16.569  12.396   4.776 -0.1567  0.0076  0.0013
23892W        W40739   8.499   3.154   2.202  0.0764 -0.0448 -0.3127
23893W        W40740   6.441   6.130  13.051  0.1429  0.1090  0.0234
23894W        W40741   5.883   0.368   3.110 -0.0554  0.0578 -0.1966
23895W        W40742  16.192   9.508  12.689 -0.0650 -0.2547 -0.3935
23896W        W40743   4.014   1.978   2.582  0.1920 -0.5061  0.1125
23897W        W40744  18.300   3.152   3.056 -0.2316 -0.0846 -0.1904
23898W        W40745   3.451   0.671   3.167  0.1146  0.0270  0.1856
23899W        W40746   7.509   0.311  14.735 -0.0781  0.2872 -0.0955
23900W        W40747  12.599  17.700   2.201  0.0448  0.3209  0.0903
23901W        W40748   0.057   9.686   4.533 -0.0588 -0.0989  0.0289
23902W        W40749   6.514  18.172   4.335 -0.0132 -0.0022 -0.0220
23903W        W40750   5.051  13.210   2.540 -0.0799 -0.1943 -0.1884
23904W        W40751  18.325  10.790  12.596 -0.1441 -0.0112 -0.0334
23905W        W40752  18.027   1.368  11.167  0.2939 -0.4013 -0.1089
23906W        W40753  14.079  13.579  10.426 -0.3857 -0.1260  0.1479
23907W        W40754  18.660   0.187  11.897 -0.2117  0.2282  0.2884
23908W        W40755   5.775   1.375  13.191 -0.0205 -0.0343 -0.0520
23909W        W40756  14.397  10.720  12.217 -0.3338  0.0199  0.0192
23910W        W40757   6.191   3.018   3.349  0.1442  0.0116 -0.4550
23911W        W40758   3.210   9.888   1.320 -0.2992  0.2300 -0.1190
23912W        W40759  16.211   1.228  13.425  0.1653  0.1417  0.2214
23913W        W40760   4.978   0.506  12.364 -0.3788  0.1273 -0.0646
23914W        W40761  10.774   2.009  12.463 -0.2805 -0.1817  0.1462
23915W        W40762  14.995  14.107   1.249  0.0136  0.1929  0.2514
23916W        W40763   6.618   6.479  15.350 -0.3760  0.1625  0.0613
23917W        W40764   0.660   2.264  15.302  0.0652  0.2067 -0.1082
23918W        W40765   0.647  11.075   5.772  0.3495  0.1449  0.2987
23919W        W40766   2.615  10.433   3.966  0.3162 -0.0489 -0.0844
23920W        W40767   5.225  12.276  13.823 -0.0230 -0.0221  0.2745
23921W        W40768   2.076   9.313   5.033  0.1036  0.0452 -0.0272
23922W        W40769   4.502   1.524  11.120 -0.2350  0.1013  0.1726
23923W        W40770  17.968  11.268   5.004 -0.2927  0.0530 -0.0156
23924W        W40771   6.393   6.256  12.573  0.1533  0.2748 -0.0087
23925W        W40772  12.925  17.125   3.232  0.1131 -0.4708 -0.0767
23926W        W40773   3.420   9.510  13.651  0.1403  0.0812  0.2824
23927W        W40774  18.150   8.033   1.925 -0.0065 -0.1006  0.1848
23928W        W40775   2.156   0.299   3.583  0.4452  0.1383 -0.0999
23929W        W40776  18.623   5.664   2.979  0.1490  0.1860 -0.1852
23930W        W40777  10.697  14.543   0.452 -0.2288 -0.1761  0.1614
23931W        W40778  18.513   6.819  11.819  0.3516  0.3597  0.0616
23932W        W40779   8.539   8.410   4.944 -0.1023 -0.1700 -0.1039
23933W        W40780  10.598   9.109  13.502  0.0558  0.0343  0.1051
23934W        W40781   0.446   0.851   3.835  0.3069  0.1139  0.3015
23935W        W40782   1.872   6.889  13.885 -0.0341 -0.1143 -0.2764
23936W        W40783  18.647   1.211   9.603  0.0036 -0.0775  0.1613
23937W        W40784   8.355   5.960   2.951  0.1640 -0.0086  0.1531
23938W        W40785   5.841   4.668   5.358 -0.1161 -0.0151 -0.1231
23939W        W40786   3.177   8.745  13.467  0.1987 -0.0404 -0.0696
23940W        W40787  13.102   5.414  13.691 -0.0252  0.1328 -0.2514
23941W        W40788  17.644  17.552  10.429  0.0641 -0.1547 -0.0308
23942W        W40789   0.543  12.155   5.378  0.2795  0.0939 -0.1792
23943W        W40790   0.795   1.866   0.445  0.1255  0.0049  0.1853
23944W        W40791   4.455  15.952  15.336 -0.1245 -0.4381 -0.0463
23945W        W40792  18.589   2.305   1.039 -0.0350  0.0452 -0.0089
23946W        W40793   1.922  11.827   2.357 -0.4047  0.0558 -0.0874
23947W        W40794  18.163   1.999   4.861 -0.1067  0.0785  0.0555
23948W        W40795  10.734   7.562   5.965 -0.2349 -0.0732 -0.1896
23949W        W40796   4.536   6.299   3.422 -0.0087  0.1631  0.2365
23950W        W40797  17.742   6.246  15.209 -0.3466 -0.1525 -0.0113
23951W        W40798  13.883   4.330  11.416  0.2944 -0.1055 -0.0425
23952W        W40799   1.753   8.205  13.582  0.3268 -0.2176  0.1833
23953W        W40800  10.563   9.035   0.226  0.1972  0.3187  0.4473
23954W        W40801  14.129  16.404   4.017 -0.1422  0.2765  0.0100
23955W        W40802   5.571  14.847   0.855  0.0275  0.0295  0.2552
23956W        W40803   3.833   5.027   3.184 -0.0566  0.4475  0.1578
23957W        W40804  12.201  16.934  14.645 -0.1399  0.2752 -0.0185
23958W        W40805  16.156  11.174   0.995  0.1924 -0.0717  0.2824
23959W        W40806   9.553   8.680  15.087  0.4894  0.3545  0.0503
23960W        W40807   5.211  13.324   3.879 -0.0682  0.1646 -0.0054
23961W        W40808   3.386   5.197   4.300  0.1028 -0.0145 -0.0075
23962W        W40809  16.980  10.546   3.996 -0.0837 -0.1073  0.0987
23963W        W40810  10.115  17.863   3.433 -0.0396 -0.1420 -0.1503
23964W        W40811   1.613  15.632  13.015 -0.1941  0.0149 -0.3253
23965W        W40812  18.513  18.443   4.432 -0.1141  0.1015  0.0514
23966W        W40813  17.396   3.851   1.181  0.0375 -0.0419 -0.1780
23967W        W40814  10.911  11.165  12.942  0.2024  0.0761 -0.1097
23968W        W40815  13.225   9.528  12.057 -0.0296 -0.0177  0.1857
23969W        W40816  16.012  11.435  11.521 -0.0276 -0.0318  0.1425
23970W        W40817   1.279   8.494   2.092 -0.1596  0.0381 -0.2070
23971W        W40818   5.681   3.718   2.878 -0.0346  0.2308  0.1460
23972W        W40819  14.851  17.878   0.257  0.0460  0.1882  0.0526
23973W        W40820  12.612  15.184   2.796 -0.0888 -0.1654 -0.1049
23974W        W40821   5.112   5.821  14.813 -0.0051 -0.2314  0.2725
23975W        W40822   6.202   2.642   4.398 -0.0963 -0.0786  0.0716
23976W        W40823  14.489   6.323  12.975 -0.1560 -0.1969 -0.1857
23977W        W40824  12.704   2.829   5.567 -0.0625 -0.0070 -0.0883
23978W        W40825   3.883   1.433  15.320 -0.0457 -0.1672  0.0969
23979W        W40826   2.452   8.927  15.189 -0.0153  0.0539 -0.1964
23980W        W40827   8.457   5.452  13.725  0.1173 -0.2417  0.0021
23981W        W40828  17.248  12.923  15.176  0.1798 -0.4838 -0.1922
23982W        W40829   3.410  10.956   4.431 -0.1074  0.1180 -0.0153
23983W        W40830  15.070  14.816   2.820 -0.0987  0.0799 -0.0906
23984W        W40831  10.066   0.198   6.164 -0.0736  0.1413 -0.0811
23985W        W40832   1.016   4.702   1.435  0.0089  0.2380  0.1684
23986W        W40833   9.652   2.323   5.156  0.2806 -0.1390 -0.3238
23987W        W40834  18.793  17.428  10.216  0.0301 -0.1191  0.2010
23988W        W40835   8.714  10.436  14.352 -0.0443  0.0644 -0.0589
23989W        W40836  17.138  17.049  11.557  0.2070  0.1389 -0.0997
23990W        W40837  18.595   5.471  12.327  0.0385 -0.1350 -0.3041
23991W        W40838   9.429  11.339  13.879 -0.0475  0.0371 -0.1847
23992W        W40839   4.635  10.313  12.062 -0.1260 -0.2698 -0.0196
23993W        W40840  12.798  15.463   4.770 -0.0320 -0.2718  0.2307
23994W        W40841   2.566   4.446   4.328  0.1809 -0.1194  0.2970
23995W        W40842  10.848  14.117   0.662  0.1117 -0.1060 -0.0070
23996W        W40843  13.182   9.723  14.235  0.1037  0.2120  0.0649
23997W        W40844   0.519   1.891   1.099  0.1021  0.0777 -0.0604
23998W        W40845  12.696  18.229   4.221 -0.1504 -0.0990 -0.3285
23999W        W40846  17.291   4.917  12.417  0.0369 -0.0130 -0.2203
24000W        W40847   2.124   0.963   5.101  0.4628 -0.0515 -0.2116
24001W        W40848   4.644   2.524  13.984  0.3356  0.1596 -0.1651
24002W        W40849   9.599  18.528   5.112 -0.2825 -0.0713 -0.0881
24003W        W40850   1.444   6.763  13.686 -0.2367 -0.0625  0.1169
24004W        W40851   6.770  14.636   4.255 -0.0697 -0.0837  0.2054
24005W        W40852   4.901   1.113   1.655 -0.0967 -0.2761 -0.0505
24006W        W40853   9.959  13.634  12.561 -0.1199 -0.2280  0.0424
24007W        W40854   8.954  12.712  15.300  0.0208 -0.2242 -0.0702
24008W        W40855  16.141   1.598  13.797  0.1462  0.1341  0.1925
24009W        W40856  15.535  13.462  14.792  0.4524  0.0286  0.0195
24010W        W40857   9.373   4.917   3.007  0.1264  0.0354 -0.0583
24011W        W40858  17.891   6.378  12.266  0.1536 -0.1495  0.2920
24012W        W40859   9.375  14.513   1.693  0.0111 -0.0898  0.0029
24013W        W40860  13.235  13.155  10.807  0.0728 -0.1267  0.2099
24014W        W40861  10.247  17.303   3.625  0.0041  0.0519 -0.0631
24015W        W40862   8.077   9.065   0.575  0.2367  0.1380  0.1088
24016W        W40863  10.375   0.085  11.389 -0.0436  0.1659 -0.0551
24017W        W40864  14.354  15.548  11.689 -0.2973 -0.0088 -0.3960
24018W        W40865   6.810   1.729  13.623 -0.1444 -0.0995  0.0232
24019W        W40866  11.962   4.800  14.382 -0.1729  0.2834  0.0440
24020W        W40867   2.384   7.615  12.248  0.2608 -0.0974 -0.1400
24021W        W40868  11.722  17.353  15.216  0.1361 -0.0239  0.0308
24022W        W40869  13.967   6.984   5.887  0.1124  0.3499 -0.0591
24023W        W40870  18.451  18.357  15.283 -0.0013 -0.2131  0.4659
24024W        W40871  18.816   9.120   5.032  0.0691  0.1480  0.2287
24025W        W40872   2.280  16.406  12.143  0.0614 -0.4679 -0.2912
24026W        W40873   1.545  12.106  10.928 -0.1013  0.0408  0.0147
24027W        W40874   5.176   4.940   3.978 -0.2481  0.0150 -0.0322
24028W        W40875   2.762  15.186   1.525  0.0622  0.3928 -0.0555
24029W        W40876  18.697   7.506   0.602 -0.0436  0.0383 -0.3196
24030W        W40877   3.758   7.558   5.060 -0.0641 -0.2131  0.0734
24031W        W40878   5.546  16.071   1.533 -0.1807  0.0283 -0.0738
24032W        W40879   5.180  15.529   5.050 -0.0504  0.0506  0.5137
24033W        W40880   4.200  14.129  11.802  0.2357  0.1104  0.0666
24034W        W40881   6.909   2.363   1.743 -0.1559  0.0995  0.0936
24035W        W40882   3.524   7.296   2.076 -0.1317 -0.1836 -0.2219
24036W        W40883  14.286   5.977  13.811  0.0222  0.2067 -0.0963
24037W        W40884  10.990  12.574  14.179  0.1309 -0.0047 -0.1371
24038W        W40885   5.466  16.343  10.775 -0.0747  0.2015  0.0820
24039W        W40886  14.599  17.980   3.596  0.1173  0.0156  0.0481
24040W        W40887   6.669   2.399   0.849 -0.2529 -0.0621  0.1622
24041W        W40888  10.365  12.363  11.312 -0.0061  0.3436 -0.1283
24042W        W40889   7.004  15.735  14.952 -0.4779 -0.1383 -0.0028
24043W        W40890   7.461   8.804  12.746  0.1981  0.2268 -0.0921
24044W        W40891   7.213   8.681  12.194  0.0504  0.0383 -0.1929
24045W        W40892   7.086   0.699   1.733  0.2266  0.0064  0.1060
24046W        W40893   0.175  10.701  13.418  0.1776 -0.4420  0.0201
24047W        W40894   9.353   4.134   5.014  0.0425  0.3788  0.3015
24048W        W40895  13.266  15.806  13.196  0.0094 -0.0203 -0.1355
24049W        W40896   5.323  17.353   4.751  0.1526  0.4112  0.0431
24050W        W40897   0.766  12.598  14.142  0.1733  0.1178 -0.1152
24051W        W40898  14.541  17.012  13.528 -0.0772  0.1476  0.0539
24052W        W40899   8.421  13.860   5.455  0.2574  0.0601 -0.0750
24053W        W40900  10.313  16.476  13.079 -0.0744 -0.0843 -0.2510
24054W        W40901   4.720   0.538   2.581  0.2389  0.0425  0.1883
24055W        W40902   7.977  15.323   3.659 -0.1892  0.0785 -0.1148
24056W        W40903  10.102  11.049  12.545 -0.0773  0.1025 -0.1413
24057W        W40904  15.506   3.946  12.525  0.1022  0.2561  0.0285
24058W        W40905   7.914  14.408  11.258  0.0564  0.0577 -0.0568
24059W        W40906  13.397   3.525  13.305 -0.3957  0.1098 -0.2077
24060W        W40907   1.759  13.591   2.315 -0.1073 -0.0333 -0.0261
24061W        W40908   6.746  15.397  15.283  0.2336 -0.1339 -0.2521
24062W        W40909  12.546   3.480   4.127  0.1115 -0.1929  0.0030
24063W        W40910  16.887  15.493   2.816  0.0197  0.4580 -0.4614
24064W        W40911   5.036  11.450   0.319  0.0812  0.2202  0.0268
24065W        W40912   7.700   2.505  14.944  0.0247  0.0060 -0.0654
24066W        W40913  16.181   9.812  13.117 -0.1363  0.1160  0.1067
24067W        W40914  15.792  12.761   2.780 -0.0441  0.2195  0.0317
24068W        W40915   2.453  10.671   1.451  0.1834  0.1138 -0.4085
24069W        W40916   8.173  13.095  13.653 -0.3616 -0.3893  0.0485
24070W        W40917  13.168  11.604   5.367  0.0468 -0.2135  0.1133
24071W        W40918  11.079   5.004  12.072  0.3141  0.5117  0.0429
24072W        W40919   2.351  10.383   2.753  0.3770  0.0477  0.0768
24073W        W40920   1.781   7.884   1.636  0.0017 -0.0329 -0.1488
24074W        W40921   8.919  15.481   4.886  0.5402 -0.0610 -0.1646
24075W        W40922   6.432   2.517   2.522 -0.0070  0.2757  0.1820
24076W        W40923   8.162   3.095  10.873  0.0222 -0.2339  0.2128
24077W        W40924  17.116  12.650   3.610 -0.3514 -0.1338 -0.3400
24078W        W40925   4.926  12.193  12.245  0.2168 -0.0932  0.0468
24079W        W40926  15.943   5.669  14.812 -0.1569 -0.2519 -0.2582
24080W        W40927  16.746  17.335  10.570  0.3217  0.0862  0.4880
24081W        W40928   0.243   3.250   1.391  0.1748  0.1070 -0.1233
24082W        W40929  16.884  14.504  10.666  0.1970  0.1092 -0.1967
24083W        W40930   5.741   2.825   1.578 -0.0633 -0.0639 -0.0011
24084W        W40931  15.885  12.917  11.634 -0.1445 -0.3246  0.1821
24085W        W40932   2.369  11.324  14.320 -0.0824  0.1550 -0.1174
24086W        W40933  10.699   9.935   5.120  0.2066  0.3408  0.2415
24087W        W40934   1.523   3.335   2.440  0.0114 -0.1266  0.0282
24088W        W40935   8.141   6.355   0.068 -0.2177  0.2504 -0.0260
24089W        W40936  14.039  12.106   1.030 -0.0576  0.0197  0.3124
24090W        W40937   2.491   5.790  12.452 -0.0735  0.2369  0.1135
24091W        W40938   0.085  14.949   9.980 -0.0378 -0.1019  0.4119
24092W        W40939   4.168   2.962   5.050 -0.0695  0.1376 -0.0355
24093W        W40940  15.246  16.513   1.344 -0.0620  0.0764  0.1088
24094W        W40941   7.612  11.828  13.977  0.2180  0.0965 -0.0595
24095W        W40942   8.482   3.447  12.600  0.2774  0.2169 -0.4282
24096W        W40943  16.253  18.168   2.847  0.1262 -0.0719 -0.3731
24097W        W40944   9.776   1.902   3.018 -0.1642  0.3583 -0.1189
24098W        W40945   2.079  18.554  12.533 -0.1035  0.1818  0.3700
24099W        W40946   0.018  11.489   1.768 -0.2561  0.0704 -0.0720
24100W        W40947   9.928  17.260   4.501  0.1555  0.0044 -0.2010
24101W        W40948   9.617   3.013   3.146  0.0005  0.2342 -0.3345
24102W        W40949   6.459  12.805  12.727  0.2851  0.0952  0.1196
24103W        W40950  11.028  12.150  10.514 -0.1632  0.1201 -0.0339
24104W        W40951   5.861  18.593   3.244  0.1348  0.0269 -0.1787
24105W        W40952  18.591  18.407   0.392  0.0635  0.3465  0.0414
24106W        W40953  16.460   1.671   4.185  0.1430 -0.1235 -0.2450
24107W        W40954   0.304   9.953  13.507  0.5055 -0.1855 -0.2916
24108W        W40955   2.139   5.683   4.794  0.0033  0.2767  0.1163
24109W        W40956   2.509   3.854  14.958 -0.2418  0.2095 -0.0627
24110W        W40957  17.161  14.527  12.046 -0.3010 -0.0309 -0.0849
24111W        W40958   4.925   7.525  13.749 -0.1559  0.0889  0.1128
24112W        W40959  16.060  14.785   1.633 -0.1768  0.0530 -0.1587
24113W        W40960  18.001  13.182   3.464  0.1396 -0.2048  0.0682
24114W        W40961   0.284   5.142   5.166  0.0725 -0.2050 -0.0784
24115W        W40962  15.088  14.121  13.477  0.0814 -0.0424 -0.1039
24116W        W40963  11.858  18.019  12.801  0.0668 -0.4270 -0.0159
24117W        W40964  18.600   3.258   1.149 -0.2342 -0.0341 -0.0601
24118W        W40965  12.631  18.273   1.679  0.4494 -0.0131  0.4335
24119W        W40966  14.818   2.843  14.397 -0.3278  0.1049  0.2045
24120W        W40967   8.617  13.788   0.163 -0.3800 -0.1669  0.0190
24121W        W40968   0.092  15.240  13.251 -0.1350  0.0308  0.1158
24122W        W40969  14.408   0.699  14.830 -0.0474 -0.0522  0.1455
24123W        W40970   3.877  13.707   0.079 -0.1653 -0.0248  0.0270
24124W        W40971   3.480  12.547   4.656 -0.1971 -0.0167 -0.4073
24125W        W40972  13.352   3.003  15.499  0.0037 -0.2213  0.1479
24126W        W40973   3.022  17.977   1.997  0.1600  0.0452  0.0515
24127W        W40974   6.907  12.895   3.385 -0.4831 -0.3292 -0.0221
24128W        W40975   0.511   2.651   0.560 -0.2921 -0.1206 -0.1948
24129W        W40976   5.023  10.751  15.316  0.1681  0.0110  0.1346
24130W        W40977   1.897   0.297   0.592 -0.3481  0.3021 -0.0986
24131W        W40978   5.958   6.713   4.380 -0.3388  0.0527 -0.0791
24132W        W40979  12.855  13.595   0.038  0.0015 -0.0716  0.0583
24133W        W40980   0.019  14.638  14.957  0.1777  0.3360  0.1491
24134W        W40981   9.474  10.143   0.724  0.0124 -0.1163 -0.0713
24135W        W40982  17.849   4.743   2.234  0.1919 -0.1319  0.1511
24136W        W40983  13.412   1.571   3.923  0.1950 -0.0837 -0.0698
24137W        W40984  17.604   7.030  13.915  0.2109  0.4223  0.0657
24138W        W40985  16.616   0.854  14.059 -0.2095 -0.0276  0.3155
24139W        W40986   2.422   4.928   5.435  0.3338  0.0679  0.4816
24140W        W40987   2.280  11.994  13.135 -0.0169 -0.0687  0.1475
24141W        W40988   4.955   9.330  14.488 -0.1660  0.0642 -0.0318
24142W        W40989   7.230   4.469  15.468 -0.1137 -0.3550  0.0892
24143W        W40990   8.091  10.543  12.972  0.2036  0.2551 -0.0253
24144W        W40991   3.944   5.875  11.975  0.0474 -0.1229  0.0607
24145W        W40992  12.424   5.782   3.251 -0.1778  0.1507  0.2428
24146W        W40993  12.546  17.064  14.974  0.0249 -0.1108  0.0190
24147W        W40994  13.418   5.271  11.475  0.2369  0.0470  0.1456
24148W        W40995  15.651  16.357  14.561 -0.0112  0.1300  0.1133
24149W        W40996  10.571  12.761   5.153  0.0649 -0.3944  0.2491
24150W        W40997   9.690   4.299   1.298  0.2342  0.4415 -0.1235
24151W        W40998   8.853   8.748  14.136 -0.0537  0.1100 -0.2378
24152W        W40999  13.426  11.795   4.809  0.0462 -0.1136 -0.0973
24153W        W41000  18.005   2.818  15.457  0.2198  0.1444  0.0988
24154W        W41001  16.300   7.257   3.681  0.1128 -0.0715 -0.3048
24155W        W41002  10.160   2.831  11.314  0.0405 -0.1710  0.0827
24156W        W41003   5.607  11.699   1.241 -0.0927  0.1559  0.1256
24157W        W41004   5.576  11.570  15.165  0.5079  0.0023  0.4733
24158W        W41005   2.251   1.761  14.571  0.1457 -0.1047  0.2404
24159W        W41006  13.106   7.746  12.990 -0.2735  0.3705 -0.0502
24160W        W41007  16.555  13.960   0.534  0.0951  0.1529 -0.0789
24161W        W41008   8.780  17.287  12.190 -0.0536 -0.3672 -0.1173
24162W        W41009  17.189  12.401   0.392 -0.0837  0.0956 -0.1031
24163W        W41010   6.336  13.881   3.956 -0.1998 -0.2226  0.0384
24164W        W41011  14.751  13.187  14.090 -0.2451  0.0869 -0.1388
24165W        W41012   4.411   0.653   1.038 -0.0293 -0.1515 -0.0212
24166W        W41013   7.050   9.818   2.629  0.0896 -0.0997  0.3185
24167W        W41014   3.118   8.917  11.739 -0.0626  0.2120  0.2208
24168W        W41015   7.143  12.422  14.927  0.1648 -0.0374 -0.0367
24169W        W41016  11.672  15.033  10.583  0.2566  0.1055 -0.1586
24170W        W41017  12.276  11.152  13.080 -0.1626  0.0768 -0.1138
24171W        W41018  17.897  11.684  11.535  0.0749 -0.0085  0.1579
24172W        W41019   1.744   6.888   0.009  0.0801  0.4098 -0.0354
24173W        W41020  13.053  15.931   2.538  0.2005 -0.0837  0.0940
24174W        W41021   2.938  18.181   1.564 -0.0318  0.2107  0.1791
24175W        W41022   0.100  10.612   4.430  0.0724 -0.0458 -0.0942
24176W        W41023   9.672   9.052   2.497 -0.3327 -0.2746  0.1937
24177W        W41024   3.566   3.490  15.392  0.0539  0.0151  0.2934
24178W        W41025  13.586   3.548  13.776 -0.1270  0.1328  0.2573
24179W        W41026   3.284  13.581   2.475 -0.0924  0.1127  0.2639
24180W        W41027  15.987   1.307   0.601  0.4602 -0.4433  0.0870
24181W        W41028  11.776  14.890   4.035 -0.2321  0.2116  0.2306
24182W        W41029   2.533   9.644   3.012  0.2689  0.0544 -0.0680
24183W        W41030   6.195   8.154   3.100 -0.3747 -0.0343  0.0592
24184W        W41031   5.848   8.417   1.413  0.0994 -0.3202 -0.2448
24185W        W41032   1.045   7.943  14.145  0.1535  0.0394 -0.2974
24186W        W41033   8.271  15.152  14.661  0.3244 -0.1560 -0.0253
24187W        W41034  18.389  10.827  14.871  0.0350  0.1242 -0.1524
24188W        W41035  17.122  11.510  11.086  0.4284  0.0614 -0.1919
24189W        W41036   8.815  17.878   4.780 -0.0235  0.1159  0.1113
24190W        W41037   1.294   0.190  14.530  0.2363 -0.2959  0.1202
24191W        W41038  12.139   7.228  11.372  0.1174  0.0479  0.2480
24192W        W41039  13.387  10.345  12.324  0.0174  0.2101 -0.0330
24193W        W41040   8.723  16.625   3.019  0.3458  0.1596 -0.0813
24194W        W41041  17.446  13.360   4.916 -0.2638  0.0753 -0.0899
24195W        W41042  16.474   7.454  11.342 -0.0323 -0.3381 -0.1528
24196W        W41043   6.486   8.357   5.141  0.1569  0.2753  0.4943
24197W        W41044   6.494   9.468  10.751  0.2427  0.1271  0.0967
24198W        W41045  13.751   7.683   0.250 -0.0014  0.0024  0.1188
24199W        W41046   4.317   7.187   5.077  0.1337  0.0330 -0.2871
24200W        W41047   0.161  14.232   5.239 -0.1372 -0.0031  0.2970
24201W        W41048   8.727   7.731  13.442 -0.0532  0.0128 -0.0695
24202W        W41049   4.047   1.494   1.701 -0.0575 -0.0506  0.2735
24203W        W41050  17.934   0.192  14.794  0.0167  0.1211  0.1605
24204W        W41051  16.562  16.198   2.709  0.1736  0.1292  0.0005
24205W        W41052  12.876  14.107   2.780 -0.0295 -0.2413  0.4100
24206W        W41053  15.532   9.564   2.852  0.1043 -0.0526  0.1709
24207W        W41054   5.263   4.110   3.653  0.0558  0.0801  0.1545
24208W        W41055   5.801   5.722   2.338  0.1039 -0.0585  0.1218
24209W        W41056   0.834   9.229   5.044  0.0195 -0.0518  0.1499
24210W        W41057   1.836   7.351  12.965 -0.1562 -0.0731  0.0936
24211W        W41058  18.580  18.125   2.208  0.0686 -0.0943  0.1334
24212W        W41059   6.483  16.213   3.410 -0.1500 -0.1106  0.1091
24213W        W41060   2.232   9.393  14.366 -0.3099  0.0481  0.0091
24214W        W41061   9.874  11.884   0.138  0.1249  0.0911  0.4562
24215W        W41062  12.983   0.047   3.411 -0.1832 -0.3030  0.0276
24216W        W41063   9.637  11.750  11.432  0.2253 -0.0114 -0.0801
24217W        W41064  15.822  15.791  11.264 -0.4337  0.2202 -0.0302
24218W        W41065   9.202  14.337  11.753  0.1231 -0.1346 -0.1659
24219W        W41066  13.335  16.924  15.412 -0.0613 -0.3243  0.0238
24220W        W41067   5.396   2.167   0.915 -0.4203  0.3407 -0.0086
24221W        W41068  15.554  11.853  13.620 -0.0437  0.1518  0.3560
24222W        W41069  13.969   5.306   1.740 -0.1563  0.0806 -0.0029
24223W        W41070   8.616  13.117  11.080 -0.1251 -0.0218  0.1293
24224W        W41071   1.925  10.323  11.990 -0.0552  0.1861 -0.0384
24225W        W41072   9.449  13.566  11.250 -0.0247  0.3455  0.3265
24226W        W41073  13.522  17.960  12.886  0.0164  0.0349  0.5940
24227W        W41074  14.804   8.137  14.383  0.2114 -0.1229  0.1985
24228W        W41075  10.013   5.503  15.505  0.1845  0.1277  0.3406
24229W        W41076   1.559   2.682  15.334 -0.0053  0.1200  0.4806
24230W        W41077  10.011   3.862  11.902  0.0939 -0.0948 -0.1139
24231W        W41078  15.915  15.346  13.149 -0.1338 -0.3005 -0.0392
24232W        W41079  15.039  11.246   0.483  0.0468  0.0270 -0.0441
24233W        W41080   3.013  16.472   0.717 -0.3600 -0.3266 -0.0547
24234W        W41081  17.505   8.598   2.592 -0.2116 -0.2891 -0.2291
24235W        W41082  11.046   2.247   1.834  0.2011 -0.1326  0.0013
24236W        W41083  16.566   6.043   4.575 -0.2293  0.0014 -0.1594
24237W        W41084   3.446  15.089  15.408  0.0970 -0.0424 -0.1124
24238W        W41085   2.752   5.151   0.290 -0.2599 -0.0651  0.3483
24239W        W41086   2.547  18.309   0.565 -0.0958 -0.2419 -0.1224
24240W        W41087  13.535   6.502  12.144 -0.0635 -0.1632  0.0270
24241W        W41088  12.147   9.249   3.542  0.3582  0.1460 -0.3476
24242W        W41089   2.633  16.793   2.506 -0.0649  0.2261 -0.1840
24243W        W41090   4.248   4.077  14.614  0.2127  0.0716 -0.0888
24244W        W41091   0.519   4.716   0.429  0.4140  0.0569  0.2619
24245W        W41092   7.334   7.469   0.097 -0.2533  0.1113  0.0816
24246W        W41093  17.477   0.521  14.930 -0.1932  0.1820  0.1512
24247W        W41094   9.268  14.072   5.107 -0.1547 -0.1092 -0.1109
24248W        W41095   0.712  15.110  11.985 -0.1275 -0.4010 -0.0536
24249W        W41096   9.010   5.265   3.109  0.0751 -0.0841  0.4128
24250W        W41097  18.280   5.657  13.410 -0.2296 -0.1559 -0.2731
24251W        W41098  16.621  17.374   3.475  0.0424  0.0061  0.1451
24252W        W41099  10.870  16.940   3.851 -0.2285 -0.2792  0.1420
24253W        W41100  17.950   4.186  12.961 -0.1080 -0.2002  0.1185
24254W        W41101  11.597   7.863   0.966 -0.2565 -0.1885  0.0188
24255W        W41102  13.046   2.139  14.789 -0.1127 -0.0914  0.1437
24256W        W41103  14.560  13.026   4.645 -0.0807  0.0892  0.3592
24257W        W41104   7.981  17.745   2.780  0.2589 -0.0258 -0.1410
24258W        W41105   6.435  15.896  12.681  0.1801  0.0608 -0.0081
24259W        W41106   5.107   8.603  13.693  0.2263 -0.1567  0.2447
24260W        W41107   2.860   3.449   1.883 -0.0468 -0.0093 -0.1681
24261W        W41108   0.182   5.475  15.109 -0.0770  0.0259  0.2939
24262W        W41109   7.893   0.117   2.746  0.1996 -0.1158  0.0147
24263W        W41110   2.973   4.953   5.423 -0.1976 -0.0431 -0.0461
24264W        W41111  14.768   8.228  11.016  0.1381 -0.0968  0.0733
24265W        W41112   0.720  13.983   1.190  0.2202  0.1367 -0.2047
24266W        W41113  13.899   2.482   1.528  0.2800 -0.1421 -0.3125
24267W        W41114   1.948  14.769   0.849 -0.0788 -0.3766 -0.4112
24268W        W41115  17.220  10.380  14.128 -0.3455 -0.2874 -0.1101
24269W        W41116  14.351   9.821  12.537  0.0903  0.0922 -0.1236
24270W        W41117   1.284   1.732   2.493  0.1949  0.1914 -0.1931
24271W        W41118   4.601  15.034  14.124  0.1190 -0.1185 -0.0550
24272W        W41119   1.813  16.617   2.283  0.0944 -0.0322 -0.2476
24273W        W41120  17.776  13.142  11.636  0.1805 -0.2022 -0.1354
24274W        W41121   4.654  16.382   9.780  0.4855 -0.2927 -0.1664
24275W        W41122  14.671   7.681  12.119 -0.1265 -0.0977  0.2805
24276W        W41123   0.360   3.330  12.352 -0.1320 -0.1578 -0.2824
24277W        W41124   8.047  11.009  11.755 -0.0133 -0.0440 -0.0127
24278W        W41125   4.222  18.335  14.569  0.2543  0.1047 -0.1408
24279W        W41126   6.659  12.800   2.074 -0.0969  0.0585 -0.1504
24280W        W41127   8.794   7.738   1.706 -0.1126  0.1451 -0.1511
24281W        W41128   5.471  17.797   1.930  0.0420  0.1880 -0.2064
24282W        W41129   9.558   4.017  15.452 -0.4130  0.2135  0.2980
24283W        W41130   2.829   6.507  11.672 -0.4980  0.2738  0.1611
24284W        W41131   9.460  17.197   4.353  0.0595  0.2152 -0.1600
24285W        W41132   1.129   3.419  13.722 -0.0137 -0.1879 -0.0119
24286W        W41133   7.985  12.981  12.826 -0.0752 -0.0398 -0.0132
24287W        W41134   7.493   4.547   0.752 -0.2377 -0.0943 -0.1928
24288W        W41135   6.718   0.837  13.476  0.2006 -0.0660  0.2057
24289W        W41136  12.000  15.711  10.917  0.0498  0.1540 -0.2707
24290W        W41137   3.462  11.255   0.405  0.0465 -0.0665  0.2500
24291W        W41138   6.489   0.623   0.098 -0.3368  0.1160  0.0059
24292W        W41139  14.696   2.939  14.880  0.1848 -0.0229  0.1853
24293W        W41140  15.347   8.632  11.934 -0.2355  0.2447 -0.0133
24294W        W41141  16.750  18.439  14.688 -0.2400  0.0986  0.3562
24295W        W41142  15.579   1.701  13.907  0.1992  0.0321  0.1407
24296W        W41143  14.074   2.588   1.015  0.1780 -0.0845 -0.2049
24297W        W41144  11.123  13.004   4.977 -0.1659 -0.2461 -0.0386
24298W        W41145   8.284   1.820  11.707 -0.0523  0.0937  0.0405
24299W        W41146  13.916   9.624   5.268  0.1447  0.0494  0.0823
24300W        W41147  10.864   1.867   1.476 -0.2799  0.0384  0.2175
24301W        W41148  16.820   9.635   0.517  0.0231 -0.0710  0.0540
24302W        W41149  15.514  18.701  14.944 -0.1262 -0.0974 -0.2597
24303W        W41150  14.951  14.788   1.359  0.0633  0.0271  0.0549
24304W        W41151  12.935  10.169  12.543  0.0029 -0.0059  0.1737
24305W        W41152   7.779  10.694   0.894  0.0501 -0.0318 -0.0659
24306W        W41153   8.501   1.140   3.051 -0.0664 -0.2235  0.2883
24307W        W41154  17.158  18.439   3.329  0.3790  0.2523 -0.2695
24308W        W41155   8.161   8.435  13.973  0.1587  0.2808 -0.3368
24309W        W41156  17.100   4.288   1.148  0.6282  0.0540 -0.1641
24310W        W41157  17.911  10.683   4.836  0.1357 -0.1846 -0.2829
24311W        W41158  18.304  17.774  13.294 -0.0727 -0.0623 -0.2546
24312W        W41159   1.048   8.900   0.170  0.0045  0.0159  0.0732
24313W        W41160   2.933   2.673  12.377 -0.1356  0.0944 -0.0271
24314W        W41161  10.541   0.027   4.608 -0.2935 -0.0440  0.0608
24315W        W41162  12.081  16.202  12.216  0.2996 -0.1268  0.0655
24316W        W41163   4.586   1.728  13.092  0.0277 -0.3263 -0.0741
24317W        W41164  11.475   1.097  14.826  0.1794  0.3696 -0.0266
24318W        W41165   9.905   4.154  15.046  0.1028 -0.1800 -0.1203
24319W        W41166   6.468   1.425   3.720  0.1840  0.0896  0.1110
24320W        W41167   8.700  14.093   5.768 -0.0151 -0.1128 -0.0332
24321W        W41168   4.045  10.000   1.766  0.1174 -0.5064  0.0280
24322W        W41169   5.478   8.750   1.233 -0.0102  0.1010 -0.0877
24323W        W41170   8.516  10.931  11.690 -0.2070  0.1328  0.0739
24324W        W41171  14.462  17.001   2.685 -0.0734  0.0323  0.1405
24325W        W41172   5.917   5.566  14.664  0.1413  0.0677 -0.1057
24326W        W41173  13.410   3.263   5.974  0.0374  0.2756 -0.0628
24327W        W41174   8.717   4.238  12.082 -0.2603  0.1922 -0.1042
24328W        W41175  10.154  18.016   2.253 -0.1338 -0.1753 -0.1357
24329W        W41176   2.052   7.155  14.675  0.1140 -0.0217  0.1092
24330W        W41177   4.821   4.717  15.001  0.3994  0.1463  0.2058
24331W        W41178  12.946  16.867   5.434 -0.2568 -0.1172  0.2161
24332W        W41179   4.937   9.249   1.155 -0.1303  0.1860  0.1138
24333W        W41180   4.275   2.660  14.323 -0.4043  0.0370 -0.1095
24334W        W41181  13.448  16.925  12.589 -0.2718  0.2686  0.1331
24335W        W41182   8.205   8.578   3.961  0.0496 -0.0824 -0.0451
24336W        W41183  17.964   1.162   4.896  0.0075 -0.2106 -0.0174
24337W        W41184   9.299  10.480  14.404 -0.1033  0.0738 -0.2690
24338W        W41185  17.377  14.141   1.350  0.0121  0.0843  0.1606
24339W        W41186  16.007  18.511  11.743  0.3582 -0.0460 -0.1431
24340W        W41187   7.200  13.320   3.545 -0.2622 -0.1384  0.0094
24341W        W41188  12.611   5.146   1.378  0.2500  0.2523 -0.1048
24342W        W41189  14.598   3.177   3.496 -0.3358  0.2201 -0.3548
24343W        W41190  15.436  14.069  13.915 -0.0654 -0.1301 -0.0317
24344W        W41191   6.194  16.530   3.713 -0.1383  0.1095  0.0335
24345W        W41192   9.309   6.221  11.194 -0.2249 -0.0227  0.0303
24346W        W41193   2.174  15.474   4.087  0.2441  0.0043  0.1714
24347W        W41194  17.985   6.978  10.988  0.2824 -0.1327  0.3318
24348W        W41195   9.031   1.950  13.764  0.0413 -0.2341  0.2350
24349W        W41196   7.828   7.268   4.575  0.3986  0.1037 -0.0579
24350W        W41197  11.076  12.438  11.008 -0.0484  0.1348 -0.1392
24351W        W41198  12.809   4.793  14.697  0.0357 -0.2422  0.0939
24352W        W41199  13.578   0.857  15.391  0.1905 -0.4655 -0.0525
24353W        W41200  18.016  16.355   1.168  0.3179 -0.1777 -0.0353
24354W        W41201   1.991  10.407   3.843  0.2052  0.4153 -0.3259
24355W        W41202   5.733   5.320   4.729 -0.0654  0.2305 -0.0762
24356W        W41203  18.127   6.027  12.640  0.1354 -0.0589  0.2788
24357W        W41204  11.900   7.785   0.015  0.0853 -0.1103 -0.2455
24358W        W41205  12.560  18.570   3.332  0.3188 -0.0799 -0.1483
24359W        W41206   5.524   6.514   4.251  0.0599 -0.3089 -0.3209
24360W        W41207   2.296   5.537  13.923 -0.3785  0.1975 -0.2734
24361W        W41208  13.833  18.470   0.317 -0.1977 -0.2066  0.0984
24362W        W41209  16.244   0.025  13.552 -0.0199  0.0608 -0.0002
24363W        W41210   9.974   2.810  13.976 -0.3693 -0.2526 -0.0230
24364W        W41211  15.280  14.826   1.954 -0.2348 -0.1082 -0.1681
24365W        W41212  12.404   7.735  13.595  0.0206  0.3539  0.1176
24366W        W41213   0.070   3.596   4.996 -0.0261 -0.3574 -0.1857
24367W        W41214  13.320   6.985   3.876 -0.2169 -0.0921  0.0591
24368W        W41215   7.767   7.305   3.172  0.3005  0.1463 -0.3451
24369W        W41216  16.680  14.478  14.589 -0.3201 -0.0611  0.2660
24370W        W41217   4.469   1.221  13.133  0.3343  0.2352 -0.0858
24371W        W41218  10.634   9.940   2.565  0.4104 -0.3273 -0.2025
24372W        W41219  17.127   7.158  13.596  0.1202  0.1513 -0.2928
24373W        W41220  15.429  15.687   4.854 -0.1513  0.0437 -0.0349
24374W        W41221  11.753   5.141   5.430 -0.0414  0.2500  0.2045
24375W        W41222  16.033   6.120   3.545  0.0973  0.3555 -0.2150
24376W        W41223   6.034  15.672   1.236  0.0881  0.0728  0.0414
24377W        W41224   1.096  15.963  12.185  0.2268  0.1210  0.2292
24378W        W41225   3.355  15.922   3.695 -0.0063  0.0861  0.0339
24379W        W41226  17.851   2.141   2.987 -0.5129 -0.0873 -0.1252
24380W        W41227   0.877   0.329   2.646 -0.1488 -0.1190 -0.0864
24381W        W41228   8.321  13.356   0.411  0.1660 -0.1257  0.2419
24382W        W41229  17.029  17.998   4.769 -0.1594  0.0490 -0.0339
24383W        W41230   8.362  16.813  14.141  0.1065 -0.0160  0.1788
24384W        W41231  12.344   3.823   0.009  0.1000  0.2698 -0.0327
24385W        W41232  16.295   0.192  12.345  0.1549 -0.2232  0.1335
24386W        W41233   1.615   3.643   0.422  0.0289 -0.2283 -0.1745
24387W        W41234   7.008  11.061   0.385 -0.0105 -0.1193 -0.0102
24388W        W41235  14.426   4.942   3.550  0.0280  0.4442  0.0757
24389W        W41236   4.652   9.494   3.603  0.0702  0.1658  0.1212
24390W        W41237  14.576  15.941  11.952  0.0202 -0.2049  0.0611
24391W        W41238   1.211   6.936   4.527  0.1297  0.1003 -0.0099
24392W        W41239  17.137   8.050  13.701 -0.1251 -0.2002  0.0236
24393W        W41240   0.997  14.716   0.903  0.0425  0.0264  0.0856
24394W        W41241  14.631  17.407   0.037  0.0925 -0.1479 -0.1293
24395W        W41242   2.996   8.104  10.016 -0.0745 -0.0407 -0.0080
24396W        W41243   6.713  13.350  13.453  0.3578  0.1075 -0.0102
24397W        W41244   0.071   2.419   2.773 -0.0583  0.0242  0.2630
24398W        W41245  11.032  18.113   4.576  0.0926 -0.0794 -0.0130
24399W        W41246   9.597   4.825  13.033 -0.3074 -0.1753 -0.0891
24400W        W41247  14.898  12.545   3.705  0.2356 -0.0672  0.0162
24401W        W41248  13.388  10.982   4.137 -0.1285 -0.0056 -0.1943
24402W        W41249  17.960  14.956   5.329 -0.1131 -0.0113 -0.0774
24403W        W41250   4.744   1.812  15.051  0.1875  0.4054  0.1395
24404W        W41251   6.852   8.878   2.677 -0.0658 -0.2930 -0.1184
24405W        W41252  13.127   3.755  13.623 -0.0874 -0.1430 -0.1880
24406W        W41253   8.088   6.565   4.870  0.0558 -0.0805 -0.1135
24407W        W41254  12.084   4.054  11.522  0.0296  0.2175  0.0628
24408W        W41255  16.470  17.818   2.550 -0.1871 -0.0444  0.2762
24409W        W41256  10.257   9.438   4.295 -0.0297  0.1462 -0.0562
24410W        W41257   5.814   1.822  11.067  0.0941  0.1540  0.1620
24411W        W41258   1.115   5.437   4.880  0.3211  0.1300  0.2844
24412W        W41259   0.208  11.765   0.812  0.0811 -0.0380 -0.0963
24413W        W41260  15.618  13.890  11.110 -0.0227 -0.1888 -0.0650
24414W        W41261  11.457   9.874   2.527 -0.2338 -0.0851 -0.0221
24415W        W41262   8.801  16.058  12.004 -0.3654 -0.0511 -0.2143
24416W        W41263  15.511   6.809  11.803 -0.0017 -0.1390  0.1543
24417W        W41264   4.305   0.251   4.070 -0.1148 -0.1262 -0.0064
24418W        W41265   8.476  16.962   2.554 -0.5479  0.1441  0.2804
24419W        W41266  13.373  11.611   1.552  0.5860  0.0079 -0.1445
24420W        W41267   0.758   9.634  11.789  0.2257  0.0253 -0.1296
24421W        W41268  11.984   3.250  12.425 -0.1058  0.0495 -0.0111
24422W        W41269  12.760  18.420   1.207  0.0737  0.2003  0.2412
24423W        W41270   5.492   0.075  10.722  0.1251 -0.4568  0.0320
24424W        W41271   7.335  14.604   3.342  0.3925 -0.1670 -0.0820
24425W        W41272   9.194   5.607   4.535  0.3010  0.0806  0.1896
24426W        W41273   2.224   6.156  12.218 -0.3101 -0.2761  0.0702
24427W        W41274   4.663  16.179  12.493  0.0658 -0.3321  0.0101
24428W        W41275   5.239   9.155   2.698  0.2999 -0.1522 -0.2990
24429W        W41276   3.527  18.552  14.184  0.1554  0.0807  0.0247
24430W        W41277   0.319   0.461   5.220  0.1785  0.3622  0.0619
24431W        W41278   6.961  18.464  10.238  0.1119 -0.3260  0.1100
24432W        W41279  11.056  12.674   4.428  0.1715  0.0894  0.1509
24433W        W41280   2.684  16.271   1.217  0.0573  0.1287 -0.3143
24434W        W41281  13.081  10.374  15.455  0.3599  0.1768 -0.0913
24435W        W41282   3.437  10.003   3.582 -0.3060  0.1580 -0.0250
24436W        W41283   6.917   2.224  13.997 -0.3229 -0.3155 -0.0145
24437W        W41284  11.180  18.282  14.340 -0.2545  0.1202 -0.0410
24438W        W41285   6.207   6.223  14.556 -0.1611  0.1313 -0.2766
24439W        W41286   5.306   9.791  15.513 -0.2949  0.4232 -0.0493
24440W        W41287   5.096   5.048   1.511 -0.1534 -0.0099 -0.0931
24441W        W41288   1.355  12.162  13.091 -0.0413  0.0485 -0.2862
24442W        W41289   8.269  11.666  12.444 -0.2617  0.2583  0.2470
24443W        W41290   3.585  14.735   2.550  0.0927 -0.3482 -0.0902
24444W        W41291  16.850  13.022   2.665 -0.3761  0.0423 -0.1401
24445W        W41292   4.685  17.903  12.626 -0.0136 -0.0976  0.2746
24446W        W41293   1.224  16.244  14.306 -0.0280  0.1576 -0.0479
24447W        W41294  18.256  17.436   0.947 -0.2278 -0.1593 -0.0185
24448W        W41295  15.276   4.780  11.922 -0.0457  0.0675  0.1605
24449W        W41296   0.910  11.656  13.825  0.0153  0.0235 -0.3900
24450W        W41297   1.081   6.103   4.304  0.0345 -0.1220 -0.2374
24451W        W41298   1.453  15.597   0.985  0.0007  0.5080  0.1298
24452W        W41299  11.009   9.271   5.661  0.1289 -0.2703 -0.4190
24453W        W41300   9.569  15.234   2.403  0.0151 -0.0947  0.2979
24454W        W41301   1.338  10.496  14.853 -0.0812  0.1783 -0.1820
24455W        W41302  13.467   7.369   0.505  0.0481 -0.2587  0.0778
24456W        W41303  18.015   9.134   3.693 -0.2434  0.0133  0.0082
24457W        W41304  13.914   4.830   3.608  0.1124  0.0174 -0.1346
24458W        W41305  10.241   1.974  12.781 -0.2983 -0.2992  0.1284
24459W        W41306  16.901  15.359   1.846  0.2110 -0.0787  0.5016
24460W        W41307   1.155  15.090  14.032  0.1127 -0.1284 -0.1022
24461W        W41308   4.688   5.128  13.239  0.0320  0.0045 -0.0408
24462W        W41309   6.944   4.617  12.494 -0.1171  0.1286 -0.1562
24463W        W41310  13.471  11.565  15.468 -0.1519  0.1115 -0.0224
24464W        W41311  10.661   5.525  14.741 -0.1207  0.1923  0.2299
24465W        W41312   0.267  16.490  14.199  0.4236 -0.1365 -0.2363
24466W        W41313   3.871   9.526   1.809  0.1615 -0.0943 -0.4009
24467W        W41314  14.616   9.898   0.142  0.5198 -0.0049 -0.0025
24468W        W41315   7.479  12.429   4.633  0.0871 -0.0319  0.3015
24469W        W41316  15.622  16.892  14.761  0.1985  0.1116  0.0321
24470W        W41317   8.697   9.219  15.522  0.2094 -0.0479  0.4110
24471W        W41318  14.803  12.848   4.288 -0.3125 -0.0573  0.0495
24472W        W41319   7.250  16.136  11.685  0.0936 -0.1408  0.0891
24473W        W41320  17.159   7.902  10.462  0.0009 -0.1569 -0.1123
24474W        W41321   2.243  13.505   5.484 -0.4158  0.0767  0.2032
24475W        W41322   3.621   1.133   1.950 -0.1776 -0.0850  0.1440
24476W        W41323  16.103  15.340   0.082 -0.0970 -0.0440 -0.0789
24477W        W41324  18.649  13.609  12.351  0.0777 -0.1893 -0.1003
24478W        W41325   5.184  15.626   3.470 -0.1674  0.2087  0.2319
24479W        W41326   1.752  11.687  14.435  0.0478  0.0158 -0.0972
24480W        W41327  16.073   6.084  12.563 -0.0704  0.0074 -0.2496
24481W        W41328  18.690  16.717  12.311  0.1718  0.0172 -0.2050
24482W        W41329   8.824   8.827  12.832  0.1015 -0.1524 -0.0341
24483W        W41330  10.005  10.921   2.195  0.1974 -0.3601 -0.4737
24484W        W41331  10.499  15.310   1.632  0.3397 -0.0823 -0.2554
24485W        W41332   2.747   4.515   5.420  0.1790  0.1523  0.1729
24486W        W41333   3.908   0.290  12.347  0.1061  0.0699  0.0831
24487W        W41334   1.848  15.497  13.431  0.0863 -0.1554  0.1584
24488W        W41335  13.246   2.637  10.326 -0.1160 -0.0057 -0.3630
24489W        W41336   9.756   3.908  12.296  0.0019 -0.0981 -0.0159
24490W        W41337  10.850  11.628   1.923  0.0593  0.3093 -0.0263
24491W        W41338   8.779  12.279   3.523  0.0661  0.0093 -0.0148
24492W        W41339   1.456   7.495   1.774  0.2552  0.0075  0.2538
24493W        W41340  16.116  12.756  10.344  0.4656  0.2768 -0.0599
24494W        W41341   6.546  12.381   4.464  0.0872  0.0052 -0.1374
24495W        W41342  10.010  10.252   2.011 -0.1306 -0.0866  0.0308
24496W        W41343   2.496   9.215   1.175 -0.2483 -0.4072  0.0924
24497W        W41344  10.381   7.363   3.058  0.1704 -0.1504  0.2272
24498W        W41345  11.347   9.624   0.153 -0.2386 -0.1480 -0.1866
24499W        W41346   6.175  13.582   2.457 -0.0457 -0.0377  0.3158
24500W        W41347  15.612  17.419   4.583 -0.0100 -0.1859 -0.1425
24501W        W41348   3.536  12.111   2.154  0.0019 -0.2131 -0.3606
24502W        W41349  18.313  13.170  12.202 -0.0900  0.0688 -0.0136
24503W        W41350  13.671   6.690  13.823 -0.1539 -0.2307  0.1519
24504W        W41351   0.183   4.417   0.694 -0.1847  0.2207 -0.0564
24505W        W41352   7.597  14.208   1.097 -0.1567 -0.2986 -0.1381
24506W        W41353  15.846   1.554   5.075  0.1229 -0.0165 -0.1329
24507W        W41354   4.537   2.671   5.222 -0.3853 -0.3399  0.0381
24508W        W41355   1.146  14.999   4.771 -0.0221  0.2457  0.0018
24509W        W41356   6.355   4.152   4.171  0.0231  0.3625  0.1557
24510W        W41357  17.100   7.170  15.387  0.0852  0.0442 -0.2950
24511W        W41358  13.152  14.492   1.475  0.0123  0.0792 -0.0539
24512W        W41359  14.160   9.983   0.369  0.1475 -0.2286  0.1644
24513W        W41360  15.167   9.725  13.032  0.2142  0.0261  0.0699
24514W        W41361  15.308   1.942   1.720  0.0293 -0.2905  0.2679
24515W        W41362   3.327   4.229  11.810  0.1089 -0.2161 -0.2414
24516W        W41363   1.642  13.746  14.137 -0.0372  0.0073 -0.0907
24517W        W41364  12.305  14.969   1.309  0.0243 -0.1420  0.1593
24518W        W41365  11.927   0.016  12.400  0.3115 -0.3970  0.1377
24519W        W41366  13.097  11.269  12.543  0.0158 -0.0232  0.0861
24520W        W41367  15.889   5.620  15.329  0.2575  0.0584  0.1099
24521W        W41368   8.695  16.869   3.456 -0.0127 -0.0203 -0.1479
24522W        W41369   7.757  14.211   5.105 -0.0058 -0.1536 -0.0430
24523W        W41370   9.660   7.995  13.390  0.0039  0.6021  0.0172
24524W        W41371   4.393  15.479   4.259  0.2048  0.0683  0.1507
24525W        W41372  14.329   8.631  15.477 -0.0610 -0.2101  0.1484
24526W        W41373  11.176  13.988   0.988  0.2857  0.0180  0.0566
24527W        W41374  16.423  12.099   5.566  0.1717  0.0029 -0.2565
24528W        W41375   6.456   6.522   5.346 -0.1685  0.0816 -0.3098
24529W        W41376   1.339  10.502   5.586  0.2092  0.1448  0.2487
24530W        W41377  17.491   5.614  12.515  0.0321  0.1710  0.0099
24531W        W41378   5.831  16.036  12.512  0.0070  0.1270  0.2007
24532W        W41379  14.883  16.695   2.411 -0.1605 -0.0661  0.0984
24533W        W41380   6.833   6.874  13.559 -0.2475 -0.0608 -0.0819
24534W        W41381   5.443   0.176   2.106  0.1478 -0.2366  0.2778
24535W        W41382   4.312  14.193  14.154  0.1401 -0.2783 -0.3708
24536W        W41383  16.158   2.469  14.320  0.1007  0.0070 -0.0578
24537W        W41384   0.106   3.883   2.610 -0.0693 -0.2683  0.0483
24538W        W41385   5.665  15.597   0.037 -0.1375 -0.2144  0.0792
24539W        W41386   6.934  14.714   1.474  0.2517  0.0442 -0.0486
24540W        W41387  14.535   3.320   0.446  0.0564 -0.0351  0.3066
24541W        W41388   5.186  11.714  11.198  0.1751  0.0157  0.0247
24542W        W41389  18.066  18.686   4.816  0.1402 -0.1722 -0.2520
24543W        W41390  17.942   3.901  14.397 -0.3456  0.2118  0.2728
24544W        W41391   8.576  12.761   2.739 -0.0228  0.1789 -0.0017
24545W        W41392   2.684   2.577  14.686  0.0409 -0.0463  0.0609
24546W        W41393   1.082  16.405  10.460  0.1853  0.0563  0.0009
24547W        W41394   0.849  13.312   3.359 -0.1057  0.2362 -0.0454
24548W        W41395   5.695  16.880   3.106 -0.0806  0.1991 -0.0909
24549W        W41396  13.376   3.003   2.834 -0.2489 -0.1804 -0.1379
24550W        W41397  12.234  14.373  14.139  0.0581  0.1402 -0.1081
24551W        W41398  11.337   9.533   5.825 -0.0647 -0.4501  0.2908
24552W        W41399  13.984   9.349   1.382  0.0672  0.2138  0.0032
24553W        W41400  17.069  12.015  15.356  0.1491 -0.0380 -0.0829
24554W        W41401  13.236   2.505  14.060 -0.1037 -0.1582 -0.1195
24555W        W41402  18.232  16.622  12.046  0.0913 -0.1284  0.0251
24556W        W41403   9.845  13.326  11.340  0.3279 -0.1196 -0.0319
24557W        W41404  13.983  17.871   5.461 -0.0997 -0.1383  0.2149
24558W        W41405   2.441  17.337  11.046 -0.0149  0.1286  0.0281
24559W        W41406   6.035   3.382  11.527 -0.0619 -0.0168 -0.0611
24560W        W41407   6.835  14.654   3.655 -0.2545 -0.2605  0.0010
24561W        W41408   1.483   7.223  14.598  0.0859 -0.2047  0.2226
24562W        W41409   4.306   7.309   2.105  0.1574  0.0893  0.0605
24563W        W41410  10.798   3.515   0.449 -0.2598  0.0269 -0.0440
24564W        W41411   5.538  11.989  10.522  0.1427 -0.0121  0.1693
24565W        W41412  13.606  16.145  12.954 -0.1645 -0.1374 -0.0781
24566W        W41413  15.617  18.643   4.845 -0.2048  0.0628  0.0345
24567W        W41414   5.548   3.391  11.284  0.0019  0.0471  0.1923
24568W        W41415  17.811  18.282   0.934  0.0215  0.2280  0.1061
24569W        W41416  17.133   4.248  11.926 -0.0505  0.1754  0.1047
24570W        W41417  17.856  16.601   2.432  0.0054  0.2843  0.4377
24571W        W41418   9.760  14.654  15.512  0.1689 -0.1662 -0.0795
24572W        W41419   7.509   7.500  12.013 -0.2023 -0.1517  0.2118
24573W        W41420   6.264   4.676  10.748  0.0746  0.3401 -0.1632
24574W        W41421   2.754  15.759  13.606 -0.3106 -0.0588  0.0517
24575W        W41422   5.866   8.704   2.972  0.1898 -0.1468  0.0195
24576W        W41423  15.502  13.436  13.370 -0.0565  0.1781 -0.1131
24577W        W41424   9.202   8.592   4.026 -0.0055 -0.1498 -0.1092
24578W        W41425  16.832  15.374   5.024 -0.3709  0.0151  0.2095
24579W        W41426  12.942  13.372  15.145 -0.1198 -0.0603  0.0468
24580W        W41427   9.713   8.211  12.949  0.0086  0.0321  0.0531
24581W        W41428  15.150   3.278   1.113 -0.0944 -0.1172  0.1907
24582W        W41429  11.923  12.526   3.836  0.1229 -0.3231 -0.1187
24583W        W41430   4.853  13.670   0.285 -0.1138  0.2153  0.2368
24584W        W41431   2.349   7.564   4.712  0.0401 -0.0493 -0.0567
24585W        W41432  10.517   5.419   5.472 -0.1765  0.2063  0.0369
24586W        W41433   2.972  16.062   0.400 -0.1314 -0.1539 -0.3631
24587W        W41434   6.885   7.114  12.241 -0.0208  0.0438  0.4575
24588W        W41435  13.593  11.826   1.119  0.0540 -0.0745 -0.1378
24589W        W41436   4.457   0.770  11.675  0.1153  0.0617  0.1377
24590W        W41437   1.458  10.577   5.063  0.2704 -0.0975 -0.0792
24591W        W41438   6.541  16.194  14.575 -0.0831 -0.2762  0.2210
24592W        W41439  16.838   9.925  14.887 -0.2519 -0.1993  0.1089
24593W        W41440   8.562  17.796  14.287  0.0484 -0.0570  0.1488
24594W        W41441  17.318   4.312   5.094 -0.1559 -0.1319 -0.1300
24595W        W41442   8.365  12.691   4.662  0.1361  0.2315  0.0211
24596W        W41443  10.452  13.028   3.651  0.0074  0.1258  0.3207
24597W        W41444  12.303   0.736  14.518 -0.0648 -0.0057  0.1990
24598W        W41445  18.369   0.360   3.791 -0.2550  0.0909  0.1559
24599W        W41446   2.496   6.361   1.007 -0.1512 -0.0573  0.0644
24600W        W41447   4.437   2.843  11.201  0.1691  0.1425 -0.2707
24601W        W41448   3.644  17.609   3.373 -0.0726 -0.0334  0.0410
24602W        W41449   4.226  10.336   0.877  0.1380 -0.0113 -0.0322
24603W        W41450  10.388   6.475   5.868 -0.0634  0.3436 -0.0072
24604W        W41451  16.702  14.497   5.030 -0.1256 -0.1588  0.1919
24605W        W41452  18.481  16.125   1.143 -0.0130  0.5085  0.1394
24606W        W41453   4.131   1.045   1.943 -0.0109 -0.0898 -0.4449
24607W        W41454   4.540   6.912   4.046 -0.1252  0.0217 -0.0733
24608W        W41455  16.768   4.020   0.708 -0.1436 -0.2184 -0.0071
24609W        W41456  15.893   1.335   1.942  0.0465  0.3913 -0.3326
24610W        W41457   0.992  17.203   4.644  0.1829  0.0472  0.1285
24611W        W41458   7.911  15.353  12.624 -0.0951 -0.0273  0.2626
24612W        W41459   4.351   4.816   4.544 -0.0902  0.1042 -0.3825
24613W        W41460   6.948   3.206  11.483  0.1514  0.0504  0.3524
24614W        W41461   5.406  13.339  12.837  0.0386 -0.0983 -0.2707
24615W        W41462   2.634   2.954  12.683  0.2366 -0.1487 -0.1698
24616W        W41463  10.461  18.240   0.371  0.1347 -0.0393 -0.1448
24617W        W41464  17.200  14.685   1.318 -0.1283 -0.2429 -0.3507
24618W        W41465   9.930  11.359   4.416 -0.1764  0.2010  0.0329
24619W        W41466   4.622  13.333   1.241 -0.2145  0.1689  0.2026
24620W        W41467  12.625   2.797  12.002 -0.3320  0.1640 -0.1204
24621W        W41468   8.153   8.736   5.568  0.0498 -0.0032 -0.1802
24622W        W41469  16.543   5.527   3.917 -0.1113 -0.0363  0.1117
24623W        W41470  15.948  11.409   0.475  0.1472  0.0327 -0.1631
24624W        W41471   7.338  16.032  13.756  0.1110 -0.0550  0.1371
24625W        W41472   5.079   2.209  14.885  0.0880  0.0890  0.1916
24626W        W41473  13.514   3.908   2.774  0.0186  0.1688 -0.0754
24627W        W41474  16.227  16.319   3.669  0.0270 -0.0012 -0.2356
24628W        W41475  11.516  15.955   3.016 -0.2492  0.1465 -0.0350
24629W        W41476  18.665  14.391  12.178 -0.0073  0.0626 -0.0916
24630W        W41477   8.303  10.002   0.812 -0.1152  0.1345  0.1974
24631W        W41478   5.179   0.888   1.256  0.0251  0.1198  0.0651
24632W        W41479  10.664  18.537  12.806  0.3836  0.0409 -0.3079
24633W        W41480  13.514   1.280  13.696 -0.0275 -0.1507  0.3487
24634W        W41481   8.738  15.015   0.617  0.0804  0.1129  0.2334
24635W        W41482   7.867   9.659   0.974  0.0756  0.1489  0.1265
24636W        W41483  13.168  18.438   4.321  0.0048 -0.0349  0.1939
24637W        W41484   1.795   7.729  11.943 -0.1737 -0.2092  0.1184
24638W        W41485  12.784  15.406  13.532 -0.0039 -0.2100  0.0937
24639W        W41486  11.158   0.310   0.850 -0.2000 -0.1463 -0.0095
24640W        W41487  14.375   1.378   0.887  0.1870  0.0253 -0.0390
24641W        W41488   3.865   0.122   2.703  0.1351 -0.2880  0.1826
24642W        W41489  11.700   5.852   1.728 -0.0166  0.0694  0.1430
24643W        W41490   9.047  10.104  11.554 -0.1744  0.1356  0.0748
24644W        W41491   9.933   5.150  12.907  0.1878  0.0416  0.0312
24645W        W41492   9.820   2.720   1.822  0.1209  0.0170 -0.1248
24646W        W41493  14.317   2.565   5.254  0.2463 -0.1109  0.0386
24647W        W41494   5.700  12.972   4.537 -0.1492  0.0124 -0.2234
24648W        W41495   1.019   0.923  12.661 -0.2133  0.0275 -0.1031
24649W        W41496   3.029   2.223  13.601  0.0651 -0.3068  0.0711
24650W        W41497  16.808  11.952   4.643 -0.3317  0.2848  0.0594
24651W        W41498  11.338   7.265  10.112  0.0079 -0.1149 -0.0026
24652W        W41499   2.396  18.117  12.380 -0.1055 -0.2960 -0.0633
24653W        W41500  13.209   3.121  14.485 -0.2583 -0.1413 -0.0865
24654W        W41501   4.059   7.148  11.358  0.3647 -0.3532 -0.2310
24655W        W41502   3.547  15.008   3.601  0.0884  0.2151  0.1879
24656W        W41503  12.283   1.130   6.083  0.0796 -0.0255  0.4096
24657W        W41504   0.013   9.899  11.252 -0.1088  0.1642  0.1375
24658W        W41505   5.586   5.174  14.429  0.3173  0.0160  0.1196
24659W        W41506   5.998  11.004  15.518 -0.0656  0.0101  0.3487
24660W        W41507  15.506   9.631   4.106  0.0118 -0.4712 -0.2855
24661W        W41508   8.055  12.606  10.573 -0.0845 -0.1354 -0.2697
24662W        W41509   4.423  12.259   2.459 -0.1252  0.4107  0.0468
24663W        W41510   9.308   0.234   1.401  0.0284  0.2057 -0.4554
24664W        W41511   0.546   4.831  11.068 -0.1656 -0.2161  0.3634
24665W        W41512  12.445  13.477  11.851  0.1654  0.0511 -0.0105
24666W        W41513   9.859   5.994  11.030  0.0752  0.1126  0.1038
24667W        W41514  13.169   8.415   2.265 -0.0743 -0.0150  0.1114
24668W        W41515  17.294   4.564  13.468 -0.3599 -0.0530  0.2387
24669W        W41516   4.537  13.853  11.191  0.2596 -0.1088 -0.0030
24670W        W41517  12.026   4.747   5.202  0.1735 -0.0935  0.1263
24671W        W41518  11.948  14.626   0.166  0.1151 -0.1187  0.1527
24672W        W41519   5.663   1.325   0.699 -0.1560  0.0745 -0.0141
24673W        W41520   3.709   0.228   3.980  0.0320  0.0323  0.1438
24674W        W41521  10.053   0.874   0.926  0.2365  0.1728 -0.1684
24675W        W41522   7.427   9.091  14.070 -0.1783 -0.0145 -0.1223
24676W        W41523   1.738  10.843   3.829  0.0278  0.2764 -0.1481
24677W        W41524   7.485  15.458   3.702  0.0543  0.2382 -0.1462
24678W        W41525   1.444   1.283  11.025 -0.1243 -0.1481  0.2293
24679W        W41526  14.052   9.356  12.927 -0.0782 -0.1620 -0.0716
24680W        W41527   2.051   3.541   2.468  0.0667  0.0839  0.0300
24681W        W41528   6.470  10.690  13.011 -0.0707 -0.0208 -0.0358
24682W        W41529   2.985  17.737  11.751 -0.1144  0.2382  0.0590
24683W        W41530  18.054   6.961   1.995 -0.0292 -0.0030  0.0121
24684W        W41531  15.658  17.719  11.390  0.0235 -0.2928  0.1175
24685W        W41532   4.946   2.492   3.583 -0.0191  0.1136 -0.2628
24686W        W41533  12.247  12.231  12.287 -0.1063 -0.2170 -0.2011
24687W        W41534  16.472  12.223  11.111 -0.0344  0.2559  0.1381
24688W        W41535  18.515   5.696   0.137  0.0821  0.0756 -0.0464
24689W        W41536   3.714   3.775   3.910 -0.2761  0.1906  0.0781
24690W        W41537  17.221  15.138   0.901  0.1552 -0.1224 -0.3619
24691W        W41538  12.365  16.658  13.281  0.0046  0.1770 -0.2076
24692W        W41539   1.734  11.143  12.884  0.3344 -0.0116 -0.1076
24693W        W41540  14.149  16.001  11.644 -0.0490  0.2128 -0.0293
24694W        W41541   5.010  13.500  14.559  0.0993  0.0114 -0.3575
24695W        W41542  13.895   6.796  14.291  0.2200 -0.1188  0.0924
24696W        W41543   6.564  13.802  12.202 -0.1435  0.1261  0.5276
24697W        W41544  15.301  11.178   2.397  0.0193 -0.1791 -0.0071
24698W        W41545   2.715  13.980   3.889 -0.0498  0.0590  0.1721
24699W        W41546   2.619  12.517   4.377 -0.1588  0.2011  0.1374
24700W        W41547  15.412  17.662   2.685  0.1359  0.2800 -0.1763
24701W        W41548   5.245   4.287  12.765 -0.0736  0.2221 -0.0682
24702W        W41549  13.912  14.409   4.168 -0.0228  0.2395 -0.0561
24703W        W41550  12.175   4.230  12.273 -0.0673  0.0527 -0.1212
24704W        W41551  17.169  15.353  14.528  0.1150  0.0033  0.2447
24705W        W41552   1.016   3.959   1.117 -0.1298 -0.1561 -0.0516
24706W        W41553  16.315   4.112  15.466  0.2262  0.1275  0.0831
24707W        W41554   1.845  17.004   4.184 -0.1326  0.0326 -0.0982
24708W        W41555   9.572  15.841   4.439  0.0642  0.0183 -0.2234
24709W        W41556   3.211  16.966   2.122  0.2709 -0.2323  0.1123
24710W        W41557   7.294  10.023  13.134  0.1847 -0.0618  0.0980
24711W        W41558  16.422   6.947  13.513 -0.3241  0.3525  0.0494
24712W        W41559   4.777   2.493   9.980 -0.2646  0.2987  0.2489
24713W        W41560  12.682  18.010  12.219  0.1289 -0.2783  0.1385
24714W        W41561  10.968  18.636   0.794 -0.1130  0.0371 -0.0181
24715W        W41562   8.320   5.525  12.885  0.1090  0.0043 -0.0004
24716W        W41563   4.888   3.128  15.375 -0.1410  0.0715 -0.0226
24717W        W41564   5.033  13.335  15.544 -0.4237  0.2742  0.0734
24718W        W41565   8.440  10.353   3.153 -0.2120 -0.0722 -0.1822
24719W        W41566  13.182  10.690  11.412  0.2056 -0.0123  0.2432
24720W        W41567  17.513   9.381   0.942  0.0012 -0.2831  0.1412
24721W        W41568  11.639  17.700  14.800  0.3403  0.1872 -0.0708
24722W        W41569  16.173   1.549   6.229 -0.2267  0.0629 -0.0537
24723W        W41570   1.412   2.524   4.351  0.0790 -0.0728 -0.0549
24724W        W41571  15.501   2.554  15.157 -0.3984  0.0624  0.1893
24725W        W41572  13.922   6.181  13.566 -0.2181  0.1435  0.0169
24726W        W41573  15.801  13.993   5.333  0.1948  0.1346 -0.1924
24727W        W41574  10.855  17.010   4.373 -0.0528  0.1737  0.1477
24728W        W41575   9.561  12.619   1.745  0.2092  0.2523  0.4291
24729W        W41576  13.161   5.314  12.442 -0.0358  0.0623  0.0582
24730W        W41577  12.251  10.838  12.064 -0.2069 -0.1999  0.0331
24731W        W41578   3.677   1.659   2.725  0.0876 -0.0499 -0.0131
24732W        W41579   9.199  16.400   3.012  0.0396 -0.2385  0.0795
24733W        W41580   2.760  16.492   4.979 -0.0591  0.0769  0.0515
24734W        W41581  10.226   8.377  11.718  0.3051  0.1496 -0.1454
24735W        W41582  16.123  17.524   4.481 -0.1880  0.1655 -0.2725
24736W        W41583   1.916   0.082   2.557  0.1584  0.1467  0.1093
24737W        W41584  17.134   2.355   2.098 -0.3551 -0.3927  0.2031
24738W        W41585  14.428   3.360   4.461  0.2865  0.2311  0.0357
24739W        W41586   9.505  16.035  14.442  0.4098 -0.2321 -0.0672
24740W        W41587   8.120   9.031  11.498  0.0271 -0.0740  0.1221
24741W        W41588  12.111  11.791  14.165  0.2311  0.2178 -0.1692
24742W        W41589  16.173  15.907   2.127 -0.0436 -0.0702 -0.0226
24743W        W41590   7.171   5.937   0.641 -0.1555  0.1876  0.0824
24744W        W41591   8.343  12.956  12.480  0.1333 -0.1786 -0.1927
24745W        W41592  12.775   0.949  11.472 -0.2280 -0.2358  0.1218
24746W        W41593  15.908   4.928  13.796  0.1541 -0.1401  0.0324
24747W        W41594   4.315  14.709  11.717  0.1920 -0.0469 -0.2250
24748W        W41595   9.472  10.932   0.260 -0.0360 -0.1676  0.3213
24749W        W41596  12.467   9.647   3.179 -0.1155 -0.3002 -0.0975
24750W        W41597   0.148  13.631   5.030  0.0935 -0.1097 -0.1142
24751W        W41598   7.731  18.456   3.495  0.0387  0.2538 -0.0714
24752W        W41599  18.492   0.917  14.448 -0.0692 -0.1011  0.1931
24753W        W41600   2.318   5.297  15.278 -0.1871 -0.2814 -0.0892
24754W        W41601   1.911   5.229  13.897 -0.1133 -0.0640  0.0201
24755W        W41602  16.283  18.492   4.404 -0.3473 -0.2835  0.0820
24756W        W41603  10.717   4.462   5.218 -0.1178 -0.0310  0.0511
24757W        W41604   1.188  12.810  15.174 -0.1359 -0.0680 -0.3142
24758W        W41605   3.249  18.328   3.951  0.2192 -0.1485  0.1337
24759W        W41606  11.617   6.610  11.687  0.3278 -0.0444 -0.1330
24760W        W41607   7.119   2.369   4.229  0.1952 -0.1153 -0.0475
24761W        W41608  17.282  14.665  14.078  0.0238  0.0605 -0.0136
24762W        W41609  10.676  18.709   0.341 -0.3110 -0.2941 -0.3059
24763W        W41610  15.719  13.972   2.863 -0.4186 -0.1388  0.0947
24764W        W41611   5.946  17.607  10.814 -0.0734 -0.0540 -0.1467
24765W        W41612  17.634   3.166   2.167 -0.0866  0.0835  0.0628
24766W        W41613  10.965   5.323   5.175  0.0071 -0.0232 -0.0486
24767W        W41614  15.229   4.556  14.242  0.1972 -0.2904  0.0266
24768W        W41615  12.711  10.586  11.651 -0.2249 -0.1758  0.1604
24769W        W41616  17.537  10.242   3.162  0.0622 -0.0398 -0.1665
24770W        W41617  14.522  18.707   1.247 -0.3380  0.1155  0.0268
24771W        W41618   9.224   3.078   1.557  0.2515  0.2784  0.1087
24772W        W41619   0.049  18.175  12.349 -0.0359 -0.0736  0.1219
24773W        W41620  16.278   9.295  10.728  0.2145 -0.1464 -0.4586
24774W        W41621   5.221   9.235  10.785  0.0245 -0.3013 -0.4802
24775W        W41622   8.004   3.951   3.789  0.1611 -0.1782 -0.0009
24776W        W41623  14.687  16.416  11.654 -0.1018  0.1721  0.0905
24777W        W41624  17.403   4.090   3.076  0.0140 -0.1156  0.0189
24778W        W41625  11.517   4.468   0.665 -0.0763  0.0909 -0.0410
24779W        W41626   9.452  13.757   0.656 -0.0664 -0.0945  0.4247
24780W        W41627  14.198  15.137  11.543  0.1365  0.1018  0.2559
24781W        W41628   9.963  12.204   5.594 -0.0796 -0.0738  0.0401
24782W        W41629  12.385  10.260   4.450 -0.1945 -0.0154 -0.2216
24783W        W41630  11.078   9.229   2.904 -0.0941 -0.0219 -0.0296
24784W        W41631  11.650  17.478  13.438  0.4970  0.1048  0.0632
24785W        W41632   4.819   6.062   3.782 -0.0837  0.0060 -0.1425
24786W        W41633  12.890  15.832   1.267  0.0180  0.2027 -0.2020
24787W        W41634   8.869   5.460  14.132 -0.2651 -0.1617 -0.1188
24788W        W41635  10.763  10.811  15.372  0.0051 -0.2619 -0.1172
24789W        W41636  13.027  11.969   4.474 -0.2512 -0.3020  0.2653
24790W        W41637   6.706   0.542  14.198  0.0246  0.1711  0.1030
24791W        W41638  12.112  16.473   5.105  0.2214  0.2967 -0.1024
24792W        W41639  11.171  14.085   2.799 -0.0022  0.1186 -0.2524
24793W        W41640  18.364  18.166  12.222 -0.2927 -0.2168 -0.1217
24794W        W41641  15.740   2.993   5.239  0.3766  0.0803  0.0230
24795W        W41642  10.709  14.319  15.300 -0.0790 -0.1576 -0.0717
24796W        W41643   9.770   9.973   0.182 -0.0047 -0.1262  0.0003
24797W        W41644   3.408   2.819  11.228  0.0364  0.0428 -0.0800
24798W        W41645  15.633  16.434   4.215 -0.0758 -0.1674 -0.1938
24799W        W41646   5.070   8.998  14.856  0.2817 -0.0048  0.0688
24800W        W41647  10.553  10.751  10.927  0.1810 -0.1285  0.1155
24801W        W41648   2.797   1.542  11.516 -0.0676 -0.2557  0.0885
24802W        W41649   4.499   1.249   4.625 -0.2607 -0.3260  0.0528
24803W        W41650  18.393  14.616   3.834  0.3454  0.0279 -0.0903
24804W        W41651  17.995   4.172  12.354 -0.1361  0.0179  0.0426
24805W        W41652   6.076   6.270   2.243 -0.1688 -0.2110  0.1751
24806W        W41653  10.766  11.874   5.873  0.0239  0.1087 -0.1466
24807W        W41654  16.612   6.222  12.408 -0.1589 -0.2337 -0.1453
24808W        W41655  18.182   3.438  13.302 -0.1133 -0.1629 -0.1395
24809W        W41656  10.709  10.240  10.814  0.1725  0.0453  0.1842
24810W        W41657   4.903   7.936  14.472  0.0974 -0.4008  0.3062
24811W        W41658  15.414   8.172   3.178 -0.3197 -0.2093  0.0531
24812W        W41659  14.709   5.956   1.570  0.0190 -0.1640  0.1367
24813W        W41660  13.259  14.692   5.829  0.0953 -0.1604  0.0235
24814W        W41661  16.092  15.861   3.886  0.2692 -0.2938 -0.2998
24815W        W41662   1.371  14.953   0.536  0.0339  0.1886 -0.1528
24816W        W41663   3.007   0.372  14.011  0.0528  0.1048 -0.1283
24817W        W41664  15.552   0.848   0.192 -0.0689  0.1521 -0.1448
24818W        W41665  16.128  12.535  14.734 -0.1589  0.2578 -0.0891
24819W        W41666  16.316   1.272  15.228  0.3189  0.1763  0.2652
24820W        W41667  16.006   9.731   0.173 -0.2440 -0.0863  0.2203
24821W        W41668  14.246  14.512   0.924  0.1718 -0.1710  0.1870
24822W        W41669  18.653   1.569  14.271  0.3779 -0.2999 -0.1162
24823W        W41670  15.793   3.432  14.106 -0.1411  0.0436 -0.1018
24824W        W41671   5.200   9.659   0.494 -0.2309  0.0003  0.0715
24825W        W41672  12.904   1.384   3.722 -0.0174 -0.1408  0.0495
24826W        W41673  15.851  18.356  10.980 -0.1575  0.0689 -0.3568
24827W        W41674  18.306  15.645  13.062 -0.1873  0.1633 -0.0752
24828W        W41675  15.393  11.421  11.525 -0.0513 -0.1835  0.1473
24829W        W41676  18.619   8.768  13.143 -0.1019  0.1266 -0.0898
24830W        W41677   1.835  11.055   4.431  0.3096  0.2671  0.1729
24831W        W41678  14.275   3.829   4.427 -0.1723 -0.2669 -0.0528
24832W        W41679  17.032  11.253  13.659  0.1680 -0.1973 -0.3803
24833W        W41680  11.540  10.224  10.709 -0.0885  0.2873 -0.1103
24834W        W41681   4.344   4.967  10.670  0.0904 -0.1429  0.0321
24835W        W41682  13.698   9.770  10.986  0.0905 -0.1362  0.1554
24836W        W41683   0.071   1.399  11.540 -0.4641  0.2403 -0.3269
24837W        W41684   9.489   3.924   0.397  0.1490  0.0428  0.1399
24838W        W41685  13.915  10.978   4.339 -0.0242 -0.2495 -0.2062
24839W        W41686  18.512  13.197   4.321  0.0481 -0.1290 -0.0205
24840W        W41687   6.947  13.091   0.639 -0.0884  0.0021 -0.2089
24841W        W41688  12.607  16.367   0.225  0.0809 -0.2058  0.1298
24842W        W41689  14.060  12.062   1.550 -0.1505  0.0110 -0.4347
24843W        W41690   4.051   8.465  13.666  0.0884 -0.0949 -0.0263
24844W        W41691   7.324   2.829   4.534  0.1657  0.4062 -0.1091
24845W        W41692   5.150  13.155   1.115  0.0105  0.1386 -0.0745
24846W        W41693   8.640  17.812  12.872 -0.0290  0.0805 -0.1224
24847W        W41694  13.287   2.633   2.466  0.0573 -0.0930 -0.1340
24848W        W41695  13.937  15.326   5.294 -0.0902  0.1327 -0.0799
24849W        W41696  16.999   9.874  11.885 -0.1825 -0.0272  0.1340
24850W        W41697  15.385   7.384  13.778 -0.3684 -0.0524  0.1461
24851W        W41698   5.742   5.475   0.402  0.0797 -0.1527 -0.3682
24852W        W41699  11.895   6.620   2.210 -0.2015  0.4022  0.3867
24853W        W41700   4.544  18.416   1.970  0.0480 -0.1165  0.0705
24854W        W41701   7.234   1.978   1.232  0.0180 -0.3130 -0.0013
24855W        W41702   8.917  12.815  10.725 -0.1570 -0.0483  0.2706
24856W        W41703  11.603  15.565  10.596  0.0603  0.1440  0.0407
24857W        W41704   1.491   4.044   5.331  0.2526  0.0746 -0.1477
24858W        W41705   9.062  13.031  13.449 -0.1092  0.0002  0.2385
24859W        W41706   4.475  14.752   1.618  0.3217  0.0695 -0.0636
24860W        W41707   3.558   6.187   1.840 -0.2020 -0.2248  0.0687
24861W        W41708   6.754  15.876  11.215 -0.0070 -0.0828  0.0902
24862W        W41709   5.698  12.183   4.560 -0.0414  0.0558 -0.1444
24863W        W41710  12.396  16.065  11.849  0.0247  0.1883  0.0942
24864W        W41711   2.984   9.410   0.386 -0.2547  0.0135 -0.2219
24865W        W41712   9.345   1.700  11.762  0.0245  0.1308  0.1776
24866W        W41713   0.595   0.641  12.580 -0.1470 -0.0525 -0.0660
24867W        W41714  13.759   6.887   4.477  0.0523 -0.1219 -0.1184
24868W        W41715   3.249   5.414   2.208  0.1103 -0.0620  0.3642
24869W        W41716  15.430   1.769  10.808 -0.1988 -0.0772  0.0430
24870W        W41717   0.956   6.662   0.800 -0.3756  0.1302  0.1423
24871W        W41718   1.586  13.835  11.631  0.0506 -0.2311  0.1304
24872W        W41719  11.341   1.576  14.258  0.0356  0.3236 -0.1159
24873W        W41720  14.864  13.979   3.373 -0.1246 -0.2048  0.0932
24874W        W41721  11.626  14.973   2.910  0.3758 -0.1190  0.1565
24875W        W41722   3.811   3.280  12.850 -0.0182 -0.6263 -0.0322
24876W        W41723  13.171  16.226  13.445  0.1446 -0.1270 -0.3051
24877W        W41724  15.669  16.922   0.951 -0.0166 -0.1588 -0.0852
24878W        W41725   1.175  13.827   2.483  0.0266 -0.3474 -0.0379
24879W        W41726  12.987  12.890  15.031  0.2679  0.1484  0.2333
24880W        W41727   2.662  14.374  11.854  0.0738 -0.1849 -0.1976
24881W        W41728   8.595  11.563   3.744 -0.1404 -0.0642 -0.0681
24882W        W41729  14.229   6.572  14.572 -0.1642 -0.0159 -0.0924
24883W        W41730  12.834   3.532  15.501 -0.2365  0.1390 -0.3608
24884W        W41731  17.653   8.976   2.918 -0.2187  0.1478  0.0923
24885W        W41732   7.642   9.249  13.531  0.1048 -0.3044  0.0448
24886W        W41733  11.324   9.499  13.634 -0.0471  0.4091 -0.1484
24887W        W41734  15.657   7.514  11.045  0.1646 -0.4406 -0.2291
24888W        W41735  11.515   8.072  13.234  0.1592  0.0125  0.0626
24889W        W41736   8.871   7.243   3.190 -0.1807  0.2478 -0.0033
24890W        W41737   3.594  17.436  15.028  0.1475 -0.2078  0.2744
24891W        W41738  15.443   2.427   1.635 -0.0089 -0.0752  0.0130
24892W        W41739  12.698  15.635  12.623  0.2220 -0.1564  0.0967
24893W        W41740   7.817  10.024   0.577 -0.2668  0.0780  0.2134
24894W        W41741   5.404   3.208   1.672 -0.2413 -0.2895 -0.1151
24895W        W41742   1.400  15.463   4.667 -0.0646 -0.1594 -0.0235
24896W        W41743   7.501  12.541  13.539 -0.2078 -0.0066  0.0267
24897W        W41744   4.708  15.383   1.015 -0.2170 -0.0253  0.2396
24898W        W41745  17.308  16.948   1.877 -0.1428 -0.0625 -0.0731
24899W        W41746   5.326  14.641   3.833 -0.0372 -0.0308 -0.0174
24900W        W41747   6.283   9.572  11.980  0.1505 -0.3259  0.1479
24901W        W41748   0.362   9.087   5.346 -0.0357  0.1628  0.2328
24902W        W41749   8.299  12.651   2.309  0.1715  0.0932 -0.0097
24903W        W41750   5.147   5.508  13.550 -0.2081 -0.0850 -0.1262
24904W        W41751   9.282   1.223  14.174  0.1234  0.0406  0.0822
24905W        W41752  16.262   3.969  12.150  0.1249  0.0103 -0.1039
24906W        W41753  12.606   6.743  12.784 -0.1069 -0.0813 -0.0458
24907W        W41754   9.031   2.783   1.114  0.2574 -0.1056 -0.0531
24908W        W41755  12.258  10.132   3.095 -0.1018  0.3245 -0.3927
24909W        W41756  11.451  12.209   0.664 -0.2310 -0.2465  0.1190
24910W        W41757  18.743   1.962  12.428  0.1719  0.2789 -0.1669
24911W        W41758  11.448   6.497   3.069 -0.0038 -0.1178 -0.1638
24912W        W41759   4.734  17.296  13.419  0.2233  0.0943  0.2196
24913W        W41760   2.828   4.945  10.703 -0.2820  0.0046 -0.0169
24914W        W41761   4.044  13.124   2.467  0.5070  0.2894  0.0652
24915W        W41762   1.687   6.224   1.783 -0.0020  0.1408 -0.1404
24916W        W41763   8.185  12.292  13.259  0.2109 -0.2932  0.2015
24917W        W41764  12.231   0.713  15.361  0.1833 -0.3100 -0.0149
24918W        W41765   8.822   5.431  14.770 -0.5086  0.2459  0.0664
24919W        W41766   2.055   8.250  11.790  0.1929 -0.0671  0.1107
24920W        W41767   1.429  10.891  14.174  0.1473 -0.2673 -0.2993
24921W        W41768  17.878   6.390   4.189 -0.4497 -0.0499  0.1325
24922W        W41769  14.731   4.652   3.172 -0.0886  0.0648  0.3647
24923W        W41770  14.988   4.154  12.646  0.0324 -0.1204  0.0848
24924W        W41771  17.317  12.157  11.001  0.0312 -0.2281  0.0461
24925W        W41772   5.994   2.080   5.022 -0.2665  0.1973  0.1686
24926W        W41773  15.378   6.966  10.765 -0.0698  0.1860  0.2006
24927W        W41774   2.711  13.626  14.130 -0.0389 -0.1770  0.0421
24928W        W41775   2.167   2.636  14.561 -0.0864  0.0745 -0.1105
24929W        W41776  16.569  18.618  13.133 -0.0860 -0.0815  0.0450
24930W        W41777  11.664   0.234  12.000  0.1136 -0.0648 -0.0332
24931W        W41778   5.364   7.784  14.672 -0.0127  0.1760  0.0961
24932W        W41779  12.234  14.416  11.386  0.4388  0.2261  0.1754
24933W        W41780   0.384   4.683  11.505 -0.1164 -0.3652 -0.2138
24934W        W41781  14.776  10.261  14.671 -0.0137 -0.1809  0.1352
24935W        W41782   8.586   1.716  10.835  0.4376  0.0388 -0.0391
24936W        W41783   1.624   5.059   1.511 -0.1081  0.0263 -0.1779
24937W        W41784  12.569  11.176   4.872  0.3381  0.1310 -0.0556
24938W        W41785  15.634  14.312  11.448  0.3331 -0.5106 -0.1120
24939W        W41786   8.442  18.800   4.773 -0.1456  0.1386 -0.1512
24940W        W41787   7.619  18.562  11.876 -0.3332 -0.1631  0.2075
24941W        W41788   7.702  13.166  15.201  0.0679  0.1934  0.3844
24942W        W41789   8.216   6.009  14.697 -0.2489  0.3672  0.0862
24943W        W41790  10.431   3.321   0.788 -0.3126 -0.0677  0.1044
24944W        W41791   4.430  18.435   0.433 -0.0014  0.2699  0.0829
24945W        W41792   9.934   3.439   1.769  0.0579  0.0948  0.1696
24946W        W41793   1.932  10.161   1.540  0.1130 -0.1540 -0.1527
24947W        W41794   2.476  13.247   4.410 -0.5083  0.1552  0.0758
24948W        W41795   0.354  12.891   4.183 -0.0575  0.0447  0.1171
24949W        W41796  13.459   0.260   3.462  0.1829 -0.3966  0.0878
24950W        W41797   5.773   2.205  11.625  0.1349 -0.1097  0.1801
24951W        W41798   1.006   8.804   4.654 -0.3510 -0.2347  0.0303
24952W        W41799   6.163   3.280   1.116 -0.0080  0.0139 -0.0255
24953W        W41800  14.630   1.695  13.493 -0.3767  0.3640 -0.4295
24954W        W41801   6.713  11.635   0.957  0.0432  0.2691 -0.1737
24955W        W41802   1.957  13.113   2.520 -0.2101 -0.2051 -0.0805
24956W        W41803  14.254   0.437  13.855  0.0091  0.1172  0.1298
24957W        W41804   7.107   0.079   5.112 -0.0660  0.1239  0.0986
24958W        W41805   1.358   6.361   0.841 -0.2039 -0.0273  0.0859
24959W        W41806  11.320   8.863   3.224  0.1847 -0.0831  0.1423
24960W        W41807  13.831   1.766  15.050 -0.0931 -0.2282 -0.0574
24961W        W41808  10.072  18.376  13.780  0.0746 -0.0647  0.1371
24962W        W41809  15.626  14.805  11.286 -0.0473 -0.0738  0.0060
24963W        W41810   9.818   4.127   3.875 -0.0778  0.3722 -0.0629
24964W        W41811   9.253   0.121   0.610 -0.1361  0.3048 -0.1438
24965W        W41812   5.320   5.672   2.049 -0.1868  0.0116  0.3980
24966W        W41813  17.698  10.642  14.307 -0.3112  0.1722  0.0718
24967W        W41814   6.231  17.170  10.977  0.2417 -0.0739  0.0127
24968W        W41815  18.404  12.323   4.418 -0.1090  0.0219  0.2872
24969W        W41816  10.006  10.943  13.111 -0.2142  0.2489 -0.0707
24970W        W41817   1.856   5.602   4.302 -0.0621 -0.0939  0.0217
24971W        W41818   9.993  10.311   0.553  0.0867 -0.3489 -0.2833
24972W        W41819   4.096   1.101   4.212  0.2127 -0.0948  0.1226
24973W        W41820  12.596  12.086  11.564  0.1594 -0.2242 -0.4111
24974W        W41821   7.313   3.718   4.255  0.1435 -0.2372  0.1682
24975W        W41822   3.334  14.335  12.384  0.1047  0.0079  0.2077
24976W        W41823  16.561   1.748  11.898 -0.3233  0.1189 -0.0385
24977W        W41824   2.272   1.220  10.287 -0.0568  0.1549  0.0061
24978W        W41825  13.397   7.567  14.170  0.2998 -0.0013  0.1487
24979W        W41826  18.229  15.166   3.676 -0.3099 -0.2301 -0.0304
24980W        W41827   6.814   0.375   0.489  0.0410  0.0838 -0.0822
24981W        W41828   7.629  17.753  10.657  0.0708 -0.3222  0.3993
24982W        W41829   8.728  11.214   4.085  0.1102 -0.0733  0.3772
24983W        W41830   3.941  17.027   5.088 -0.0821 -0.2480  0.0587
24984W        W41831   1.761  11.201   4.967 -0.0098  0.0669  0.1785
24985W        W41832  13.298  13.133   4.306  0.6496  0.0059  0.2067
24986W        W41833   0.571  12.441  12.338 -0.0684 -0.0800 -0.0674
24987W        W41834  16.038  13.889  10.778 -0.0114 -0.0645  0.1036
24988W        W41835  16.629   7.054   0.903  0.0544  0.0506  0.1277
24989W        W41836  14.019  11.465   2.062  0.2551  0.0001 -0.0708
24990W        W41837  11.749   4.332   2.959  0.0316  0.0290 -0.1307
24991W        W41838  18.252   1.226   0.929 -0.3783  0.0414 -0.1116
24992W        W41839   3.741   8.681   0.823 -0.4187 -0.0800  0.1383
24993W        W41840  16.450  12.030  12.173  0.0943 -0.0742  0.1905
24994W        W41841  16.541   6.464  11.111  0.3796 -0.1075 -0.0811
24995W        W41842  16.008   4.403  12.084 -0.0364 -0.0539  0.0239
24996W        W41843   2.769   5.625  11.333 -0.3512  0.1806 -0.0396
24997W        W41844   3.088   0.300  11.757  0.1238  0.0516  0.2801
24998W        W41845  18.038  15.750  11.376  0.1471 -0.1251 -0.0622
24999W        W41846   1.175  17.826  12.168  0.0485  0.0890  0.1524
25000W        W41847  16.634  16.647  12.598 -0.2505 -0.1013 -0.2624
25001W        W41848  15.545   5.141  13.459 -0.2948 -0.0944  0.0803
25002W        W41849  12.419   3.327  11.347  0.1878 -0.0082 -0.1029
25003W        W41850   4.535   3.561   0.516 -0.0218  0.2042  0.1664
25004W        W41851  12.401  12.692  12.310  0.0323  0.0292  0.1108
25005W        W41852  12.690   6.819   5.011  0.1065  0.0597  0.3277
25006W        W41853  11.667  11.695   2.963  0.0158 -0.0159  0.1576
25007W        W41854   5.320   6.316   0.550  0.2572  0.1968  0.2793
25008W        W41855   3.762  18.513  14.691  0.1569 -0.3406  0.3756
25009W        W41856   3.440   7.066  11.433  0.1498  0.0294  0.0834
25010W        W41857   0.152   2.603   3.224  0.1913  0.0483  0.1650
25011W        W41858  17.994  10.543   4.374 -0.1691  0.1595  0.2121
25012W        W41859   4.025  18.109   1.231  0.1498  0.0923  0.0016
25013W        W41860  11.112  13.173   4.376 -0.0988  0.3614 -0.0725
25014W        W41861   1.015   9.712   5.121 -0.1716  0.2633  0.4036
25015W        W41862   4.583   5.854   1.187  0.1716 -0.2253  0.0581
25016W        W41863   7.545   0.364   5.131  0.0533 -0.0397  0.0843
25017W        W41864   6.042  10.678   2.389  0.1960  0.1674 -0.1632
25018W        W41865   3.997  11.852  13.548 -0.0610  0.1414 -0.0709
25019W        W41866   0.669  11.099  14.485  0.1743 -0.1495 -0.1531
25020W        W41867  15.269  14.331  13.088 -0.1765  0.1856 -0.4255
25021W        W41868   9.013  13.058  14.559 -0.1873 -0.0768  0.1645
25022W        W41869   2.153  18.064   1.251 -0.0015 -0.1748  0.0341
25023W        W41870   5.736  10.891   4.839 -0.0102 -0.1991 -0.1463
25024W        W41871   5.290   1.796   4.587  0.3314 -0.1377 -0.0159
25025W        W41872  18.802  18.819  11.190  0.2140  0.0239  0.0145
25026W        W41873   9.176  13.727   1.392  0.2007 -0.0012 -0.0245
25027W        W41874  16.726   3.412   5.268  0.4321  0.2684 -0.0542
25028W        W41875   1.480  15.025   4.371  0.1184  0.0365  0.0526
25029W        W41876  16.350  12.864   3.888  0.0350 -0.2259 -0.0839
25030W        W41877  15.166   3.836  14.817 -0.1064  0.1640 -0.1172
25031W        W41878  14.933   1.355   3.457  0.0433 -0.1562 -0.1943
25032W        W41879  12.096   5.114  13.329 -0.1836  0.1838  0.0196
25033W        W41880   5.161  10.980   5.008  0.0298 -0.0007 -0.0403
25034W        W41881   3.989   5.309  14.952 -0.0026  0.1132 -0.2716
25035W        W41882  10.874  11.985  12.410 -0.1073 -0.2099  0.0128
25036W        W41883   9.053   5.730  11.520  0.0884 -0.1779 -0.3603
25037W        W41884  16.531  10.197  14.566 -0.0266  0.0708  0.3904
25038W        W41885   7.055   6.757  11.127  0.0919  0.1209 -0.2116
25039W        W41886   8.031   0.132   5.216  0.0105 -0.0020  0.1658
25040W        W41887   3.306  15.385   3.870 -0.0553 -0.0054  0.1522
25041W        W41888  15.799   9.246  13.941  0.3416 -0.0859 -0.2835
25042W        W41889   9.793  12.053  11.960 -0.0947  0.0733  0.2019
25043W        W41890   2.887   8.841  12.606 -0.2458 -0.0484  0.3573
25044W        W41891   1.218   7.056  10.871 -0.0121  0.2296  0.0390
25045W        W41892  14.690   2.229   1.138  0.2274 -0.2120 -0.0967
25046W        W41893  13.200   6.754   4.581 -0.0779  0.1442 -0.0744
25047W        W41894  15.432  13.058   2.614 -0.1126  0.0158 -0.4809
25048W        W41895   8.923  15.150  15.255 -0.0724 -0.0962 -0.0625
25049W        W41896   6.139  12.313  14.873  0.4345 -0.0955  0.0667
25050W        W41897   5.345   0.053  12.337 -0.1245 -0.0541 -0.1699
25051W        W41898  12.429  10.893  13.471  0.0362  0.1707 -0.1989
25052W        W41899  15.625   7.150   3.637 -0.2918  0.1365  0.1564
25053W        W41900   6.026   6.746  11.526  0.6068 -0.1664 -0.2871
25054W        W41901  14.343   2.243   5.705  0.0571  0.0554  0.1152
25055W        W41902   0.522   0.084  14.033  0.0443 -0.0114  0.0917
25056W        W41903  16.045   8.863  14.754 -0.0159  0.1604 -0.0629
25057W        W41904   8.296   9.031   3.144  0.2050  0.0574 -0.4217
25058W        W41905   8.583  13.680   0.630  0.0666  0.1224  0.2874
25059W        W41906   3.414   5.719   1.823 -0.2144  0.0379  0.0623
25060W        W41907   8.268   5.113   5.648 -0.2792 -0.3933  0.0261
25061W        W41908  15.014   6.301  12.181 -0.2200  0.3056 -0.0798
25062W        W41909  11.360  14.193  11.768 -0.0668 -0.3803 -0.4936
25063W        W41910   3.965   2.850  11.335  0.0107  0.0191  0.0904
25064W        W41911   9.023   2.188  15.011  0.2721 -0.0719 -0.2283
25065W        W41912  16.543  16.885  14.644 -0.2840 -0.1443  0.0393
25066W        W41913  17.780   0.462  13.504  0.5129  0.2569 -0.0687
25067W        W41914  10.840  11.078   0.976  0.2754  0.1021 -0.1310
25068W        W41915   3.202  16.639  11.092 -0.1100  0.0093 -0.1685
25069W        W41916  13.839  15.493  11.519  0.0359 -0.5083 -0.2336
25070W        W41917   4.878   7.372   4.220 -0.0715 -0.1925  0.2493
25071W        W41918  11.510  10.833  14.734  0.2082 -0.0872  0.0687
25072W        W41919  17.203   9.992  13.461 -0.1031  0.0679 -0.0864
25073W        W41920   0.468  15.499  12.248 -0.0565 -0.0094 -0.2237
25074W        W41921  16.093  11.855  15.107  0.1215  0.1719  0.2870
25075W        W41922   1.019   4.199   1.602 -0.0293  0.3805  0.1732
25076W        W41923  15.762  10.059   5.195  0.2457 -0.0655  0.0940
25077W        W41924  14.436   1.375   0.069  0.4221  0.1253  0.2196
25078W        W41925  12.490   0.540  13.003 -0.0224  0.0356  0.0795
25079W        W41926   7.142   7.297   5.426 -0.3593  0.2458 -0.0539
25080W        W41927   0.079   1.300   5.245  0.4084 -0.1565  0.3440
25081W        W41928   8.514   0.018   5.245 -0.0523 -0.3863  0.0008
25082W        W41929   6.370   0.292   4.127  0.0703 -0.0157 -0.1110
25083W        W41930  17.189   5.925  13.901 -0.1354 -0.0492 -0.0862
25084W        W41931   3.170   7.503  15.442  0.0054  0.0602 -0.4019
25085W        W41932  15.493   4.524  10.886  0.1979 -0.0187  0.2852
25086W        W41933   1.239  13.883  13.950  0.1375  0.1395  0.0758
25087W        W41934  11.634   7.599  14.128  0.1125  0.0896  0.2318
25088W        W41935  16.135  16.443   2.421 -0.0490 -0.0717 -0.1004
25089W        W41936  10.155  15.070   0.316  0.0746 -0.3116 -0.1782
25090W        W41937   1.861  17.331   1.814 -0.1180  0.0140 -0.1628
25091W        W41938   9.898  13.023  13.786  0.0405 -0.3828 -0.1027
25092W        W41939   8.381   2.075   4.442 -0.1169  0.1642  0.0582
25093W        W41940   4.644   3.923  11.125  0.1201 -0.3362  0.0707
25094W        W41941   3.872   1.423   3.339 -0.1624  0.1063 -0.1249
25095W        W41942  16.464   5.068   0.059  0.0916 -0.1119  0.2757
25096W        W41943  11.338  11.937  13.151  0.1205  0.0395  0.0687
25097W        W41944   8.150  16.428  15.541 -0.0479  0.1517 -0.2946
25098W        W41945  16.937   2.335  11.233 -0.3147  0.0293 -0.0261
25099W        W41946  11.853   1.697   4.998  0.0670 -0.0236 -0.1712
25100W        W41947   6.306  14.922   4.156 -0.0472  0.1462 -0.2242
25101W        W41948   8.212  18.356  13.197  0.0873  0.1443  0.0616
25102W        W41949  18.634   4.587   0.889 -0.0836  0.0834  0.2414
25103W        W41950  10.495  11.463   0.917 -0.0588  0.1124 -0.0393
25104W        W41951   5.682   7.865   5.547  0.2229  0.0691  0.0543
25105W        W41952   5.644  15.022  10.598  0.1240  0.0995  0.6189
25106W        W41953  18.251  13.909  11.094 -0.2329  0.2292  0.2100
25107W        W41954   3.490  13.357   4.103  0.0333 -0.1968 -0.0264
25108W        W41955  15.301   4.180   2.905 -0.0525  0.3130 -0.1534
25109W        W41956   5.807  12.082   0.804  0.2243  0.2120 -0.0761
25110W        W41957   2.533  16.028   1.692  0.1888 -0.1078  0.1517
25111W        W41958   4.250  18.236  13.533  0.2218  0.5524 -0.0900
25112W        W41959   0.050  15.768  14.339  0.0005 -0.0543 -0.0705
25113W        W41960  13.704   5.247   4.414  0.2539 -0.2231 -0.1226
25114W        W41961   6.674   5.824   1.448 -0.2882 -0.1676  0.2074
25115W        W41962  16.134  12.355  11.897 -0.0407  0.0475  0.1189
25116W        W41963  10.907   3.376   4.006  0.3683 -0.3321  0.2798
25117W        W41964  18.845  12.931   0.467 -0.1797  0.0368 -0.1634
25118W        W41965  11.215   0.485   2.633  0.0690  0.2700 -0.2442
25119W        W41966   4.333  13.777   0.366 -0.1593 -0.4553  0.1057
25120W        W41967   6.088   4.994   2.160  0.0286  0.0694  0.3361
25121W        W41968   7.226  15.415   1.929 -0.0319 -0.1526 -0.0930
25122W        W41969   0.068   5.460  11.312  0.2219 -0.1579  0.3663
25123W        W41970  12.943  12.849  12.186  0.1054 -0.0449  0.1965
25124W        W41971   8.441   3.450   0.612  0.2916 -0.0048 -0.2139
25125W        W41972  12.075  14.559   1.583 -0.0423 -0.1181 -0.5477
25126W        W41973  17.499   1.308  10.979  0.0770 -0.2119  0.2005
25127W        W41974   2.884   3.150  15.276  0.1005  0.2323  0.1396
25128W        W41975   2.873  12.896  14.677 -0.4571  0.0759  0.0275
25129W        W41976   1.301   3.419   3.250 -0.1326 -0.0114 -0.1572
25130W        W41977  10.504   7.904  11.655  0.0910 -0.1078 -0.1585
25131W        W41978  17.149   6.154   4.460 -0.2522 -0.1570  0.1294
25132W        W41979  18.054   1.458  15.222 -0.0632 -0.0309 -0.1183
25133W        W41980   5.920  10.597  10.879  0.2301  0.0622  0.0925
25134W        W41981  14.525   6.008   2.120  0.1219  0.0737  0.1306
25135W        W41982   7.508  13.520   0.994  0.0498 -0.0241  0.0169
25136W        W41983   1.407   3.929   1.878 -0.1506 -0.0363 -0.0020
25137W        W41984   4.553   6.965   3.505  0.4047 -0.6657  0.1974
25138W        W41985  16.391   4.982   1.643 -0.1235  0.0669 -0.0734
25139W        W41986  13.479   6.938  12.850  0.3163 -0.0688 -0.2045
25140W        W41987  17.307  11.026  11.222  0.3802 -0.1300 -0.1937
25141W        W41988   6.721   2.530   5.034 -0.0595  0.3903 -0.3266
25142W        W41989  11.606   8.265   2.322  0.1695  0.2263  0.0083
25143W        W41990  16.417  11.160   0.473  0.0198  0.1268  0.2091
25144W        W41991   5.018  14.806   2.315  0.0038  0.2666 -0.2171
25145W        W41992   8.872  17.103  14.011  0.0403 -0.3477  0.0828
25146W        W41993  15.895   8.207  14.158 -0.0901  0.0733 -0.2960
25147W        W41994   4.411   0.503   5.597 -0.0186  0.1536 -0.3121
25148W        W41995   8.553   5.976   3.612  0.0146  0.2889 -0.2075
25149W        W41996   7.592   4.238  11.325  0.1057  0.1469  0.0042
25150W        W41997   9.057   6.884  12.950  0.0596  0.2808  0.0719
25151W        W41998  17.784  15.086  12.273 -0.1358 -0.4286  0.0253
25152W        W41999  15.567  12.263   2.801  0.0307  0.0879  0.1138
25153W        W42000  18.326   6.640  13.796  0.1629 -0.2502  0.2012
25154W        W42001  10.216  18.477   1.594  0.2069  0.2439  0.2794
25155W        W42002  10.356  13.167  13.998 -0.1251  0.1703 -0.1359
25156W        W42003   8.042   7.291  12.261 -0.1671  0.1145  0.1466
25157W        W42004  11.628  12.976  12.693 -0.1696  0.0577  0.0510
25158W        W42005   1.623   1.181   1.048 -0.0404 -0.0088  0.0184
25159W        W42006  17.549   4.287  12.647 -0.1073  0.0453  0.0898
25160W        W42007  16.137  16.819  11.312  0.0737 -0.1111 -0.1658
25161W        W42008  17.090   1.468   4.149  0.0391 -0.0449  0.0384
25162W        W42009   9.247   2.437  13.652  0.3382 -0.0143  0.0636
25163W        W42010   8.683  15.504   3.941  0.1237  0.1224 -0.2844
25164W        W42011  12.512  15.516  11.011 -0.0855 -0.2851 -0.3672
25165W        W42012  16.725  10.338  15.138 -0.0791 -0.0757 -0.1407
25166W        W42013  14.255  17.594   1.264 -0.2360  0.4389  0.0157
25167W        W42014   3.106   1.106   3.093  0.0785  0.4059  0.0156
25168W        W42015  17.248   4.804   0.024 -0.1754 -0.3144 -0.4807
25169W        W42016  10.937  15.477  12.294 -0.0034 -0.0360 -0.2733
25170W        W42017   2.318  17.985   0.240  0.0330 -0.1492  0.0435
25171W        W42018   2.200   2.308   1.928 -0.0780 -0.1135 -0.1544
25172W        W42019  14.443   6.363  13.471 -0.0298  0.0243  0.0265
25173W        W42020   9.052   8.256   4.810  0.1380  0.1362 -0.2250
25174W        W42021   0.497   9.143  15.088 -0.1360 -0.1210 -0.0974
25175W        W42022   7.756  12.216   3.561  0.0411 -0.0972  0.0007
25176W        W42023   6.193   5.132   4.438 -0.1717 -0.2016  0.0530
25177W        W42024  16.016   7.388   1.789 -0.0127 -0.3683  0.0931
25178W        W42025   0.591  16.441  12.120 -0.3080 -0.3904  0.0100
25179W        W42026   5.705  11.376  12.056 -0.0801  0.1264 -0.2821
25180W        W42027  12.438   1.109   5.143  0.1522 -0.0451  0.0987
25181W        W42028   7.461  10.845  10.318 -0.2304 -0.2664  0.1258
25182W        W42029  17.240  11.362   3.875 -0.0957  0.3473 -0.1222
25183W        W42030  15.543  18.521   1.573  0.0085 -0.1074 -0.0764
25184W        W42031   3.616   3.378   5.543  0.0216  0.1576 -0.2306
25185W        W42032   1.345   4.346  12.959  0.1591  0.2378  0.1250
25186W        W42033   6.857   6.053  12.695 -0.2843  0.0815  0.0406
25187W        W42034   3.510  17.994   2.195  0.0032  0.1537 -0.1090
25188W        W42035  15.751   6.669  15.161  0.3844  0.2944  0.0019
25189W        W42036   6.197   9.084   2.590 -0.4117 -0.0034 -0.0209
25190W        W42037  11.854  13.162   1.021 -0.3132 -0.1210 -0.0041
25191W        W42038  11.926  14.700   3.428 -0.1264 -0.1308  0.0001
25192W        W42039  12.458  11.888   1.383  0.0422  0.1192 -0.1253
25193W        W42040  14.373  15.079  15.293  0.1526  0.4298 -0.1367
25194W        W42041   5.973   5.033   0.367 -0.1661 -0.1934  0.1740
25195W        W42042   9.499   0.027  12.151  0.2391 -0.0719  0.1086
25196W        W42043  13.792  15.300  14.533 -0.2430  0.0626 -0.4123
25197W        W42044   7.348   4.836  12.696 -0.1852  0.0564  0.4383
25198W        W42045  14.932   5.619   4.061 -0.0996 -0.2351 -0.0675
25199W        W42046  17.554   2.547  14.491  0.0216  0.0948  0.2916
25200W        W42047   8.284  18.588   1.190 -0.0270 -0.2633 -0.0804
25201W        W42048  12.653   2.220  12.976 -0.0560 -0.1713 -0.1678
25202W        W42049   1.394  12.474  13.530  0.0200  0.3841  0.2203
25203W        W42050   1.340   6.788   1.077  0.1092 -0.0275 -0.3556
25204W        W42051  12.783  17.953  13.504  0.1328 -0.0093  0.1151
25205W        W42052  15.652   1.834  11.935 -0.0204 -0.2520 -0.1692
25206W        W42053   5.070  14.753   0.802  0.1498 -0.1020  0.2845
25207W        W42054  18.078   1.041   4.291  0.1352  0.4086 -0.1394
25208W        W42055   8.893   7.690  12.613 -0.1487  0.0506 -0.0194
25209W        W42056  13.028  16.830  12.221 -0.1980 -0.0330 -0.3514
25210W        W42057   9.837  11.771   1.999  0.0952 -0.0271  0.4764
25211W        W42058   2.937  10.290   0.038  0.2253 -0.0179  0.2008
25212W        W42059   9.718  11.338  14.396 -0.2870  0.0061  0.0798
25213W        W42060  10.235   5.973   0.497  0.1581 -0.0392 -0.0599
25214W        W42061  11.146  10.115  11.047  0.1395 -0.1272  0.1992
25215W        W42062  16.646   5.297   3.459  0.0938  0.4093  0.0254
25216W        W42063   6.362   3.345  13.279  0.1453 -0.2077  0.0002
25217W        W42064   1.576   2.938  13.386 -0.1468  0.2858 -0.1064
25218W        W42065   3.776   4.653   3.482 -0.0323  0.0637 -0.0202
25219W        W42066  14.721  16.191   1.475  0.3490  0.0567  0.1064
25220W        W42067   2.940   6.781  13.826  0.0655  0.2481 -0.0516
25221W        W42068   4.056  16.993  11.712  0.1548  0.3721 -0.1386
25222W        W42069   0.258   8.837   3.323 -0.0725  0.0929  0.0615
25223W        W42070   9.590   3.943  12.791 -0.2507 -0.0398  0.2825
25224W        W42071  10.237  18.440  15.503  0.0675 -0.0142  0.2691
25225W        W42072  16.018   9.515   1.161  0.1445 -0.3213  0.0354
25226W        W42073  10.264   1.431  14.889  0.0762 -0.0796  0.0861
25227W        W42074  10.813   5.303  15.540  0.2038 -0.2763 -0.3114
25228W        W42075   9.177  18.248  13.234 -0.2858  0.1608  0.2842
25229W        W42076  10.380  17.286   0.724 -0.1192  0.4037 -0.1670
25230W        W42077   9.418  17.192   5.718 -0.1351 -0.0416  0.0477
25231W        W42078  16.055  13.229   4.716 -0.0379 -0.2018 -0.2860
25232W        W42079   0.732  12.454  11.352 -0.1414 -0.0142  0.0971
25233W        W42080  17.470  14.159  11.594 -0.0236 -0.1466 -0.0883
25234W        W42081   3.061  17.942   4.157  0.3942 -0.1535 -0.0947
25235W        W42082   8.175   4.840  13.990  0.0850 -0.2243  0.3360
25236W        W42083   6.527  18.774   3.039 -0.0976  0.0314 -0.0848
25237W        W42084  17.432   9.510   2.321 -0.0325 -0.0175  0.0810
25238W        W42085  18.274  16.777  15.518 -0.1462  0.0666 -0.0699
25239W        W42086  16.343   8.933   5.134  0.0746  0.0162  0.0983
25240W        W42087  15.651   0.092  13.300  0.1921  0.0326  0.0426
25241W        W42088   7.749  14.100   3.601  0.1167 -0.3227  0.0222
25242W        W42089   2.817  17.365  15.259  0.1159  0.2459 -0.4406
25243W        W42090   6.925   6.190  15.039 -0.1262 -0.1180 -0.1481
25244W        W42091   4.501  16.481   3.639  0.1715 -0.0218  0.0661
25245W        W42092   6.534  10.999  15.242  0.1672  0.0207  0.2666
25246W        W42093   7.815   2.646  15.434 -0.2933  0.0302 -0.1280
25247W        W42094   6.232  13.478  14.127 -0.0329 -0.2730  0.2708
25248W        W42095  16.111   7.651  11.730  0.0928 -0.0475  0.2770
25249W        W42096  12.259  12.858   2.599 -0.0517 -0.2295 -0.0196
25250W        W42097   3.988   2.645  12.635  0.0707 -0.0537  0.2759
25251W        W42098   1.293  17.879   1.651 -0.0319 -0.0445  0.1079
25252W        W42099   2.321  17.230   4.087 -0.0126  0.0452 -0.1324
25253W        W42100  17.628  15.069   3.184 -0.1509  0.3882  0.0810
25254W        W42101  13.681   3.068   0.306 -0.1134 -0.0381 -0.2213
25255W        W42102   2.532   4.286  13.474 -0.1147  0.0404  0.0641
25256W        W42103   1.323   4.322  12.087 -0.1719  0.2464 -0.0014
25257W        W42104  18.216  13.443  12.664  0.0685 -0.1235  0.3192
25258W        W42105   4.181   6.657   3.591  0.0439  0.2696 -0.2356
25259W        W42106  11.415  18.035   1.470 -0.2607  0.0086 -0.0195
25260W        W42107   3.148  13.246  13.287  0.1998 -0.0008 -0.1364
25261W        W42108  10.917   1.457   5.120 -0.0635  0.2505 -0.1010
25262W        W42109  16.421   0.117  11.214 -0.3210  0.0359 -0.0825
25263W        W42110   3.661   9.523  11.142  0.0951 -0.1516 -0.0979
25264W        W42111  17.737   4.690  14.680 -0.2249  0.0140  0.0086
25265W        W42112   2.121   9.746   4.371 -0.1808 -0.1847 -0.0417
25266W        W42113  10.662   3.704   4.444  0.2070 -0.0094 -0.2326
25267W        W42114  15.073  13.473  10.927  0.0461 -0.1434  0.4210
25268W        W42115  13.644  12.408  14.448 -0.0032  0.3257  0.2039
25269W        W42116   1.869  17.546   4.166  0.3934  0.0316 -0.1214
25270W        W42117   7.964   6.951  13.565 -0.0571  0.3983  0.0537
25271W        W42118  17.034   9.586  13.246 -0.1053  0.1868  0.1238
25272W        W42119   1.563   2.200   1.573  0.1544 -0.0338  0.1030
25273W        W42120  15.000   4.067  15.486 -0.0199 -0.2836 -0.0375
25274W        W42121  12.850  11.434   3.359  0.0797 -0.2832  0.4256
25275W        W42122  14.778   0.464  11.840  0.2486 -0.1610  0.0733
25276W        W42123   8.130  15.580   0.507 -0.4674 -0.0131  0.0386
25277W        W42124   1.171   1.789  10.106 -0.1013  0.0299 -0.0658
25278W        W42125   9.776  13.905   4.992  0.0404 -0.3486  0.3847
25279W        W42126   7.882  10.696   2.701 -0.0224 -0.0480 -0.3365
25280W        W42127   6.642  11.528  10.957 -0.0885  0.1095 -0.3947
25281W        W42128  15.458  16.775  13.855  0.0274 -0.1358 -0.1684
25282W        W42129  15.156   0.509  13.352 -0.2529  0.0382  0.0663
25283W        W42130   2.201   3.083   4.020 -0.0114 -0.0216  0.2349
25284W        W42131  15.142  15.700   9.712 -0.0312  0.2406  0.0063
25285W        W42132   7.096   0.106  12.999  0.3311  0.0236 -0.0589
25286W        W42133   3.127  16.602   2.545 -0.1685  0.0895  0.1862
25287W        W42134   4.641   8.064  14.886 -0.0951  0.0917 -0.2449
25288W        W42135  12.240   6.419  12.946 -0.0033 -0.2955 -0.1053
25289W        W42136  14.983   4.714  12.386 -0.2895 -0.1215  0.2010
25290W        W42137  11.422  15.263   4.476 -0.1604  0.1177  0.2417
25291W        W42138  14.373   8.996  10.618 -0.2110  0.0172 -0.1047
25292W        W42139  17.982  15.529  10.242  0.1634 -0.1440 -0.1600
25293W        W42140   8.547   5.203  12.048  0.3267 -0.0276 -0.2899
25294W        W42141   3.938  17.065  15.342 -0.3750 -0.3135  0.1842
25295W        W42142  11.877   1.548  12.885  0.0045 -0.1367 -0.4847
25296W        W42143  14.192   1.612   4.176  0.3409 -0.0534  0.6749
25297W        W42144  14.283  12.592  12.683  0.0986  0.1193  0.2123
25298W        W42145  15.811   8.141   1.765  0.1209  0.3970 -0.1613
25299W        W42146   5.471  11.788  11.797  0.1377  0.0878  0.0900
25300W        W42147   4.077   0.745  10.507 -0.2711 -0.2226  0.1209
25301W        W42148  14.815  16.536  15.431  0.1397 -0.1530  0.3238
25302W        W42149   6.796  18.597  11.689  0.0388 -0.1704 -0.1106
25303W        W42150   6.634   1.054  12.034  0.0654  0.3079 -0.2384
25304W        W42151  12.021   2.930  13.774 -0.0197 -0.1632  0.0239
25305W        W42152   6.878  17.557   4.269 -0.4375  0.0102  0.0019
25306W        W42153   7.742   2.483  13.732  0.1975 -0.0778  0.0336
25307W        W42154   4.759   2.249  11.304 -0.0237  0.1975 -0.2377
25308W        W42155   6.437   2.883  14.935  0.1021 -0.2345 -0.0581
25309W        W42156  13.505  13.438   2.331  0.1670  0.1103 -0.0196
25310W        W42157   4.350   8.865   2.324 -0.1131  0.3167  0.0096
25311W        W42158   1.627   7.492   2.266  0.0637 -0.3175 -0.1184
25312W        W42159  11.166  11.914   1.486  0.0472 -0.1005  0.4648
25313W        W42160   9.730  14.713  15.039  0.1076 -0.1453 -0.1047
25314W        W42161  18.062   8.743   4.307 -0.1572  0.2142 -0.0406
25315W        W42162  15.189   9.345  13.844 -0.0819  0.1230 -0.0904
25316W        W42163  10.545   5.881   0.099  0.0434 -0.1985 -0.1708
25317W        W42164  17.864   3.006  11.957  0.0043  0.0338  0.0025
25318W        W42165   5.836  10.373   0.683 -0.1534  0.0926  0.0382
25319W        W42166   2.347   5.474   2.810  0.1018  0.0801  0.2122
25320W        W42167  17.727   9.899   4.917 -0.1104  0.2312 -0.0853
25321W        W42168  10.910  11.200   2.673 -0.0104 -0.0370 -0.0853
25322W        W42169   8.801  11.725   1.203  0.1067 -0.1239 -0.2690
25323W        W42170  17.640  14.841   4.868  0.1063 -0.1598 -0.0564
25324W        W42171   8.332  11.356   3.412 -0.1619  0.1281 -0.0659
25325W        W42172  10.030   1.739  14.510  0.0866 -0.3155 -0.1103
25326W        W42173   0.972  10.483  11.961 -0.2427  0.0641 -0.0457
25327W        W42174   2.368  16.968   3.355 -0.2287 -0.0041 -0.0637
25328W        W42175  10.116  16.792   2.351 -0.1635  0.2073  0.1812
25329W        W42176   5.551  14.206   4.027  0.0325 -0.0729 -0.2150
25330W        W42177  12.822  14.892   1.253 -0.0629 -0.0911  0.1819
25331W        W42178  11.179  17.684   1.829  0.0268 -0.1349  0.0170
25332W        W42179   1.142  16.385   4.761  0.1414 -0.0422 -0.1069
25333W        W42180  18.817   9.611   5.033  0.0228  0.0210  0.0224
25334W        W42181  11.083   5.937   1.738  0.1641  0.2238  0.0087
25335W        W42182  14.745   9.821   1.907 -0.0405  0.0462 -0.0216
25336W        W42183   6.503  11.571  12.532 -0.2052 -0.4234 -0.2016
25337W        W42184   8.026  16.307  11.759  0.1015  0.2525  0.2769
25338W        W42185   6.553   8.992  13.840  0.5805  0.2200  0.1192
25339W        W42186   7.394   5.008  15.324  0.1664  0.0464 -0.1245
25340W        W42187  17.835  15.556   3.494  0.0101  0.0494  0.1415
25341W        W42188   9.274  18.643  12.809 -0.1424  0.0552  0.2366
25342W        W42189  10.237  16.434  11.354  0.3946 -0.1064  0.0869
25343W        W42190  16.118   6.973   4.105 -0.0322  0.2413  0.0538
25344W        W42191  16.086  17.404  15.369  0.1238 -0.0310  0.2701
25345W        W42192  14.176   5.942  14.940 -0.3545  0.0552  0.3113
25346W        W42193   0.862  14.550  11.418 -0.1473 -0.0762  0.0709
25347W        W42194  18.301   9.271   5.080 -0.0776 -0.0704 -0.0209
25348W        W42195  16.578  16.857  13.257  0.1151 -0.0457 -0.1085
25349W        W42196   6.959   0.011  15.332 -0.0576  0.0901  0.1066
25350W        W42197   1.858  13.564   3.283  0.3761  0.0755  0.1460
25351W        W42198  11.268  12.446   1.743  0.3778  0.2273  0.0290
25352W        W42199  10.413  17.110   1.206  0.1764 -0.2184  0.1469
25353W        W42200  18.045  11.718   1.087 -0.0546 -0.1977  0.0021
25354W        W42201   3.404   2.558   3.640 -0.4355 -0.0232 -0.3823
25355W        W42202  11.908   5.678  14.953 -0.1256 -0.0462 -0.1737
25356W        W42203  13.295  12.456  12.889 -0.0243  0.1391  0.0103
25357W        W42204   0.595  11.278  13.978  0.0802  0.0394  0.0507
25358W        W42205  12.775   9.229   4.261 -0.0212  0.2946  0.2232
25359W        W42206  17.949  17.375   1.383 -0.2632 -0.1130 -0.0562
25360W        W42207  16.613  11.827  15.338 -0.0816  0.0643  0.3935
25361W        W42208  11.426  14.242   2.404 -0.0515 -0.1717 -0.0371
25362W        W42209  14.498   6.017  12.004 -0.3908 -0.0166  0.0654
25363W        W42210   8.153   1.850   2.060  0.0162  0.6302  0.1839
25364W        W42211   4.795  18.141   2.716  0.1150 -0.1467  0.0264
25365W        W42212   8.375  12.803  11.437  0.1152 -0.2731 -0.1214
25366W        W42213   0.678   5.709  14.117  0.1510 -0.4678  0.2512
25367W        W42214   1.805  12.543  11.331 -0.2185 -0.2306 -0.1938
25368W        W42215   5.728  13.657   0.463 -0.0687  0.0268  0.1109
25369W        W42216  16.843   5.966  15.201 -0.0726 -0.0990  0.3330
25370W        W42217   6.941   8.131  13.961 -0.3275  0.0448  0.2291
25371W        W42218  18.156  18.324  11.794 -0.1998  0.0293 -0.2443
25372W        W42219   7.390  12.500   5.134  0.0686 -0.3186  0.0028
25373W        W42220   1.423   3.166  12.489  0.0546 -0.0108  0.2186
25374W        W42221   5.726  10.536  15.461 -0.0471  0.2934 -0.3095
25375W        W42222  11.602   4.557  14.008  0.2294 -0.2424 -0.0078
25376W        W42223  12.779  13.964  15.151  0.1900 -0.0369  0.0702
25377W        W42224   5.824  16.208   1.941 -0.0059  0.3910  0.1815
25378W        W42225   4.070   0.999   5.404  0.0035  0.0415 -0.1710
25379W        W42226  16.661   5.159   2.845 -0.1977 -0.1998  0.2180
25380W        W42227  10.106   0.031   4.237 -0.1743 -0.2770  0.1268
25381W        W42228  11.355  11.312   0.873  0.2475 -0.0532  0.0245
25382W        W42229   4.575  14.414   2.400 -0.1041  0.4603  0.0133
25383W        W42230  11.902  17.417   3.705  0.3502 -0.1501  0.1385
25384W        W42231   4.088   6.216   1.065  0.1149 -0.0626  0.0362
25385W        W42232   3.421   4.020  15.351  0.3032 -0.2536 -0.2572
25386W        W42233  12.325  11.577   2.964 -0.2414  0.1033 -0.0377
25387W        W42234   4.220   7.956   4.327 -0.2002 -0.1092 -0.1037
25388W        W42235  18.634   3.794   0.403  0.2241 -0.2373  0.2005
25389W        W42236  10.595   2.695  13.307 -0.0749 -0.3805  0.0034
25390W        W42237  17.385  13.728   2.953 -0.3496  0.1726  0.0328
25391W        W42238  18.529   9.247   4.605 -0.1499 -0.0694 -0.0545
25392W        W42239  14.207   5.266  10.026  0.0876 -0.0279 -0.1489
25393W        W42240   5.625   1.927  12.483 -0.1390 -0.1267 -0.1983
25394W        W42241  12.182   2.199  15.098  0.0950  0.2131  0.1629
25395W        W42242  14.804  17.866   4.396 -0.0885 -0.0746  0.1129
25396W        W42243  14.581  17.432   2.363  0.1352 -0.2594  0.0205
25397W        W42244   4.749   5.446  11.244 -0.1569  0.0859  0.3346
25398W        W42245   4.598   4.603   5.083 -0.2438 -0.2357  0.2270
25399W        W42246   2.266  11.762  14.509  0.1925 -0.1167 -0.2073
25400W        W42247  16.793   4.232  12.942 -0.0067  0.0565  0.2358
25401W        W42248   2.423  13.487   3.461  0.0366 -0.0454 -0.3555
25402W        W42249  18.200   1.895   2.780  0.1263  0.0160 -0.1785
25403W        W42250   1.064  15.722   0.501  0.0668  0.1613  0.0836
25404W        W42251  14.302   3.112   1.944 -0.0783  0.1909  0.3028
25405W        W42252   6.895   1.499  14.198  0.4218  0.3762 -0.0295
25406W        W42253  18.505   2.457  12.256  0.5174 -0.0553  0.0627
25407W        W42254   7.665  11.356   2.698  0.3267  0.0370  0.3018
25408W        W42255  15.736   2.839  12.420 -0.2630  0.0266 -0.0588
25409W        W42256   6.068  12.930  12.312  0.0138 -0.1372 -0.1310
25410W        W42257   5.040   4.448  14.397 -0.2785  0.0192 -0.0757
25411W        W42258  13.831   9.147   5.154 -0.2780  0.0402  0.0359
25412W        W42259  17.325  17.291   2.415 -0.0454  0.1703  0.0291
25413W        W42260  18.323  17.224  15.166  0.1603  0.0801  0.4252
25414W        W42261   1.606  11.466   3.058 -0.0552 -0.1551 -0.0730
25415W        W42262   0.515  17.987  13.813 -0.0385  0.3074  0.0933
25416W        W42263  15.883   0.830   1.748 -0.2242 -0.2575  0.3232
25417W        W42264   8.977   5.937   0.893  0.1953  0.1642 -0.0512
25418W        W42265  14.564   4.455  14.960 -0.0158  0.0421 -0.1652
25419W        W42266  16.685   3.945   0.206  0.2358  0.1562 -0.2097
25420W        W42267   3.372   8.550  11.317 -0.0984  0.0911 -0.0445
25421W        W42268  11.541  10.319   4.807  0.1443 -0.0329  0.0372
25422W        W42269  11.328  15.790  13.368 -0.2385  0.0329 -0.0211
25423W        W42270   0.707  15.687  14.801  0.1370 -0.1144 -0.1972
25424W        W42271  17.673  15.440   4.051  0.1146  0.1456 -0.0322
25425W        W42272  14.186   3.617   1.856  0.0906 -0.1112  0.1967
25426W        W42273   1.379  18.532  11.025  0.2459 -0.1113  0.0035
25427W        W42274  12.825   3.802  14.647  0.1178  0.1258  0.0826
25428W        W42275   4.301  15.809   0.226 -0.2536  0.0872  0.1021
25429W        W42276  14.320   0.920  13.904  0.1763 -0.2327  0.4997
25430W        W42277  15.519  18.292   5.696 -0.0674  0.0489  0.3023
25431W        W42278   3.291   8.110   3.581 -0.1538  0.0388 -0.0603
25432W        W42279   3.883  15.349   2.059 -0.0933  0.0886 -0.0551
25433W        W42280  15.264   5.946   1.433  0.1050 -0.2449  0.1881
25434W        W42281   6.142   0.513   4.602  0.0757 -0.0477  0.5846
25435W        W42282  16.765   4.486   0.817 -0.1217 -0.1022 -0.0612
25436W        W42283   6.671   3.058   2.741  0.0099  0.0679  0.1926
25437W        W42284  13.819   9.868   0.738  0.0256  0.1138 -0.0191
25438W        W42285   7.061   8.976   1.727  0.0118  0.0045  0.3253
25439W        W42286  13.234  14.215   0.997 -0.3789 -0.4504  0.0302
25440W        W42287   2.329  11.417   1.003  0.2170 -0.1450  0.2670
25441W        W42288   1.433  10.115   4.339  0.1006  0.0254  0.1246
25442W        W42289  11.247   9.964   5.004  0.0131 -0.0885 -0.0581
25443W        W42290  11.263  10.204   3.049  0.0902 -0.1097  0.1720
25444W        W42291   0.450  13.178   3.741 -0.0492 -0.3397 -0.0922
25445W        W42292  17.427   0.657   0.448  0.2547 -0.1632 -0.2914
25446W        W42293  13.694   0.414  15.175  0.2655 -0.0915 -0.0684
25447W        W42294   0.017  11.982   1.842  0.0444  0.1413 -0.2121
25448W        W42295  15.224  17.489   5.060  0.3562  0.0839 -0.2848
25449W        W42296   4.718  14.487  14.192 -0.2268 -0.4723  0.1373
25450W        W42297   9.682  16.023   3.906  0.3636  0.3201 -0.1314
25451W        W42298   1.083  15.591  14.203  0.2703 -0.0371 -0.0880
25452W        W42299  15.800   7.310   0.162  0.2227  0.1330 -0.0072
25453W        W42300   6.405   7.788  14.695  0.0674  0.0831 -0.0218
25454W        W42301  12.726   9.634   4.540  0.0967  0.1771 -0.1840
25455W        W42302  12.337   4.638  14.713  0.2455  0.0619 -0.1287
25456W        W42303  17.180   1.774   2.784 -0.1567 -0.0116 -0.5251
25457W        W42304  16.971  10.920  12.754  0.1839  0.1251  0.3307
25458W        W42305   6.469   9.707   0.368  0.0673  0.1195 -0.0056
25459W        W42306   3.923   9.178   0.838  0.1728 -0.1086  0.2088
25460W        W42307   1.760  15.106  12.942 -0.1706 -0.3229 -0.0211
25461W        W42308  18.088   4.503   0.012  0.0364 -0.4420  0.2366
25462W        W42309  10.125  11.039  12.060  0.0844  0.0547  0.1205
25463W        W42310   2.640  18.398  11.132  0.1213  0.3672 -0.0889
25464W        W42311  10.110   8.284   0.269  0.1029  0.3022 -0.2833
25465W        W42312  14.849   9.227   0.538  0.2373  0.1480  0.0015
25466W        W42313  10.889   8.418   3.939 -0.1227 -0.1232 -0.1057
25467W        W42314  10.260   1.151  11.513 -0.1088 -0.1408  0.1062
25468W        W42315  11.405  12.901   0.181  0.4096 -0.0122 -0.2348
25469W        W42316  13.659   2.159   2.507  0.0707  0.0802 -0.1318
25470W        W42317  10.263   9.008   5.250  0.1995 -0.0518 -0.0975
25471W        W42318  10.155  15.382   0.827  0.0655 -0.1204 -0.0693
25472W        W42319  12.974   9.396   1.754 -0.2598  0.0213  0.3899
25473W        W42320  10.159  14.697   2.786  0.1499  0.1198  0.2108
25474W        W42321  13.044   8.928   0.188  0.0477 -0.0405  0.3440
25475W        W42322   9.670   0.606   5.944 -0.2026  0.1038  0.0085
25476W        W42323  17.166  18.252  10.992 -0.0383  0.0173 -0.1985
25477W        W42324  14.510   2.732  13.334 -0.1194  0.1914  0.1074
25478W        W42325   8.076   5.606   5.728  0.1174 -0.0270 -0.2764
25479W        W42326  16.403   2.613  11.068  0.3250 -0.1866  0.2219
25480W        W42327  10.856   7.411  13.822  0.2361  0.0491  0.0508
25481W        W42328  15.698   7.362   2.464  0.0508 -0.0589 -0.1101
25482W        W42329   8.727   5.030   4.994  0.1839  0.0758 -0.1876
25483W        W42330   8.615  17.711  15.200 -0.4903 -0.1149 -0.1018
25484W        W42331   5.127  16.246   1.272  0.1121 -0.1271  0.1292
25485W        W42332   3.562   9.302  11.610 -0.2593 -0.0063 -0.1444
25486W        W42333  10.223   4.388   5.040  0.0187 -0.2239  0.1417
25487W        W42334  16.896  15.366   3.368  0.2266  0.1759  0.2063
25488W        W42335  17.253   3.888   5.344 -0.0085 -0.0077  0.0479
25489W        W42336  16.514   3.399   2.331 -0.1717  0.0642  0.3207
25490W        W42337   0.904  17.610  11.839  0.0570 -0.0996  0.1375
25491W        W42338  13.609  14.939  12.204  0.3692 -0.3210  0.1200
25492W        W42339  12.452   3.675  15.100  0.1137  0.0274 -0.1949
25493W        W42340   8.092   7.540  14.796  0.0089 -0.5293  0.3113
25494W        W42341   7.038   3.544   3.830 -0.2834 -0.0893 -0.0557
25495W        W42342   6.410   4.839   1.104 -0.2758  0.3193 -0.0183
25496W        W42343   4.318   2.206  13.741 -0.0746 -0.5449 -0.2823
25497W        W42344  14.199   9.586  14.725 -0.1278  0.1390 -0.0239
25498W        W42345   4.634  16.379  13.828 -0.3010 -0.1234  0.6251
25499W        W42346  13.955   8.823   0.372  0.0131  0.2687 -0.3057
25500W        W42347  12.918   9.595   3.346 -0.1046 -0.0774 -0.0646
25501W        W42348  13.959  15.805   0.904  0.0448 -0.1287 -0.1195
25502W        W42349   8.774  11.141   3.494 -0.3642 -0.2000  0.0794
25503W        W42350   4.893   0.063  14.678  0.3853 -0.0475  0.0178
25504W        W42351   1.447   5.470  13.242 -0.1216 -0.3160  0.1023
25505W        W42352   3.691   6.593   2.291  0.1384 -0.3214 -0.0526
25506W        W42353  17.937   9.009   0.724  0.1697 -0.1131  0.2391
25507W        W42354   1.357   2.869   2.529  0.1162  0.0840 -0.1301
25508W        W42355  13.385   9.570  12.886  0.2459 -0.1222 -0.2857
25509W        W42356   3.875  11.951   1.829  0.1428  0.2670 -0.2636
25510W        W42357   7.252   0.583   4.763 -0.0933 -0.3736 -0.2400
25511W        W42358  13.273   2.475   4.891  0.0609 -0.0862  0.0004
25512W        W42359  13.460   4.620   1.190 -0.5430  0.0925 -0.3324
25513W        W42360   2.545   6.140   5.390 -0.2155  0.1412  0.0754
25514W        W42361   0.617  15.916  13.036  0.0148 -0.0239 -0.0952
25515W        W42362   4.182  14.745   3.906  0.0484  0.0754  0.2067
25516W        W42363   3.991  10.403   1.427  0.0480  0.0050  0.1650
25517W        W42364  13.801   9.298   1.873  0.2739  0.1616  0.1757
25518W        W42365   0.088   7.157   2.868 -0.1374 -0.0564  0.1580
25519W        W42366   4.199   3.402  11.988  0.1925 -0.0368  0.4872
25520W        W42367   9.238  10.609  10.906  0.1773 -0.0527  0.2298
25521W        W42368   5.707  17.264  11.187  0.0225 -0.0701  0.0246
25522W        W42369  14.472  17.979  11.997  0.3005  0.0728  0.1139
25523W        W42370  16.378  13.125  11.614 -0.0335  0.0907  0.1525
25524W        W42371   2.416  13.653  11.248 -0.0714  0.0533  0.1887
25525W        W42372  14.926   6.707  10.621 -0.0718  0.0715  0.0844
25526W        W42373  13.217  16.629   1.075 -0.3088  0.0960 -0.1029
25527W        W42374  10.127   2.365   0.346  0.1952 -0.2499  0.0812
25528W        W42375  11.362  17.083   2.641  0.0434 -0.1331 -0.1312
25529W        W42376  13.599   3.993  13.578  0.1783 -0.0790 -0.0193
25530W        W42377   8.137   0.456  12.496  0.0784  0.1190  0.2585
25531W        W42378  13.024  16.618  11.216  0.1602 -0.1303 -0.3296
25532W        W42379   6.202  10.442  15.326  0.2348  0.2163 -0.2233
25533W        W42380   0.341   6.369   1.582 -0.3072  0.4574 -0.1349
25534W        W42381   1.627   1.157  14.539  0.0015 -0.1489  0.1250
25535W        W42382   3.294  17.837   1.624 -0.3336 -0.0982 -0.2070
25536W        W42383   9.754  17.023  13.659 -0.1364 -0.1770 -0.3507
25537W        W42384   8.623  15.583  13.220 -0.3033 -0.0080 -0.0847
25538W        W42385  16.597   9.713  11.024  0.0605 -0.1549 -0.3570
25539W        W42386   0.511   5.299   4.247 -0.2997 -0.0200 -0.1964
25540W        W42387   9.485  10.119   2.556  0.2195  0.0784 -0.0506
25541W        W42388  15.333   5.803   0.450 -0.1938 -0.1600  0.0792
25542W        W42389   9.393   5.219  12.733 -0.0513 -0.1135  0.0487
25543W        W42390  12.260  11.746  11.154  0.0858 -0.0315  0.1486
25544W        W42391   0.007   1.209   2.264 -0.1135 -0.1790 -0.1359
25545W        W42392  18.284   5.131  13.161 -0.1645  0.0038  0.1284
25546W        W42393   9.438  12.038  13.694 -0.0153 -0.1000 -0.1564
25547W        W42394   0.513   5.576   1.753 -0.0120 -0.0516 -0.1043
25548W        W42395  12.852  14.148  13.448 -0.0599 -0.1994 -0.1139
25549W        W42396  13.573   2.980   3.681  0.1213 -0.1221  0.1496
25550W        W42397  15.782  17.007  13.599  0.0522  0.0803  0.0840
25551W        W42398   7.931  15.780   3.491 -0.0508 -0.0269 -0.2893
25552W        W42399  15.458   6.922   5.710  0.3251 -0.1796  0.1608
25553W        W42400  17.183   3.445   5.040  0.1402 -0.0017  0.1692
25554W        W42401  15.914   7.638   2.809 -0.1362  0.1123 -0.1618
25555W        W42402  10.970   5.544   5.720  0.0121  0.2894  0.2659
25556W        W42403  17.719  16.532   4.796  0.0489  0.0864  0.2215
25557W        W42404   3.441  13.580  11.139 -0.1217  0.1120  0.0612
25558W        W42405   9.190   2.716   5.028  0.2749 -0.1620 -0.1353
25559W        W42406  11.612  11.852  11.827  0.0501 -0.0926 -0.1344
25560W        W42407   2.481  14.209  11.341 -0.1491 -0.0384  0.0162
25561W        W42408   7.681   0.623  12.618 -0.0059 -0.1653 -0.1685
25562W        W42409  16.906   6.640  11.553 -0.3125 -0.0045 -0.0252
25563W        W42410  15.375   6.432   3.235  0.0490  0.0295  0.3457
25564W        W42411  16.858  10.231  11.021  0.2049  0.3249 -0.0927
25565W        W42412   2.348  12.173   3.666 -0.0608 -0.3471 -0.1379
25566W        W42413   7.186  17.637   1.245  0.1933 -0.3306  0.0406
25567W        W42414  12.094   4.133  10.954 -0.0656 -0.0097  0.1574
25568W        W42415   0.178  14.424   4.619  0.3073 -0.1348  0.2794
25569W        W42416   6.169   0.125  11.212 -0.3584  0.1162  0.0886
25570W        W42417  14.109   0.725  11.137 -0.1847  0.1644 -0.0105
25571W        W42418   5.133   9.889   1.025 -0.1181 -0.1664  0.4031
25572W        W42419  13.297   9.831   0.788 -0.0303 -0.2350 -0.0391
25573W        W42420  12.495  14.384   0.476 -0.4003  0.1029  0.3757
25574W        W42421   6.102  10.490   4.662  0.0279 -0.0388 -0.4306
25575W        W42422   3.626   0.700  11.872  0.0896 -0.0828  0.0049
25576W        W42423  14.846   0.931  11.650 -0.1978  0.4004 -0.1011
25577W        W42424  14.429   6.640  15.032  0.4751 -0.0028 -0.0700
25578W        W42425   5.581   5.018   3.660  0.0906 -0.1735  0.0138
25579W        W42426   3.398  18.814  11.531  0.1032 -0.2336  0.2234
25580W        W42427   3.429   8.980   1.039 -0.1134 -0.1298  0.0998
25581W        W42428  16.054   3.906   4.110  0.2557  0.1531 -0.1145
25582W        W42429   8.949   4.591  13.792 -0.1267  0.0057 -0.2043
25583W        W42430   6.951   8.174   4.258 -0.0563  0.1192  0.2348
25584W        W42431   4.924  14.428   1.384  0.2038 -0.0544 -0.0272
25585W        W42432  17.267   5.538  15.480  0.0077  0.4195  0.0986
25586W        W42433  15.154  14.049  11.217  0.0032  0.0576  0.0215
25587W        W42434  17.280  13.234   2.303  0.1090  0.0435 -0.1070
25588W        W42435  16.641   3.416   1.810 -0.3936  0.0837 -0.0358
25589W        W42436   6.315  11.067  13.908  0.0916  0.0845  0.0268
25590W        W42437  10.704   4.773  11.772  0.0469  0.2917  0.0662
25591W        W42438   0.056  15.804  13.128 -0.2220  0.0510  0.0941
25592W        W42439  17.320  15.014  14.906  0.1154  0.0546 -0.0330
25593W        W42440   9.886   7.213   3.004 -0.0432  0.1153 -0.0924
25594W        W42441  15.971   9.056  12.644 -0.1174  0.0556 -0.3125
25595W        W42442   4.257  10.629  14.397 -0.2321  0.2113 -0.0705
25596W        W42443  10.975   2.987  15.189 -0.0346 -0.1121  0.0758
25597W        W42444  12.169   5.984  14.643 -0.2397 -0.1134 -0.1295
25598W        W42445   8.296   9.373  14.339 -0.1213 -0.0009  0.1057
25599W        W42446  11.220  17.312   4.155  0.3681  0.1684 -0.1356
25600W        W42447   6.780  15.213   0.707 -0.1194 -0.0785  0.3334
25601W        W42448  17.155  18.767  11.864  0.0145  0.3543  0.0845
25602W        W42449  13.381  14.928  14.458 -0.0134  0.4812  0.1199
25603W        W42450   5.040   0.590  14.527  0.1612  0.1705 -0.0867
25604W        W42451   9.371   1.540  13.762  0.1962 -0.3442  0.0112
25605W        W42452  10.641   6.668  13.365  0.2398 -0.0504 -0.1181
25606W        W42453   1.664   1.973  14.009  0.2016 -0.0344 -0.2112
25607W        W42454  15.770   0.521  11.714 -0.2882  0.0831  0.0698
25608W        W42455   9.725  11.287  12.274 -0.3479  0.1814 -0.0559
25609W        W42456  15.670   9.549   2.013  0.3102 -0.0024  0.2524
25610W        W42457   8.782  12.982  11.653 -0.0673  0.2205  0.2269
25611W        W42458   3.500   3.687  14.802 -0.1395 -0.0685 -0.0187
25612W        W42459   2.273   8.768   5.202 -0.1819  0.3076  0.0404
25613W        W42460   0.214   7.833   4.371  0.2182 -0.0236 -0.1890
25614W        W42461   3.011  18.718  12.037  0.0324  0.0002 -0.1484
25615W        W42462  12.091  12.730  13.936 -0.0192 -0.0582  0.2025
25616W        W42463   5.446  17.894  12.755  0.1054 -0.3252 -0.2226
25617W        W42464   3.503  15.847   0.735  0.2365 -0.0176  0.7098
25618W        W42465   6.719  10.135   4.925 -0.3719 -0.0186  0.0773
25619W        W42466   7.046  14.435   1.072 -0.0808  0.0404 -0.2245
25620W        W42467  15.393   2.591   4.381 -0.1712 -0.0499 -0.1108
25621W        W42468   5.889   1.133   2.611 -0.0033 -0.0458  0.0713
25622W        W42469  17.202  11.517  11.977 -0.1242 -0.1173  0.2924
25623W        W42470   6.762   0.882  11.062  0.1727 -0.4005 -0.0274
25624W        W42471  18.158   9.083   2.104 -0.0317 -0.1855 -0.2298
25625W        W42472   5.967  15.106   5.444 -0.1000 -0.0240 -0.0710
25626W        W42473  15.665  12.489   1.994 -0.1397  0.0441 -0.0586
25627W        W42474  12.796   9.388   0.042  0.0649  0.2162 -0.0234
25628W        W42475   6.803   5.333  14.828 -0.0300 -0.0236 -0.2367
25629W        W42476  14.728  18.726  15.521 -0.1640  0.0976 -0.0972
25630W        W42477   8.292   0.017   0.254 -0.0752 -0.4531  0.0423
25631W        W42478  11.448  16.960  11.760 -0.1541 -0.0499 -0.0560
25632W        W42479   6.637   0.374  13.108 -0.5829 -0.1916 -0.2713
25633W        W42480  10.686   0.684   3.861 -0.2055  0.1892 -0.1146
25634W        W42481  18.374  13.171   4.801 -0.0239  0.1097  0.1003
25635W        W42482   2.245  16.360  15.239 -0.1083  0.1846 -0.0176
25636W        W42483   7.469   5.466  10.693 -0.0332  0.0262  0.1504
25637W        W42484  17.546   5.466  11.133 -0.1264 -0.1179  0.1285
25638W        W42485  12.845   8.484   5.867  0.1666 -0.2232 -0.1990
25639W        W42486   7.211  15.761   2.301 -0.3552  0.0018  0.2787
25640W        W42487  17.740   6.754   0.206 -0.2108  0.0458  0.0404
25641W        W42488  14.260  11.568  11.029  0.0240  0.0099  0.2449
25642W        W42489  13.436  10.101   2.783  0.0173  0.0165  0.4837
25643W        W42490   8.861  11.240  11.635  0.2398 -0.0056  0.4129
25644W        W42491  16.532  12.504  11.604 -0.4813 -0.5120  0.1064
25645W        W42492   8.629  16.006   4.150 -0.0032  0.0646  0.0706
25646W        W42493  11.207   4.906   4.269 -0.1741 -0.1961  0.2092
25647W        W42494  13.482   6.101   1.459 -0.2052  0.2390 -0.1899
25648W        W42495  17.423   6.929   2.307  0.0042 -0.1618 -0.0054
25649W        W42496  18.481   2.670   0.155  0.0922 -0.0827 -0.1562
25650W        W42497   2.133  14.591  11.183  0.1498  0.1109  0.1548
25651W        W42498  14.507  16.204  13.958 -0.3112  0.1654 -0.1955
25652W        W42499   9.381   4.899  10.067 -0.1597  0.1986 -0.0611
25653W        W42500   4.543  11.986  15.024  0.0492 -0.1954  0.1061
25654W        W42501   9.374  17.977   2.865  0.3019  0.3234 -0.2760
25655W        W42502  17.817   2.746   0.871 -0.0445  0.1293  0.0560
25656W        W42503  16.973  15.795  11.729  0.1769  0.0130 -0.3297
25657W        W42504  18.250   9.211   2.762 -0.0243  0.0971  0.2531
25658W        W42505  14.374   9.033   0.562 -0.0641  0.2216 -0.1319
25659W        W42506   3.578   5.743  10.752 -0.0288 -0.1760 -0.1981
25660W        W42507  12.746  10.968  13.872  0.3369  0.2408  0.0277
25661W        W42508  14.471   3.463  14.740  0.0593  0.3872  0.2404
25662W        W42509  17.451  13.930  14.685  0.4000  0.0599 -0.1996
25663W        W42510  10.417   2.572   2.280  0.1240 -0.1150  0.1252
25664W        W42511  14.373  14.327  13.524 -0.0617  0.0462  0.0991
25665W        W42512  18.450   2.477   4.205 -0.2688 -0.1648  0.0709
25666W        W42513  16.565  17.423   4.695  0.2986  0.0418  0.0020
25667W        W42514   6.540   1.217   2.747 -0.0801  0.1573 -0.3526
25668W        W42515  16.450  14.884  14.514  0.1705 -0.1142 -0.3348
25669W        W42516   9.189   5.327   4.136  0.1513 -0.2413 -0.0420
25670W        W42517   7.468   1.487  12.749  0.1501 -0.0945  0.5643
25671W        W42518  18.554   8.898   3.688  0.0498  0.1705  0.1875
25672W        W42519   3.853   3.476   2.237  0.4936  0.1501  0.0537
25673W        W42520  10.280   7.491   4.859  0.1789  0.0047  0.1136
25674W        W42521   2.769   0.969   4.011 -0.1871  0.0424  0.1799
25675W        W42522   4.081  16.183   4.403  0.0200 -0.0866 -0.3598
25676W        W42523  16.836   1.440   0.448  0.0259 -0.0640 -0.1353
25677W        W42524   4.737   1.435   0.485 -0.0240 -0.1031  0.0670
25678W        W42525   8.950  14.406   0.933  0.1435 -0.0644  0.2812
25679W        W42526   0.909   9.649  14.281  0.1400 -0.1174 -0.0741
25680W        W42527  10.913  13.002   3.953 -0.2201 -0.0460  0.1263
25681W        W42528   6.444  17.845   1.886  0.0090 -0.1024  0.0930
25682W        W42529   5.784  12.415  15.277  0.2237 -0.1607  0.0227
25683W        W42530   6.135   1.005  10.960  0.1229 -0.0125 -0.0856
25684W        W42531   7.964   6.063  11.872 -0.1039 -0.1424  0.1785
25685W        W42532   9.464  11.639  11.887 -0.1629  0.0157  0.0679
25686W        W42533  17.586   9.378   1.536 -0.0357 -0.2854  0.1129
25687W        W42534  11.256   6.409  13.064 -0.1478 -0.1273 -0.2315
25688W        W42535   6.167  17.423  11.924 -0.0387 -0.1974 -0.0159
25689W        W42536  14.155   4.623  15.103  0.2265 -0.3680 -0.3405
25690W        W42537   2.208   3.232  12.708 -0.1897  0.0412  0.1209
25691W        W42538  14.263   8.874   4.933 -0.2688  0.0821 -0.0077
25692W        W42539  18.105  11.321  11.100 -0.0801 -0.3086  0.0160
25693W        W42540  10.029   9.342   0.483 -0.2414  0.0177  0.1962
25694W        W42541   9.495  12.508  13.981 -0.0032 -0.1523  0.1198
25695W        W42542   4.838  10.447  14.443  0.1172 -0.2501 -0.0048
25696W        W42543  16.886  13.664   1.166 -0.3382  0.2312  0.2004
25697W        W42544   6.819   7.282   3.055 -0.1297  0.2298  0.0404
25698W        W42545   4.746  14.491   0.938 -0.2966  0.0376 -0.1246
25699W        W42546   7.845   5.371   4.411  0.0206  0.3940  0.1580
25700W        W42547  17.096   0.312  12.283 -0.1047  0.0161  0.1881
25701W        W42548  17.855  15.617   2.944 -0.1812  0.0014  0.0664
25702W        W42549  17.256   7.469   4.599  0.3194  0.2303 -0.0885
25703W        W42550   6.557   8.989   3.485  0.1145  0.1635 -0.3164
25704W        W42551  14.980   1.103   1.819  0.2069 -0.1115 -0.0285
25705W        W42552   4.564   6.684  12.067  0.1525  0.0803 -0.0518
25706W        W42553   3.735   3.162   1.226 -0.0814 -0.0006 -0.2122
25707W        W42554  16.261   3.063  15.295 -0.1528 -0.1147  0.0884
25708W        W42555  10.333   0.017  15.156 -0.1636  0.1462  0.2058
25709W        W42556  15.529  15.145  12.036  0.0265  0.0620  0.2255
25710W        W42557  13.844   4.138  14.442  0.0038  0.0515 -0.1429
25711W        W42558  18.787  14.945  11.284  0.1168 -0.0526 -0.0424
25712W        W42559  10.663   7.735  11.213 -0.3439  0.0048 -0.1000
25713W        W42560   9.253   5.659   1.689  0.3048  0.4824 -0.2819
25714W        W42561  17.223   7.294   2.661  0.0541 -0.3364  0.2420
25715W        W42562   0.979   5.694   0.286  0.1487 -0.0276  0.1189
25716W        W42563  12.491  12.255   5.834  0.1108  0.3553 -0.1826
25717W        W42564   6.065   2.117  15.229 -0.0484  0.2886 -0.1834
25718W        W42565   0.711  15.427  13.788 -0.1745  0.3413  0.0116
25719W        W42566  12.852   2.909  14.817  0.0800 -0.1447  0.1267
25720W        W42567  17.820   1.284  13.926  0.3162 -0.1304 -0.0409
25721W        W42568  16.144  13.876   1.889 -0.0697 -0.2203  0.1203
25722W        W42569   0.175   6.695  14.669  0.2326  0.0341 -0.1639
25723W        W42570   5.827   5.306   1.429  0.3558  0.1117 -0.0178
25724W        W42571  15.757  18.300   4.016  0.2880 -0.0664 -0.4001
25725W        W42572   7.631  10.865   3.144 -0.2148 -0.1528 -0.0466
25726W        W42573  16.772   6.146   1.707 -0.2842  0.2051 -0.3076
25727W        W42574   7.988   1.683  12.950  0.0347 -0.1500  0.1427
25728W        W42575  17.648   1.057   0.768  0.0532  0.0713 -0.1155
25729W        W42576   0.874   0.285  15.494  0.1544  0.0409 -0.3889
25730W        W42577   3.505   7.915  14.411  0.0485 -0.0233  0.1982
25731W        W42578   1.446   3.200   1.441  0.0470  0.2754 -0.4011
25732W        W42579  14.151  18.578   0.753 -0.0216 -0.3636 -0.0824
25733W        W42580   9.185  14.897   0.925  0.1958  0.0064 -0.0943
25734W        W42581  14.869   0.070   0.415 -0.0142  0.0730 -0.0771
25735W        W42582   5.358   0.529  11.485  0.1555 -0.2325  0.0001
25736W        W42583  10.224   1.483  12.760 -0.2615 -0.1629 -0.0216
25737W        W42584   7.387  17.866  11.483  0.0436 -0.2334  0.1271
25738W        W42585   6.278  12.281  14.074  0.1733  0.2010 -0.2273
25739W        W42586  11.548   4.839   5.062 -0.0917 -0.4000  0.2251
25740W        W42587   2.821  11.116   5.586 -0.1656 -0.4059  0.2874
25741W        W42588  17.936  18.032  13.546  0.2773 -0.1060  0.1752
25742W        W42589   6.572  15.259  11.479 -0.2214 -0.2130 -0.1261
25743W        W42590  17.678   6.048  13.951  0.0227  0.1625  0.3639
25744W        W42591   5.981  12.739   5.588  0.1575 -0.1770  0.1005
25745W        W42592   3.915  11.012  11.451  0.1348  0.2222 -0.3053
25746W        W42593  16.003   9.459   2.783  0.0164 -0.2001 -0.0441
25747W        W42594  14.302  16.926   4.275 -0.3588  0.0956  0.2956
25748W        W42595  15.216  16.221  13.631 -0.1004  0.1997  0.0922
25749W        W42596   1.342  12.459   2.989  0.0680  0.3225  0.1390
25750W        W42597   5.250   9.684   4.084  0.0803  0.0985  0.1034
25751W        W42598   7.478   2.357  12.501 -0.4285  0.0026 -0.2027
25752W        W42599  13.699   5.863   4.682  0.0846  0.1057  0.1294
25753W        W42600  14.869   2.860  12.472 -0.2489  0.2302  0.2099
25754W        W42601   3.475  18.227   1.296  0.2589  0.0597  0.2283
25755W        W42602  14.825  16.534   3.321 -0.0396  0.0054  0.1836
25756W        W42603   4.434  13.273  13.888  0.0752  0.1163 -0.1941
25757W        W42604   8.308   2.052  14.467 -0.0801  0.0704  0.2981
25758W        W42605  15.536   0.091   2.341  0.0037 -0.0005 -0.1926
25759W        W42606  11.294   3.027   3.812  0.1092  0.0190  0.0411
25760W        W42607  15.167   4.454   2.235 -0.0574 -0.0718 -0.0002
25761W        W42608   7.074  11.404  10.675 -0.0898  0.0898 -0.1554
25762W        W42609  13.744   9.699   2.197  0.0611  0.0589  0.1284
25763W        W42610  11.580   7.609  11.821 -0.1736 -0.1329 -0.2519
25764W        W42611   4.579   4.451   5.841  0.2298 -0.0882  0.2333
25765W        W42612  14.180   1.157  14.703  0.0144 -0.1503 -0.2111
25766W        W42613   4.562   9.978   2.440  0.2507 -0.3434 -0.1263
25767W        W42614  16.187  10.359   0.458  0.1183 -0.0032  0.0003
25768W        W42615  11.221  10.693   4.591  0.1104  0.0636 -0.3263
25769W        W42616  12.079   2.946  12.818 -0.0747  0.0704  0.0807
25770W        W42617   0.420   4.769  12.504  0.0989  0.2835  0.2322
25771W        W42618   7.817  10.326  14.355 -0.0269 -0.1785  0.1844
25772W        W42619   7.345  18.762  14.350 -0.1838  0.3852 -0.1965
25773W        W42620   3.696  13.525  14.940  0.2223 -0.0873 -0.1356
25774W        W42621  12.094  11.575  12.641 -0.1708 -0.0101  0.2105
25775W        W42622  16.979   6.099  10.741 -0.2731  0.2778  0.4048
25776W        W42623   4.891   1.321   3.192  0.1136 -0.2942 -0.1339
25777W        W42624  15.382  18.496  13.252  0.0289  0.2403  0.0951
25778W        W42625   9.870   4.044  14.557  0.0472  0.1988  0.2329
25779W        W42626  14.822  18.705  15.023  0.1514  0.0465  0.0806
25780W        W42627   7.556   1.513   2.437 -0.0460  0.1328 -0.5854
25781W        W42628  10.526  15.844   3.867 -0.1116 -0.0996 -0.0158
25782W        W42629   7.742  15.379  11.821 -0.4619  0.1989  0.2117
25783W        W42630   3.066  16.016  15.172 -0.0253  0.1345  0.0523
25784W        W42631   1.774   6.820  11.907  0.3747  0.0585 -0.2853
25785W        W42632  15.107  13.037   1.611  0.0222 -0.0889  0.0469
25786W        W42633  18.338   2.016  11.572  0.0392 -0.0235  0.0936
25787W        W42634   4.065  16.248  12.667  0.1270  0.1186  0.1441
25788W        W42635  16.184  18.013   4.065 -0.1072  0.0336  0.0508
25789W        W42636   6.941  11.265  11.361  0.3915 -0.0544  0.0252
25790W        W42637   2.988   6.927  14.625 -0.2652 -0.0398  0.2459
25791W        W42638   5.963   0.285  11.667  0.0304 -0.2100  0.1229
25792W        W42639  17.136   3.847   4.326 -0.2060  0.0622  0.0247
25793W        W42640  12.101   1.030   3.953  0.0457  0.1875 -0.1656
25794W        W42641  10.532  11.228  15.047 -0.1989 -0.2048  0.0382
25795W        W42642  14.755   2.565  12.862  0.0979  0.2193  0.0383
25796W        W42643  16.295   6.725  10.649 -0.0530  0.0611 -0.2340
25797W        W42644  13.600   2.016   5.343 -0.0159  0.0453 -0.1650
25798W        W42645  15.640  12.343  11.646  0.2546 -0.1913 -0.4253
25799W        W42646  11.563  11.690  12.742 -0.1399  0.0856  0.0070
25800W        W42647  15.410  15.274  15.185  0.0219 -0.0948  0.1522
25801W        W42648   5.765   7.391  11.494 -0.2094  0.1362 -0.0939
25802W        W42649  17.315  14.422   0.907  0.1749  0.0640  0.1523
25803W        W42650  16.245   9.548  10.270  0.0592  0.1176  0.2225
25804W        W42651  17.445  10.688  14.794  0.1348 -0.1868  0.0281
25805W        W42652   3.561   4.958   0.268  0.0176  0.0374  0.2415
25806W        W42653  14.624   0.345  13.501 -0.3645  0.2670 -0.1413
25807W        W42654   3.337   7.576   0.817 -0.3694 -0.0072  0.4424
25808W        W42655  18.639  13.443  13.919 -0.1416 -0.1009  0.0140
25809W        W42656   0.998  18.688  14.211  0.4577 -0.1029 -0.0199
25810W        W42657   5.438   7.051   5.325  0.0109 -0.1706 -0.1480
25811W        W42658  10.337  11.458  13.562 -0.2034  0.1102 -0.4266
25812W        W42659  17.886   3.722  14.872 -0.3269  0.2100 -0.0559
25813W        W42660  17.677  15.989   5.729 -0.2922  0.0535 -0.1315
25814W        W42661   7.854  10.723  13.862  0.3362 -0.0550 -0.0275
25815W        W42662   6.079  10.708  14.242 -0.3186 -0.0745  0.0145
25816W        W42663  10.849   6.795   4.752 -0.1872  0.1774  0.1560
25817W        W42664  14.950   1.802  14.666  0.1398 -0.2372  0.0984
25818W        W42665  12.877   9.947  14.566  0.2103 -0.0458  0.0503
25819W        W42666   9.410  16.707   0.122  0.1846 -0.2393  0.0184
25820W        W42667   8.116  14.051  12.955  0.0152 -0.0425 -0.2201
25821W        W42668   4.532  13.632   0.815 -0.3498 -0.1096  0.0596
25822W        W42669  16.191  10.253  12.196 -0.2091  0.0577 -0.2248
25823W        W42670  14.298   6.107   0.633  0.3242 -0.1594  0.0721
25824W        W42671   1.746   6.662   2.035  0.0394 -0.0036  0.2108
25825W        W42672   8.255  18.142  11.245 -0.2629 -0.1440 -0.1320
25826W        W42673   3.722   4.614   2.301 -0.2273 -0.0346  0.1093
25827W        W42674   3.924   7.059  14.799 -0.2442  0.0076 -0.0884
25828W        W42675  13.759  17.293   1.021  0.0255 -0.2370  0.1185
25829W        W42676  12.198   7.046   4.832 -0.2578  0.2331  0.2014
25830W        W42677   5.786   9.176   2.858 -0.0158  0.4129 -0.1543
25831W        W42678  10.073   0.168   2.836 -0.1760 -0.0385 -0.0223
25832W        W42679   5.614  11.310  12.641  0.1225 -0.1395 -0.1560
25833W        W42680   4.669  15.049   4.317 -0.0776 -0.3389  0.1113
25834W        W42681   6.616   7.589   1.625  0.2124  0.0913  0.0801
25835W        W42682  17.964  11.135  12.922  0.3378 -0.1813  0.2448
25836W        W42683  11.093  17.193   3.517  0.1760 -0.2721  0.0574
25837W        W42684   8.544   3.947   3.668 -0.0033  0.2080 -0.1798
25838W        W42685  14.391   5.308   4.912 -0.0614 -0.0144 -0.0444
25839W        W42686   8.643   9.805   1.103  0.1331  0.1210 -0.0194
25840W        W42687  17.094   9.596  15.228 -0.1053  0.0697 -0.2477
25841W        W42688  13.479  12.421   0.544 -0.0477 -0.0082  0.2408
25842W        W42689  11.533  17.344  12.062  0.1262 -0.1468 -0.1083
25843W        W42690   3.470  13.267  11.606 -0.0211 -0.1842  0.0904
25844W        W42691  12.193   5.671  13.722 -0.0711 -0.0493 -0.3190
25845W        W42692   7.764   9.501   1.483  0.2563  0.1252 -0.2403
25846W        W42693  12.267   4.307   4.466  0.1089  0.1149 -0.2783
25847W        W42694   3.043   2.531  11.891 -0.0201  0.1596 -0.1068
25848W        W42695   2.504  15.831   0.411 -0.0670 -0.1007  0.1653
25849W        W42696   3.129   5.369   3.305  0.0629  0.2213 -0.0425
25850W        W42697   3.527   9.100  13.428 -0.3144  0.2593 -0.0407
25851W        W42698  17.955   2.349   2.577  0.2253  0.2526  0.3361
25852W        W42699  17.406  16.994   2.857 -0.4058 -0.2064  0.3020
25853W        W42700   2.619   0.409   4.428  0.0699  0.3455 -0.1268
25854W        W42701   8.567  12.783   3.261  0.2680  0.1187 -0.1499
25855W        W42702  17.588  16.013   3.197  0.1728 -0.1544 -0.1454
25856W        W42703   9.145  17.842  15.480  0.0245 -0.0633 -0.0197
25857W        W42704   6.382   2.897   0.675 -0.0388 -0.3336 -0.0805
25858W        W42705  17.053   7.030   1.147 -0.0497  0.2676  0.1382
25859W        W42706   7.327   3.855  11.020  0.2397 -0.1424 -0.2320
25860W        W42707   6.691  17.215  10.486 -0.1284  0.0509  0.1022
25861W        W42708  15.028   2.815  13.391  0.0466  0.0014 -0.0781
25862W        W42709   7.258  14.443  12.683 -0.0971 -0.1153  0.2929
25863W        W42710   6.516   0.228  11.702  0.0684  0.2282  0.2000
25864W        W42711   5.161   9.318   1.935  0.0383  0.1646 -0.1330
25865W        W42712  14.921  10.362   2.609  0.1358 -0.1240  0.0444
25866W        W42713  16.878  14.356  13.999 -0.1704 -0.0255 -0.1194
25867W        W42714   9.698  12.220  10.776 -0.0171 -0.0222  0.0811
25868W        W42715   2.680  17.259   4.652 -0.0707 -0.0388  0.1908
25869W        W42716   1.582  12.204   0.155 -0.1310  0.1065  0.0350
25870W        W42717   0.875  18.440  14.772  0.0302 -0.1773  0.0247
25871W        W42718   7.590   2.637  14.461  0.0453 -0.2135  0.0890
25872W        W42719  13.485  10.084   3.624  0.0562 -0.0887  0.0814
25873W        W42720   5.130   8.643  12.801  0.2243 -0.0211 -0.1484
25874W        W42721  13.302   5.726   2.607 -0.0197 -0.0393 -0.2555
25875W        W42722   5.248   8.045   3.348  0.1021 -0.0314 -0.0861
25876W        W42723  14.992   2.035  11.845 -0.1855 -0.2648  0.0462
25877W        W42724  16.271   5.721   3.581  0.2618 -0.0328 -0.0655
25878W        W42725   1.260  17.656  13.539  0.0770 -0.0829  0.3005
25879W        W42726  17.583  12.047   1.068 -0.1113 -0.2489  0.3090
25880W        W42727   8.800   3.252   3.594 -0.1175 -0.0336  0.0090
25881W        W42728   3.719   7.137  11.016  0.0293  0.1628 -0.0347
25882W        W42729  11.058   1.191  14.029  0.0825  0.0392  0.2575
25883W        W42730  15.662   4.695  14.517  0.0630  0.2860  0.4020
25884W        W42731   0.054  16.540   1.657 -0.1207  0.0605  0.0998
25885W        W42732  13.286  13.839   2.628 -0.2265 -0.0722 -0.1501
25886W        W42733  14.498  12.228   4.982 -0.1977  0.0134 -0.1530
25887W        W42734  13.174   7.284  13.219 -0.1324  0.1165  0.1348
25888W        W42735   7.179  13.477  11.671 -0.0186 -0.2794 -0.2157
25889W        W42736   9.134   0.843  15.431  0.1727 -0.2995 -0.2188
25890W        W42737   6.969   4.320   2.786  0.0796 -0.0647  0.0098
25891W        W42738  15.414   5.300  12.985 -0.2635  0.2773  0.1400
25892W        W42739  12.940  10.743  14.666  0.0968  0.2232  0.2878
25893W        W42740  10.771  12.940  15.390  0.0085  0.0179 -0.2132
25894W        W42741   5.810  10.160   2.991  0.2380 -0.1042 -0.0941
25895W        W42742  17.214  12.870  10.896  0.1298  0.1758 -0.0997
25896W        W42743  12.993   5.694   0.809  0.0560  0.1988  0.0228
25897W        W42744   2.737  16.765   3.066 -0.0858 -0.0816  0.3812
25898W        W42745   6.368   3.682   5.894 -0.1013 -0.0838 -0.1514
25899W        W42746  11.403   2.397   1.459 -0.0920  0.1471  0.1441
25900W        W42747  17.309   5.969  15.240  0.2434  0.0624  0.1708
25901W        W42748   7.899   5.261   2.432  0.1841  0.3830  0.1285
25902W        W42749  17.130   8.910  12.804  0.0877  0.1990  0.1062
25903W        W42750   3.687   1.729   5.000  0.1830  0.0311 -0.0767
25904W        W42751  15.043   5.000   2.519 -0.0338  0.0077 -0.0470
25905W        W42752  13.044   8.363   2.768 -0.0621 -0.0933 -0.2457
25906W        W42753   5.349   5.897  11.029 -0.0199  0.0746 -0.1789
25907W        W42754   6.166   2.785   1.130  0.0453  0.3725  0.0354
25908W        W42755  10.422  12.580   0.053 -0.1181 -0.2017  0.1121
25909W        W42756   0.514   2.855   2.212  0.1956 -0.0077  0.0770
25910W        W42757  17.406   2.913   3.445 -0.0491 -0.2030 -0.0797
25911W        W42758   6.714  18.822  11.287 -0.2560  0.5311  0.1834
25912W        W42759   6.828   4.770   4.798 -0.1956 -0.0953 -0.1006
25913W        W42760  18.355   1.420   0.512 -0.0709 -0.1191  0.0288
25914W        W42761  13.713   0.013  14.562  0.3808 -0.0451 -0.1843
25915W        W42762  11.636  13.621  11.629  0.2618  0.1319 -0.1888
25916W        W42763  16.636   7.316   1.953 -0.0627 -0.1147 -0.0318
25917W        W42764  15.758  15.801  12.741  0.0724 -0.0287  0.0725
25918W        W42765  12.183  12.585   4.622  0.1032  0.1060  0.1458
25919W        W42766   5.796   7.441   5.318  0.1526 -0.3029 -0.2948
25920W        W42767   2.787  14.361   2.934  0.1960  0.0752 -0.0849
25921W        W42768  18.121  10.082   4.445 -0.1090 -0.3691 -0.0243
25922W        W42769   0.114  13.630   2.339  0.2288 -0.0285  0.1704
25923W        W42770   1.875   4.012   0.785  0.0963 -0.1478 -0.0399
25924W        W42771   4.429   2.701   1.767 -0.1950  0.1044  0.0480
25925W        W42772   6.995  15.040   2.237 -0.0082 -0.0431  0.0648
25926W        W42773  12.421  12.934   1.672 -0.0253 -0.1100  0.4265
25927W        W42774   7.802  16.371   3.446 -0.0953  0.4853  0.2411
25928W        W42775  18.664   9.133   3.253  0.0388 -0.0012 -0.1329
25929W        W42776  13.404   9.554   3.562  0.0530 -0.0687  0.1294
25930W        W42777  11.792  12.245   1.039  0.0005 -0.0052 -0.0645
25931W        W42778   6.457   4.910   0.156  0.2845 -0.1918  0.3524
25932W        W42779   5.045  13.990  14.783  0.0763  0.2058 -0.0195
25933W        W42780   1.273  11.662   4.947  0.0167 -0.2649  0.0813
25934W        W42781  15.016  10.945  12.437  0.5243 -0.0014 -0.2796
25935W        W42782   9.457   9.705  14.036  0.1240 -0.0571  0.2990
25936W        W42783   1.635   0.250   4.592 -0.3239  0.1930 -0.0249
25937W        W42784  16.855  16.281   0.386  0.1035  0.0124  0.1232
25938W        W42785   8.193  11.395  12.847  0.2737  0.2610 -0.0006
25939W        W42786   5.209  15.278  14.223 -0.0043 -0.2318 -0.1082
25940W        W42787   0.576   6.518   3.051  0.0538  0.3952 -0.1765
25941W        W42788  17.732  18.822   0.821 -0.0223 -0.0602  0.0822
25942W        W42789  11.916  17.119   0.599 -0.1519 -0.1777 -0.0872
25943W        W42790  10.139   0.807   3.580  0.1751 -0.0753  0.0075
25944W        W42791  10.628   9.146  10.924 -0.2614 -0.4461  0.0343
25945W        W42792   8.850  16.653   2.080  0.1671  0.3816 -0.0267
25946W        W42793   1.678   8.631   1.297  0.3563 -0.4489  0.1399
25947W        W42794  18.419  10.114   2.940 -0.1216 -0.2861 -0.2967
25948W        W42795   7.198   3.493  11.841 -0.2527  0.0592  0.0229
25949W        W42796   2.133   2.112   0.305  0.0487  0.1174 -0.0162
25950W        W42797   1.412  16.748   5.028 -0.1969 -0.0903  0.2755
25951W        W42798  11.563   2.794   2.687 -0.1592 -0.0395  0.1423
25952W        W42799   2.177   4.024   4.739  0.2014  0.0018 -0.1142
25953W        W42800   7.319  17.088  10.969 -0.2906  0.0012  0.0049
25954W        W42801   6.792   9.587  12.106 -0.3557  0.1407 -0.3017
25955W        W42802   6.922  15.269  12.167  0.0209 -0.1785  0.0610
25956W        W42803  12.424   7.958   3.864 -0.1602 -0.1746 -0.0823
25957W        W42804  11.476   9.080   1.029 -0.1181 -0.0746  0.1385
25958W        W42805   0.979   2.666  14.343  0.1008 -0.2830  0.0272
25959W        W42806  18.725   8.883   9.838 -0.4218  0.2324 -0.3293
25960W        W42807  14.659   4.380   3.860 -0.3713  0.1676  0.4712
25961W        W42808  13.587   5.045   0.444  0.1230 -0.0276  0.0259
25962W        W42809   0.258   5.398  11.905  0.0349  0.2961  0.3565
25963W        W42810  16.982  15.948   2.479 -0.1902 -0.1104  0.0059
25964W        W42811  16.579  13.762   1.536  0.0634  0.1075 -0.2158
25965W        W42812   5.162   6.628   4.748 -0.0507  0.1998 -0.0543
25966W        W42813   0.640   1.110   1.047 -0.1535  0.2037  0.1801
25967W        W42814  10.717   7.760  14.319  0.1491 -0.1001  0.1666
25968W        W42815  11.266  13.332  10.822  0.0411  0.0428  0.1978
25969W        W42816   2.040   2.136   3.518 -0.0268  0.0589  0.2024
25970W        W42817   8.941   9.676  14.127 -0.0802 -0.0695 -0.2226
25971W        W42818   1.685   2.031   2.305  0.1065 -0.1135 -0.1697
25972W        W42819   2.909   3.574   4.449 -0.1229 -0.2857  0.0366
25973W        W42820   8.952  17.050   1.270 -0.0511  0.1503 -0.0078
25974W        W42821  10.661  10.651   4.474  0.2365 -0.2442 -0.0593
25975W        W42822   5.543   9.016  15.153 -0.1264  0.0967  0.0252
25976W        W42823   5.232  17.233  11.315 -0.1615  0.1764 -0.1388
25977W        W42824   0.850  15.924  13.561  0.1593 -0.0693  0.0611
25978W        W42825   1.792   5.108  15.520  0.0176 -0.2202  0.0869
25979W        W42826  11.895  15.407   1.122  0.2347 -0.1300 -0.2645
25980W        W42827   3.089   7.350   3.045  0.2601  0.1806 -0.1992
25981W        W42828  16.120   2.658  10.627  0.0616  0.0031 -0.1615
25982W        W42829   1.377  10.161   1.246 -0.1589  0.0854  0.1553
25983W        W42830   5.474   7.379  13.777  0.0970  0.2538  0.2284
25984W        W42831  12.940   5.046   4.391  0.1998 -0.0582 -0.2966
25985W        W42832   4.170   6.539   1.991 -0.1265  0.2391  0.0035
25986W        W42833   3.817  16.747   2.970  0.0912  0.0063 -0.0658
25987W        W42834   3.912  17.264   1.201  0.1546 -0.0930  0.0925
25988W        W42835   6.425  13.781  13.274  0.0297  0.3765  0.1529
25989W        W42836   5.927   0.947   1.554 -0.2309  0.1174  0.2389
25990W        W42837   0.127   0.429  11.530 -0.1753  0.2479  0.0431
25991W        W42838   2.991  16.741   1.270 -0.0392 -0.0180 -0.0007
25992W        W42839  17.973   9.007  13.330 -0.2161  0.3382 -0.0156
25993W        W42840  17.700   3.488   9.681  0.1166  0.0714 -0.3081
25994W        W42841   9.505   6.670  11.200 -0.3812  0.1412 -0.0336
25995W        W42842  10.772  11.321   4.073 -0.0490  0.0540  0.1575
25996W        W42843   3.619  10.811   1.554  0.1791 -0.0450  0.0500
25997W        W42844  17.200   7.393   2.124 -0.1847  0.1267  0.0373
25998W        W42845  18.433   7.314   1.409  0.3355 -0.3191 -0.4825
25999W        W42846  18.812   4.412  14.214 -0.1015  0.3333  0.1448
26000W        W42847   7.364   9.443   5.338 -0.1542 -0.2522 -0.1093
26001W        W42848  10.138  18.614   5.718 -0.0571 -0.0302 -0.0530
26002W        W42849   7.737   3.806   0.194  0.2028  0.1384 -0.1466
26003W        W42850  17.219  14.067   2.106  0.1439 -0.1578  0.2121
26004W        W42851   4.547  10.278   3.284  0.5711 -0.0141 -0.1713
26005W        W42852  12.535  15.273  11.454  0.2958 -0.1753 -0.1940
26006W        W42853  16.374  13.145   1.805  0.1960 -0.1980  0.0656
26007W        W42854  17.808   8.620   4.703  0.0617  0.2279  0.1621
26008W        W42855   2.153  17.961   2.261 -0.2334 -0.1592 -0.0008
26009W        W42856   8.108   1.622  13.567 -0.1079 -0.0785 -0.0760
26010W        W42857  18.617  17.706   4.836 -0.2727 -0.2268 -0.0573
26011W        W42858   4.143   7.472  15.250 -0.1724  0.0396 -0.0058
26012W        W42859   3.749   2.815   3.934  0.3468  0.1900 -0.5035
26013W        W42860  14.089  17.292   0.205  0.1553 -0.2310 -0.0178
26014W        W42861   4.068   3.546   0.404  0.1088  0.1446 -0.2156
26015W        W42862   9.311   1.753  12.509  0.2008 -0.0286  0.1157
26016W        W42863  18.715  18.028  13.216  0.1512 -0.0050  0.2361
26017W        W42864   2.802  15.059  15.152  0.2435  0.0279 -0.0942
26018W        W42865  15.178   9.498   3.668  0.0827 -0.1875  0.3881
26019W        W42866   3.873  17.502  13.074 -0.1107  0.0238 -0.2664
26020W        W42867   2.745  18.680   2.425  0.1955  0.0639  0.0202
26021W        W42868  18.744  17.470  13.153  0.1964  0.2384  0.1436
26022W        W42869  12.836   8.755  12.575 -0.1609 -0.0477 -0.2313
26023W        W42870   7.198  16.761  12.137  0.0832 -0.3058  0.2161
26024W        W42871  12.160   4.210  13.303 -0.0547 -0.0521 -0.3605
26025W        W42872   2.448   0.600   1.270  0.3904 -0.0763 -0.0714
26026W        W42873  17.703  18.291   3.066  0.1779 -0.2339 -0.0069
26027W        W42874   3.156  11.394  11.465  0.0117  0.0963  0.1008
26028W        W42875   1.667   9.899  12.832 -0.1477  0.2040 -0.1229
26029W        W42876  17.988   0.727  14.814 -0.1902 -0.2286 -0.0740
26030W        W42877   7.677   6.543  13.713  0.5078  0.1795 -0.1807
26031W        W42878  12.651   1.628  14.162  0.0190  0.0973 -0.3495
26032W        W42879  15.394   8.720   2.462 -0.0720  0.2148  0.1037
26033W        W42880   3.588  15.240  14.065  0.0978  0.0750 -0.0433
26034W        W42881   5.464  11.219  11.582 -0.1724  0.1213 -0.0433
26035W        W42882  14.437  11.597   2.639  0.0762 -0.1741  0.0846
26036W        W42883   5.699  15.927  14.681  0.0023 -0.0048  0.2432
26037W        W42884  11.357  15.189  12.055 -0.1252  0.2110 -0.0738
26038W        W42885  12.866   6.235   5.708  0.0324 -0.3758 -0.0320
26039W        W42886  12.469   8.217  13.316 -0.0818  0.0033  0.0195
26040W        W42887  11.373  11.586   4.237 -0.0949 -0.0063  0.2159
26041W        W42888  13.410  13.833   0.728  0.2896  0.0446  0.2637
26042W        W42889  18.654   6.543   0.241  0.2505 -0.0318 -0.0443
26043W        W42890   4.879   5.998  11.282  0.0538 -0.0025  0.0133
26044W        W42891   7.694   5.608  12.535  0.0863 -0.1486 -0.0688
26045W        W42892   7.922   5.839   1.464 -0.2735 -0.0162  0.0137
26046W        W42893  13.128  13.698   4.479 -0.0745 -0.1511 -0.0738
26047W        W42894  13.671   6.341  14.120 -0.0365  0.3761 -0.2985
26048W        W42895   0.741  14.879   3.230 -0.4933  0.0178 -0.0066
26049W        W42896  11.179   6.893  11.272  0.2053  0.0536 -0.1152
26050W        W42897  13.980  11.024   4.863 -0.1034 -0.2678 -0.2023
26051W        W42898  14.415   9.573   0.465 -0.2268  0.0135  0.0521
26052W        W42899  16.183   1.496  13.008 -0.2035 -0.0056  0.4300
26053W        W42900  12.530   5.545   0.996 -0.0860  0.2416 -0.0244
26054W        W42901  12.451  17.139   1.190 -0.1132 -0.1007  0.0774
26055W        W42902   8.700  18.343   3.907 -0.1721  0.0888 -0.2142
26056W        W42903   7.547   4.191   3.876 -0.1909 -0.0495  0.0254
26057W        W42904  18.847   8.299   4.640 -0.0142  0.0213  0.0701
26058W        W42905   8.914   8.326  12.939 -0.2356  0.1821 -0.1621
26059W        W42906   3.229  15.621   4.302 -0.1261 -0.0767 -0.1053
26060W        W42907   2.648  12.270   2.176  0.0315  0.0392 -0.1152
26061W        W42908  11.992   3.880   2.907  0.2147 -0.0275  0.2061
26062W        W42909   9.644  12.638  11.727  0.0972  0.3747 -0.0235
26063W        W42910  10.710   7.691  12.091  0.1458  0.1848  0.0769
26064W        W42911  14.912  12.051  11.825 -0.0983 -0.3506 -0.2316
26065W        W42912  18.468  13.788   2.140 -0.0271 -0.0066  0.2641
26066W        W42913   1.424  13.546   2.840  0.3636  0.0461 -0.2002
26067W        W42914  13.988   0.468   3.814  0.2343 -0.0827 -0.0872
26068W        W42915  17.780   1.601  12.168 -0.1626 -0.1031  0.1670
26069W        W42916  18.666  10.560  14.123 -0.0479  0.0924  0.1853
26070W        W42917  15.810   0.202   2.804 -0.3390  0.0870  0.0060
26071W        W42918  13.568   0.704   3.268 -0.1592  0.0673 -0.5313
26072W        W42919  13.471  16.130   2.600  0.2498  0.2098 -0.0243
26073W        W42920   4.242  15.821   1.271 -0.1861  0.0491  0.0660
26074W        W42921   7.067  14.860  13.410  0.0132  0.0781 -0.1699
26075W        W42922   1.992  16.047   3.234  0.0597 -0.1013 -0.1894
26076W        W42923   1.973  10.695  12.857 -0.2822  0.0072 -0.2484
26077W        W42924   3.953  15.430  10.844  0.1082  0.1950 -0.0245
26078W        W42925  10.177  16.962   1.866 -0.4161 -0.4229 -0.1933
26079W        W42926  12.347  17.171   0.065 -0.3004  0.1145 -0.0255
26080W        W42927   5.980   3.017  11.195  0.2118  0.1501  0.1337
26081W        W42928  16.791  16.090   1.303  0.2570 -0.1217  0.2218
26082W        W42929   4.721   2.625   2.546 -0.0522  0.0287  0.1177
26083W        W42930  12.898   3.756   4.484  0.0218  0.1453 -0.0753
26084W        W42931  18.351   8.684  15.338  0.0555  0.2031  0.0817
26085W        W42932   3.299  17.705  10.881 -0.0394  0.1893 -0.1015
26086W        W42933  16.630   1.328  14.708 -0.1454  0.1265 -0.1034
26087W        W42934  13.367   4.005  14.095  0.0681 -0.0160  0.0948
26088W        W42935  15.522  16.114   5.136  0.2407  0.3389 -0.0665
26089W        W42936  12.917   4.999  15.172  0.0275  0.3534 -0.3500
26090W        W42937  12.302   2.581   5.627  0.4479  0.0246  0.0378
26091W        W42938   1.669   2.206  11.927 -0.0779  0.0336 -0.1795
26092W        W42939   4.741  12.939   0.052  0.4211  0.2192 -0.0040
26093W        W42940   6.457   8.173   0.205 -0.2650 -0.3007  0.0907
26094W        W42941   3.181  14.025   3.750  0.2164 -0.0472 -0.1842
26095W        W42942  12.526   4.751   4.451 -0.4064  0.0826  0.0622
26096W        W42943   5.236   9.394   9.954 -0.3003  0.0641  0.0006
26097W        W42944  12.237   6.876   5.279  0.2407 -0.1819 -0.1416
26098W        W42945  17.887   6.726  15.249  0.0249  0.2014  0.0869
26099W        W42946   0.995   8.518  13.046 -0.0955  0.1277  0.0762
26100W        W42947  13.796  13.229  14.193  0.0529  0.2918 -0.2979
26101W        W42948   6.808   2.719   4.570 -0.0560  0.1260 -0.3161
26102W        W42949  15.699   9.763   4.564  0.2421 -0.0910  0.3386
26103W        W42950   5.115  14.517  11.306 -0.0786 -0.1689  0.0626
26104W        W42951   2.594   8.424  11.310 -0.2777 -0.0251 -0.0692
26105W        W42952  18.312  16.507   4.940 -0.1309  0.2759 -0.3423
26106W        W42953  15.295  14.750  13.636 -0.0821  0.2423 -0.1747
26107W        W42954   1.526   9.045   0.125  0.4236  0.0398  0.0970
26108W        W42955   6.715  11.128   4.507  0.2817  0.2296  0.0943
26109W        W42956  11.646   2.871   1.233 -0.0194  0.0257 -0.2088
26110W        W42957  18.366   4.675  12.363 -0.0363  0.0096  0.0241
26111W        W42958   0.246   3.150  11.269  0.2368 -0.0823 -0.3238
26112W        W42959   6.217   7.511   1.903  0.1628  0.2043  0.3693
26113W        W42960   3.072  12.654   3.639 -0.1229 -0.2784  0.1635
26114W        W42961   1.811   9.889  12.392 -0.4320  0.2860 -0.2463
26115W        W42962   2.014  11.026   0.725 -0.0687 -0.0570 -0.0651
26116W        W42963  12.185  15.453   2.592  0.1673  0.2567 -0.1631
26117W        W42964  12.493   4.523  15.183 -0.1643 -0.3300  0.1842
26118W        W42965   4.276   6.311   1.528 -0.3912  0.0014 -0.2081
26119W        W42966   0.112  17.617  12.615 -0.1742  0.0390  0.0933
26120W        W42967   2.603   9.814   1.961 -0.0774  0.0384  0.0289
26121W        W42968   9.511  17.457   1.225 -0.0428 -0.1954 -0.3297
26122W        W42969   7.342   5.393  15.021 -0.4287 -0.0016 -0.0212
26123W        W42970   4.820   7.926   0.758  0.1375 -0.1027 -0.3295
26124W        W42971  10.703   9.987  14.921 -0.0024 -0.0768 -0.0294
26125W        W42972   4.493   0.127  13.836 -0.0296  0.1011 -0.1430
26126W        W42973  11.632   6.420   0.531 -0.1929  0.0899  0.1476
26127W        W42974  12.842  10.170   1.531 -0.4461  0.1350  0.3476
26128W        W42975   7.841  11.815  14.676 -0.2230  0.3138 -0.0589
26129W        W42976  14.472  10.287  10.858  0.1144 -0.2117  0.0262
26130W        W42977  15.335  16.874   3.132  0.2060  0.3695  0.2339
26131W        W42978   6.442   1.642   4.188 -0.1970  0.0375 -0.0896
26132W        W42979   7.817  10.738  13.370 -0.1094  0.1953 -0.0325
26133W        W42980   1.865   3.777  14.188 -0.0150 -0.1229 -0.1021
26134W        W42981   6.714  12.254   3.619 -0.1406  0.0986 -0.1976
26135W        W42982  14.262   0.189  11.257  0.0223  0.0251 -0.3874
26136W        W42983   6.794  13.305  13.982  0.3532 -0.0167  0.3306
26137W        W42984   4.840   7.425   5.056  0.0441  0.2181  0.0271
26138W        W42985   3.526  13.870   3.430  0.2461 -0.0172 -0.0253
26139W        W42986  15.417   9.891  11.220  0.5942  0.0291  0.1899
26140W        W42987  12.218  16.511   3.321 -0.1189 -0.2245  0.2324
26141W        W42988   0.090   1.071  12.874  0.1446 -0.1337 -0.0140
26142W        W42989   6.339   1.868  11.859 -0.3432 -0.0606 -0.0470
26143W        W42990   8.488  18.575   4.301 -0.0580 -0.0301  0.2587
26144W        W42991  15.981   9.126   4.832 -0.0013  0.0005  0.1505
26145W        W42992  15.278  10.388  14.622 -0.2818 -0.3258  0.4301
26146W        W42993   0.735  17.735   0.127 -0.1299 -0.1275 -0.2996
26147W        W42994  14.126   3.114  14.905 -0.0012  0.1224 -0.0156
26148W        W42995   5.600  16.150   0.042 -0.3731 -0.3026  0.3874
26149W        W42996  10.379  15.418   4.070 -0.1260  0.3671  0.2054
26150W        W42997  14.281   2.265   3.075 -0.1738  0.1030  0.3011
26151W        W42998  18.482   6.996  12.301 -0.0180 -0.0334 -0.1965
26152W        W42999  14.632  13.384  11.024  0.1294 -0.0829  0.1123
26153W        W43000   2.861  12.429  14.774 -0.0204  0.0170 -0.2225
26154W        W43001  11.306  11.050  12.086  0.3596  0.1142 -0.0131
26155W        W43002   4.669   2.073   3.447 -0.0291 -0.0311 -0.1824
26156W        W43003  17.708   2.077  14.372  0.4049 -0.2375  0.0083
26157W        W43004  14.825  10.055  12.534  0.1530  0.1792  0.0100
26158W        W43005  17.957   4.413   4.106 -0.1146  0.0816 -0.0136
26159W        W43006   4.488   9.399  12.715 -0.0654  0.0139  0.0784
26160W        W43007   0.577   6.166  11.425  0.1528  0.0323 -0.1219
26161W        W43008  16.242   8.961  12.188  0.0128  0.1546  0.0812
26162W        W43009  14.294   1.540  14.085 -0.0589 -0.3836  0.0153
26163W        W43010   9.878  15.948   3.480 -0.0092  0.0873  0.3708
26164W        W43011  18.216   7.462   1.857 -0.0494  0.1204 -0.2678
26165W        W43012   2.393  10.274  11.238 -0.1310  0.1379 -0.0679
26166W        W43013   9.671  14.208  15.217  0.0824 -0.0675 -0.2644
26167W        W43014   9.196  15.188   0.481 -0.0806 -0.2868  0.2472
26168W        W43015  12.186  12.271   4.268 -0.2162  0.1907 -0.0155
26169W        W43016   1.728   4.232  12.677 -0.2300 -0.1628  0.0819
26170W        W43017  12.564   8.617   0.557  0.1716 -0.0967 -0.2530
26171W        W43018  15.534   4.956  14.105  0.0325 -0.0543  0.3577
26172W        W43019   2.014   0.978   4.620 -0.1139 -0.1435  0.1930
26173W        W43020   4.861   5.504   1.512 -0.1706  0.3544 -0.1883
26174W        W43021   6.313   3.250  14.614 -0.3474  0.1256 -0.1182
26175W        W43022  15.636   4.252  11.238 -0.3589  0.1117  0.1018
26176W        W43023  12.878   0.855  10.960  0.2305 -0.0663  0.0571
26177W        W43024  13.551  17.306   1.877 -0.1319  0.0099  0.0758
26178W        W43025  14.872  16.200  13.277 -0.0233  0.1866  0.1382
26179W        W43026  15.732   3.617  11.442  0.0692 -0.1202  0.0460
26180W        W43027   7.971  12.373  15.331 -0.0788  0.0484 -0.1694
26181W        W43028   9.641   5.668  12.806  0.0784  0.5133 -0.2465
26182W        W43029   5.539  16.435  11.850 -0.0339 -0.0232 -0.0928
26183W        W43030  11.622   2.168   0.991  0.2061  0.3309 -0.0189
26184W        W43031   9.803   1.491  13.183 -0.2234 -0.4110 -0.2182
26185W        W43032   2.133  16.380   4.278  0.1254  0.0495  0.2170
26186W        W43033  16.457   9.751  14.321 -0.0987 -0.1375  0.1257
26187W        W43034  13.021  16.023  13.994  0.3088  0.1593  0.2822
26188W        W43035  18.819  15.122  14.608 -0.1113 -0.2019  0.0555
26189W        W43036   8.199  13.870  13.425  0.1308 -0.0035  0.4654
26190W        W43037   8.056   2.379   2.370  0.2239 -0.0899  0.0112
26191W        W43038  16.786  16.166  12.170 -0.0517  0.0431  0.0435
26192W        W43039   8.094  10.096   4.150  0.0170 -0.1009  0.0164
26193W        W43040   7.545  11.062  11.842 -0.1182 -0.2090 -0.0309
26194W        W43041  17.063  13.968   4.121 -0.0238  0.2564 -0.1938
26195W        W43042  11.964   9.046  14.163  0.1561 -0.0560 -0.0887
26196W        W43043   0.972   3.157  11.631 -0.1375  0.0569  0.0212
26197W        W43044  14.342  14.633  11.540 -0.0863  0.4341  0.0102
26198W        W43045   3.943   0.687  15.370  0.1255  0.0745 -0.2920
26199W        W43046   9.290  16.624   1.209  0.1874  0.1471  0.0880
26200W        W43047   4.498  16.071   2.496 -0.2909 -0.0973  0.1097
26201W        W43048   2.886  17.739  14.252  0.0645 -0.2056  0.1809
26202W        W43049   4.814  15.330   3.081  0.2635 -0.0738 -0.1852
26203W        W43050  16.583   6.937  15.407  0.2705  0.3923  0.0612
26204W        W43051   5.245  16.815   2.834 -0.2437 -0.0347 -0.1583
26205W        W43052   6.694   8.142  12.597 -0.0779  0.3823 -0.0673
26206W        W43053  17.541   2.383   1.128 -0.1242  0.0081  0.0688
26207W        W43054   5.039   4.641   1.808  0.1009  0.2843 -0.2323
26208W        W43055   3.526   4.617  11.175  0.0587 -0.1063 -0.2185
26209W        W43056  12.574  12.567  14.819 -0.2233  0.3256  0.0289
26210W        W43057   0.782   8.664  13.492 -0.2943  0.0133  0.2313
26211W        W43058  15.047  12.328   0.868 -0.3194  0.0828 -0.0487
26212W        W43059   8.468   3.667  14.274 -0.0316 -0.1521 -0.0263
26213W        W43060   8.715   1.032  14.364  0.0739  0.0846 -0.3534
26214W        W43061  11.153   5.696   0.173  0.2249 -0.0003  0.0959
26215W        W43062   0.035  11.323   5.129  0.0507 -0.0952  0.1499
26216W        W43063   9.241  16.674   3.397 -0.0459 -0.2185  0.2023
26217W        W43064   7.950   9.571  12.698  0.0612 -0.2297  0.1395
26218W        W43065   0.589   1.339   4.920  0.1224 -0.0570 -0.1180
26219W        W43066   2.185  12.251   1.970 -0.2111  0.0372 -0.3069
26220W        W43067  16.693  14.085   3.425 -0.3081 -0.1148  0.0733
26221W        W43068  13.468   3.707   4.413  0.2775  0.2596 -0.0344
26222W        W43069  11.645  15.292  14.581 -0.0900 -0.0445  0.0770
26223W        W43070  17.932  16.943   3.608 -0.0393 -0.0780  0.1436
26224W        W43071  11.071   2.086   1.044  0.0767 -0.1643  0.2781
26225W        W43072  10.719   0.443   1.438  0.2692 -0.2129 -0.0044
26226W        W43073   3.284   7.510   2.529  0.2536  0.0951 -0.1989
26227W        W43074  16.440  17.063   3.101 -0.2089  0.1273 -0.1071
26228W        W43075  16.032   3.713  12.501 -0.1448 -0.1055 -0.1389
26229W        W43076   2.239  16.486   3.097 -0.0656  0.3222  0.1065
26230W        W43077   6.505   4.896  11.635  0.0109  0.0733  0.1129
26231W        W43078  13.200   0.971   0.115  0.1056  0.0943 -0.3103
26232W        W43079  14.282   0.390  13.076  0.3233  0.0819  0.0717
26233W        W43080  18.221   0.156  13.413 -0.4311  0.0195  0.0954
26234W        W43081   6.376  15.594   0.685  0.0998  0.1370 -0.0572
26235W        W43082   9.119  15.474  11.798  0.1218  0.2603  0.1384
26236W        W43083   8.968  14.799   1.845  0.1236  0.4142 -0.3014
26237W        W43084   5.058   2.018  12.478  0.0079 -0.0358 -0.0578
26238W        W43085   1.276  16.318  11.758 -0.0315 -0.0745  0.1088
26239W        W43086   9.724   9.087   1.195  0.2795 -0.1081 -0.0353
26240W        W43087  17.120  14.138   3.603  0.0210 -0.1030 -0.1307
26241W        W43088  10.444  13.790   0.537  0.0707 -0.1080 -0.3955
26242W        W43089   7.772  18.586   2.420  0.1412 -0.2980  0.2982
26243W        W43090   7.769  13.395   2.137  0.3418 -0.4617 -0.2701
26244W        W43091   5.506  14.275  13.140 -0.0850  0.0127 -0.0399
26245W        W43092   7.778   0.507  11.028  0.1684  0.1347 -0.0091
26246W        W43093   2.339  18.644  10.766  0.2162  0.1324 -0.2294
26247W        W43094  11.067  10.568   3.371 -0.0167 -0.3105 -0.0328
26248W        W43095   8.605  10.700   5.385  0.0441 -0.5706  0.1414
26249W        W43096  10.798  12.223   4.423 -0.0591  0.4198  0.0793
26250W        W43097  17.613  16.975   5.530 -0.3038  0.2136 -0.1130
26251W        W43098  16.784   0.351   1.234  0.1203  0.0267 -0.0355
26252W        W43099  13.410   4.297  11.727  0.2650  0.0042  0.1027
26253W        W43100  14.460   0.884   0.980  0.0316 -0.0207  0.0434
26254W        W43101   0.159  10.980  12.071  0.1025 -0.1328  0.0324
26255W        W43102   6.016  16.374  12.082  0.0084  0.1589 -0.0956
26256W        W43103  11.447  17.040  10.413  0.1830 -0.1374  0.1298
26257W        W43104  16.540   9.595   1.957 -0.0172 -0.2713 -0.1063
26258W        W43105   9.253   5.278   2.670  0.0186  0.0741  0.3029
26259W        W43106  17.581   3.587  15.321  0.0733  0.0017 -0.4232
26260W        W43107  11.858  16.543  11.059  0.1474 -0.2388  0.0774
26261W        W43108   0.641  13.428  12.129 -0.1936  0.0506  0.0048
26262W        W43109  16.831   5.289   4.310 -0.1104 -0.0497 -0.0452
26263W        W43110  15.309   6.545  12.580 -0.0937  0.1770 -0.2624
26264W        W43111   9.412   1.627  10.868 -0.3444 -0.1465 -0.1476
26265W        W43112  10.978  12.652  10.602  0.1003 -0.0210  0.0210
26266W        W43113  11.421   7.409   2.681  0.4448  0.0425 -0.1432
26267W        W43114   1.076   8.532   4.155 -0.2119 -0.1478  0.0306
26268W        W43115  18.808   2.349  13.311  0.2975  0.1223  0.3688
26269W        W43116   6.561  14.637   0.481  0.1335 -0.1376  0.0862
26270W        W43117   3.101  11.412   2.932  0.1065  0.4633 -0.2607
26271W        W43118   6.539   6.736  11.005 -0.0862  0.1057  0.0354
26272W        W43119  10.844  13.174  11.012 -0.1926 -0.2437 -0.1731
26273W        W43120  14.601   2.461  14.127  0.2201  0.3125  0.1863
26274W        W43121  11.129  10.900  13.305  0.1326  0.2495  0.0085
26275W        W43122  12.233   1.737  15.250 -0.0183  0.0354 -0.0824
26276W        W43123  10.668  12.240   5.135  0.3212  0.1718  0.0096
26277W        W43124  18.659   3.090  10.486 -0.1584  0.1634  0.2054
26278W        W43125  16.958   6.729  12.835  0.3211 -0.0006 -0.0663
26279W        W43126  13.731   8.234   3.359  0.0592 -0.0864 -0.1369
26280W        W43127  12.581  12.136   3.985 -0.1568  0.0939  0.0204
26281W        W43128   3.833   1.083   1.513 -0.0380  0.4278 -0.1824
26282W        W43129   7.873   7.551  13.024  0.1619 -0.0805 -0.3663
26283W        W43130   7.406   1.212   4.489  0.0410 -0.0752 -0.0247
26284W        W43131  18.073  18.356   2.721 -0.1205 -0.0619  0.3741
26285W        W43132   9.667   4.101   2.781 -0.1321 -0.1960 -0.1465
26286W        W43133   8.144  10.989   0.713  0.0711 -0.1879 -0.0161
26287W        W43134   9.482  16.959  10.995 -0.0454 -0.1548 -0.0448
26288W        W43135   3.782   2.450   3.241 -0.1790 -0.0185 -0.0317
26289W        W43136   9.967   4.258   0.005  0.1293 -0.2166 -0.2143
26290W        W43137  18.828   7.764  13.065 -0.0753 -0.0737  0.2188
26291W        W43138   6.062   2.931   3.813 -0.0543 -0.1447  0.0502
26292W        W43139  14.117   4.197   1.717  0.0708 -0.1985 -0.0744
26293W        W43140  10.364  16.898   2.799 -0.4375  0.2341 -0.1895
26294W        W43141   1.499  13.995  14.706 -0.2485 -0.3136 -0.2455
26295W        W43142  16.281   2.669   1.844  0.0161  0.0721  0.0692
26296W        W43143  14.336  18.794  14.790 -0.1110 -0.2181 -0.2332
26297W        W43144  16.413   4.860   3.580 -0.2583  0.1534  0.1461
26298W        W43145  13.914   3.756   0.835  0.1373  0.0526  0.0050
26299W        W43146   4.606   7.636  15.306 -0.1835 -0.1056  0.0526
26300W        W43147   6.220  10.481  14.800 -0.1721  0.1490 -0.2809
26301W        W43148  13.019  13.003   0.342 -0.2002  0.0981  0.3630
26302W        W43149   3.552  12.519   3.577 -0.0807 -0.3939 -0.1465
26303W        W43150   7.670  14.141  12.803  0.1297 -0.0807 -0.2788
26304W        W43151  10.556  16.749  12.382 -0.2318 -0.1051  0.0619
26305W        W43152   5.376   7.028   4.368  0.1862 -0.1062 -0.0792
26306W        W43153  10.082  12.051   5.083 -0.0343  0.2063 -0.0979
26307W        W43154   5.250  18.563   2.261 -0.0428  0.0403  0.1417
26308W        W43155  11.902   6.832   3.451  0.1726  0.0366  0.2085
26309W        W43156   7.395   5.095   0.299 -0.1979 -0.0814 -0.0047
26310W        W43157   1.874  17.788   0.095  0.2360  0.2172  0.1292
26311W        W43158   3.541   7.337   2.917  0.1201  0.3352 -0.1233
26312W        W43159  18.543   3.524   2.519 -0.1901 -0.0272 -0.0726
26313W        W43160   4.765   9.227   1.627  0.1809  0.2474  0.1110
26314W        W43161  11.967   0.378  12.763 -0.1659  0.0958 -0.0233
26315W        W43162   4.820  10.995   4.488 -0.1095 -0.0255  0.0721
26316W        W43163  18.139   4.829  15.088 -0.4332 -0.0323  0.1122
26317W        W43164   0.036   2.843  12.545 -0.1512 -0.1560  0.1550
26318W        W43165  15.989   3.391   4.780  0.1157  0.5308 -0.2503
26319W        W43166  17.232   1.940   3.548 -0.2040 -0.2828 -0.0074
26320W        W43167  18.081  14.598   4.876 -0.1031 -0.2274 -0.0190
26321W        W43168  12.549  12.623  11.442 -0.0045  0.1394  0.1146
26322W        W43169  18.686  17.361   1.848  0.0526  0.1440 -0.0698
26323W        W43170   5.745  15.115   1.384 -0.2805 -0.0424 -0.1216
26324W        W43171  17.375  10.588   3.586 -0.1714 -0.1211 -0.0475
26325W        W43172   0.768  15.332   4.936 -0.0840 -0.2242 -0.0506
26326W        W43173  12.263   9.460  14.166  0.3507  0.0793  0.0457
26327W        W43174   3.641   0.954   4.461  0.2070  0.1827  0.2984
26328W        W43175   9.562   2.249   1.823  0.0863  0.0511  0.1149
26329W        W43176   4.150  17.976  10.822  0.2113  0.0921 -0.0091
26330W        W43177  17.987  18.469  13.720 -0.0554 -0.5830  0.3300
26331W        W43178   4.612   1.199   2.058 -0.0494  0.0785 -0.2377
26332W        W43179  18.409   1.655  14.808  0.2337 -0.2376  0.1652
26333W        W43180   6.614   8.974  12.795 -0.1675 -0.2957  0.1482
26334W        W43181  14.374   0.613   4.640 -0.0211  0.0966  0.3203
26335W        W43182   9.667   3.752   4.183  0.1345 -0.1340  0.3178
26336W        W43183   8.771   9.097   2.405 -0.2014  0.0245 -0.1216
26337W        W43184   4.125  17.751   1.607  0.0054  0.0501  0.2350
26338W        W43185  13.970  14.772  11.240 -0.1759  0.2074  0.1115
26339W        W43186   8.297   4.670   0.060 -0.1611 -0.1913  0.0633
26340W        W43187   7.500  18.179  13.695 -0.2724  0.1419 -0.2827
26341W        W43188   6.409  11.041   3.468  0.0018 -0.1880  0.3801
26342W        W43189  12.571   3.633  14.156 -0.1359  0.2258 -0.1293
26343W        W43190  10.004   3.581   3.895  0.3683 -0.1400 -0.4665
26344W        W43191  11.766   5.240  14.182  0.4551  0.2139  0.0582
26345W        W43192  16.493   2.584   5.230 -0.0940  0.1323  0.2273
26346W        W43193   8.104  12.620   2.901 -0.0837  0.0765  0.0525
26347W        W43194  12.153   2.984   5.362  0.1557  0.2125 -0.3615
26348W        W43195  11.340   3.910   2.232 -0.2241  0.0989  0.0246
26349W        W43196  15.731   4.846  12.113  0.1329  0.2028  0.1926
26350W        W43197   5.452   4.507   3.069  0.3032 -0.2153  0.0400
26351W        W43198   7.987   7.578   0.267 -0.2859  0.0221  0.4430
26352W        W43199   6.675  16.418   2.229  0.0871  0.0705 -0.0665
26353W        W43200   7.683  12.427   2.475  0.0477 -0.0932 -0.2909
26354W        W43201   6.670  14.736   0.933 -0.0964 -0.1764  0.1064
26355W        W43202  14.019   0.205   1.132 -0.0359  0.1366  0.0580
26356W        W43203   8.518  17.440  14.741 -0.0118  0.0870  0.1130
26357W        W43204   9.612  16.559  13.548  0.0838 -0.1909  0.2079
26358W        W43205  13.094   9.791  14.962 -0.4769  0.0009 -0.1961
26359W        W43206   7.425  16.282   4.284 -0.0434  0.1440 -0.2390
26360W        W43207   6.931   7.625  11.378 -0.0583  0.0096 -0.4424
26361W        W43208   4.399  11.352  15.274  0.0061 -0.1232  0.1030
26362W        W43209   5.514  13.866   4.420  0.0265  0.0351 -0.0644
26363W        W43210   3.573   5.621  14.419 -0.2123  0.3123  0.0714
26364W        W43211   6.204  12.353   0.573 -0.0864  0.1430  0.2630
26365W        W43212  16.693   9.453  12.487  0.0684  0.0057  0.0633
26366W        W43213  16.836  11.134  12.087 -0.2901 -0.1371 -0.3435
26367W        W43214  13.211   5.856   4.773  0.2481 -0.3556  0.3084
26368W        W43215  13.036   1.036  15.141  0.1236 -0.1196 -0.0916
26369W        W43216   1.668   0.590   1.880 -0.0123 -0.1381 -0.0856
26370W        W43217   4.749   0.399  10.870 -0.1629 -0.1695 -0.0239
26371W        W43218   1.042  18.395  12.037 -0.2571 -0.2436  0.2571
26372W        W43219   4.933  10.629   0.634  0.6812  0.0824  0.0748
26373W        W43220  17.066   0.006  14.725  0.0671  0.2449  0.0397
26374W        W43221   0.319  17.673  13.504  0.3487 -0.0209  0.2170
26375W        W43222   5.555   5.928  13.048  0.0884 -0.1300 -0.0441
26376W        W43223   6.745   3.779  11.825  0.2353 -0.0548  0.0924
26377W        W43224  14.828   7.774   9.894  0.0671  0.0087  0.0937
26378W        W43225  16.964   8.916   2.099  0.1000 -0.1321 -0.3336
26379W        W43226   4.042  17.614   5.088  0.0703  0.1555 -0.1895
26380W        W43227  15.855   0.750   4.540  0.1213 -0.2365 -0.0871
26381W        W43228   7.353  18.808   1.190 -0.2100  0.0427 -0.1611
26382W        W43229   0.455   4.328  14.427 -0.1754 -0.1576 -0.1815
26383W        W43230  11.320   0.999  12.283  0.1345  0.0421  0.1879
26384W        W43231  14.154   1.153   2.913 -0.0654 -0.1334  0.0465
26385W        W43232  12.882   4.348  14.484  0.2594 -0.1420  0.0298
26386W        W43233  15.211  14.548  11.293  0.2928  0.0793  0.0009
26387W        W43234  16.654  10.610   2.648  0.0220  0.0358  0.0373
26388W        W43235   7.966   2.689  12.336 -0.4416 -0.1804 -0.3207
26389W        W43236  18.003   5.884   4.444  0.0175  0.2822 -0.1198
26390W        W43237   3.731   3.828  13.937  0.1243 -0.0468 -0.0578
26391W        W43238   2.003   8.319  13.985 -0.0143 -0.0823  0.2983
26392W        W43239   1.010  15.964   3.392 -0.0488 -0.0770 -0.0183
26393W        W43240   3.538  15.019  10.930  0.0410 -0.3652  0.0474
26394W        W43241   7.708  17.487  11.541  0.4385  0.0418 -0.3517
26395W        W43242   8.617  15.202   1.613 -0.1107 -0.0727  0.4111
26396W        W43243  12.164   0.223   4.243 -0.2808  0.0647  0.1878
26397W        W43244  12.908   9.052  14.649  0.0842 -0.0747  0.3669
26398W        W43245   8.364  13.445  12.295  0.0135 -0.3234 -0.0259
26399W        W43246   0.185   6.580   2.794  0.0731 -0.1386  0.2070
26400W        W43247   5.243  18.057  14.082 -0.0799  0.0953  0.1167
26401W        W43248  11.091   3.667   2.970 -0.0403  0.1683 -0.1216
26402W        W43249  10.641   9.508  13.069 -0.1146 -0.0988  0.3561
26403W        W43250  18.551  13.473  11.856  0.1053  0.1165 -0.0191
26404W        W43251  16.220   9.095  13.674 -0.0764  0.1784 -0.0309
26405W        W43252   8.160   1.582   3.463 -0.1959 -0.3078  0.1989
26406W        W43253   1.654  11.883   3.726  0.2015 -0.0928  0.1793
26407W        W43254   8.970  16.348  13.275  0.2323 -0.0930  0.0332
26408W        W43255   6.237   8.600  11.575  0.2789 -0.0592  0.1086
26409W        W43256   4.158   4.669   2.547 -0.2228  0.3449 -0.2684
26410W        W43257  13.488   8.190   2.596  0.1167  0.2074  0.1101
26411W        W43258   1.823   1.847  12.222 -0.2659 -0.0173 -0.0850
26412W        W43259   2.437   3.253  13.983 -0.1570 -0.1929 -0.0550
26413W        W43260  13.035   9.288   5.987 -0.3157  0.0832 -0.0477
26414W        W43261  13.097  12.820   9.959  0.0348 -0.0439  0.0524
26415W        W43262   3.970   0.225  10.801  0.1506 -0.3116  0.0760
26416W        W43263  14.568   9.386   2.368 -0.2954 -0.1240 -0.1026
26417W        W43264  14.794   4.202  13.195  0.2388  0.3328 -0.0132
26418W        W43265  14.213  10.579  14.419  0.0303 -0.1888  0.2726
26419W        W43266  12.263  15.247  11.943  0.1124  0.0859 -0.1420
26420W        W43267  16.541  13.331  11.105  0.0240 -0.3190 -0.1998
26421W        W43268  12.527   6.851  11.574 -0.1069 -0.1092 -0.0511
26422W        W43269   8.260   7.880   3.962 -0.1724  0.0893  0.0206
26423W        W43270   6.275   7.805   2.392 -0.1338  0.1261 -0.0488
26424W        W43271  15.608   5.382  12.026  0.0802  0.3304 -0.2835
26425W        W43272   3.435  17.739  12.012 -0.1166 -0.2462  0.0323
26426W        W43273   6.003  18.158  12.906  0.1555  0.1570 -0.1414
26427W        W43274  12.076  11.649  11.655 -0.2201  0.4338  0.0311
26428W        W43275  17.255   9.417   4.917  0.3530 -0.0738  0.0736
26429W        W43276   8.625   7.259  12.129 -0.0160  0.0651  0.0592
26430W        W43277  14.154   1.121   1.304  0.0166  0.0972  0.0062
26431W        W43278   2.877  14.532   2.437  0.0468 -0.1349 -0.0774
26432W        W43279   6.118   4.431  14.098 -0.0439  0.0726 -0.2775
26433W        W43280  11.184   0.256   3.161 -0.0365  0.2977 -0.1986
26434W        W43281  12.317  17.699   0.895  0.1429  0.2282 -0.1223
26435W        W43282   5.055  13.177  13.189  0.2698  0.1905  0.0086
26436W        W43283  13.795   2.572  11.623 -0.0256 -0.2998  0.0240
26437W        W43284  14.794   7.325   4.029  0.0710  0.1981  0.1085
26438W        W43285   8.833  10.624   3.414 -0.1346  0.2616  0.0473
26439W        W43286  14.419   0.280   0.222 -0.0578 -0.1810 -0.1175
26440W        W43287   8.034  15.295  11.392 -0.0441  0.1395 -0.1534
26441W        W43288   2.965   7.963  13.604 -0.3101  0.1106  0.1603
26442W        W43289   0.818   7.365   3.761 -0.0288 -0.2916 -0.1727
26443W        W43290   4.068  11.073  11.910  0.0888 -0.0995  0.0689
26444W        W43291  13.687  15.584  11.033 -0.0590  0.0053  0.0438
26445W        W43292   2.251   7.569  13.171 -0.0863 -0.0783  0.0223
26446W        W43293  15.005  17.989   1.618  0.0059  0.2253 -0.2143
26447W        W43294   4.172  12.065   1.407  0.1632  0.1032 -0.0739
26448W        W43295  15.869  17.453  14.878  0.1317 -0.0613 -0.1690
26449W        W43296  15.578   0.562   2.477  0.0657  0.0927 -0.0064
26450W        W43297  18.807   5.704  13.158 -0.2102  0.3833  0.0345
26451W        W43298   9.754   8.274  11.033  0.0306 -0.0750 -0.1895
26452W        W43299   3.942   3.721  15.103 -0.0766  0.2332 -0.0915
26453W        W43300   8.205  15.141   0.838  0.3231  0.2001 -0.0964
26454W        W43301  13.203   0.029  13.039 -0.5018 -0.0267  0.1067
26455W        W43302  10.752  14.983   1.874  0.0255  0.4470 -0.1155
26456W        W43303  14.083  10.395   0.762  0.1454  0.0606 -0.0350
26457W        W43304   1.138   0.481   4.641  0.0365  0.0498  0.0919
26458W        W43305  14.746   3.812   4.843 -0.1722  0.1699  0.0909
26459W        W43306   5.117   3.126   4.394  0.2018  0.0635 -0.0195
26460W        W43307   6.332  11.751   1.756 -0.0659  0.2870  0.3504
26461W        W43308   4.893   7.588  14.853 -0.2253 -0.0676  0.1433
26462W        W43309  18.298   9.885   5.816 -0.2013  0.0984 -0.1614
26463W        W43310  12.023  12.938  14.882  0.0551  0.1225 -0.0445
26464W        W43311   3.982   9.460  13.535 -0.0017  0.0710  0.2639
26465W        W43312  12.204   3.774   5.585  0.2032  0.0974 -0.0185
26466W        W43313  11.794  15.756  14.344  0.2210 -0.0123 -0.0794
26467W        W43314   8.275   8.002  11.711 -0.0471  0.0769 -0.1428
26468W        W43315  15.553   3.189  11.258 -0.1440 -0.0025 -0.0532
26469W        W43316   2.185  13.089   3.695 -0.3065 -0.0693 -0.1516
26470W        W43317  17.386  15.710   4.924 -0.0091  0.1531 -0.0205
26471W        W43318   4.398  12.092  12.321  0.1262  0.2486 -0.1236
26472W        W43319   6.999   6.479   1.510 -0.0427  0.3488 -0.1538
26473W        W43320  18.693  12.849  15.415 -0.0791  0.2413 -0.1829
26474W        W43321  16.689   7.255  13.265 -0.1485 -0.0921  0.1516
26475W        W43322  17.979   5.510  14.700 -0.0018 -0.0099 -0.0526
26476W        W43323   8.104  11.875  13.050  0.0488 -0.4017  0.2540
26477W        W43324  12.396  15.779   3.633 -0.1866  0.1768  0.2123
26478W        W43325  12.680   6.533  14.123  0.1543  0.1062 -0.0168
26479W        W43326   0.772  16.781  15.423 -0.0199 -0.1201 -0.0070
26480W        W43327  12.632   4.164  12.598  0.4384 -0.1114 -0.3419
26481W        W43328   4.469   2.865  13.394 -0.0215 -0.2046 -0.1531
26482W        W43329  15.762  14.297   2.500 -0.1232 -0.1479  0.2063
26483W        W43330   7.150   9.021   5.303 -0.1753  0.1627 -0.0089
26484W        W43331  13.684  17.572  13.681  0.2066  0.0349 -0.0714
26485W        W43332  16.880   7.746   2.219 -0.0296  0.0657  0.0709
26486W        W43333  17.424  17.446  15.508  0.0266 -0.0494  0.1349
26487W        W43334  17.554  16.778  14.669 -0.0785  0.1514  0.3399
26488W        W43335   0.810   2.662  13.123 -0.2590 -0.2945 -0.3249
26489W        W43336   4.703   6.831  11.581  0.2199  0.0800 -0.1911
26490W        W43337  14.189   5.897  13.249 -0.1417  0.0279  0.4672
26491W        W43338   7.786  10.185  12.817  0.0028 -0.0094  0.0206
26492W        W43339  18.001  14.208   3.755 -0.1529  0.1650 -0.3027
26493W        W43340  12.560  12.275   1.058 -0.0396 -0.1221  0.2457
26494W        W43341  11.353  11.232  13.655 -0.0782  0.2429  0.2042
26495W        W43342   4.519   4.430  10.949  0.0368 -0.2177  0.1864
26496W        W43343   3.457   4.963   3.712  0.0956  0.0785  0.1112
26497W        W43344   5.963   0.761   0.506  0.0564 -0.0726  0.0415
26498W        W43345  10.991   4.504   3.348  0.0956  0.1163 -0.1338
26499W        W43346   6.160   5.740   0.207  0.1508  0.1382  0.2804
26500W        W43347   6.434  17.828  11.710  0.2158  0.0779 -0.2549
26501W        W43348  11.214  17.733  13.671  0.2488 -0.1395 -0.2089
26502W        W43349  11.560   6.648  12.709 -0.1949 -0.2014  0.0859
26503W        W43350   8.520  12.143  14.059  0.3658 -0.1656 -0.2025
26504W        W43351   2.863  15.052  13.074 -0.3051  0.3839  0.0733
26505W        W43352  16.600   2.335   2.232 -0.1351 -0.2262 -0.1731
26506W        W43353   6.891  16.134  10.440 -0.4202 -0.0091  0.2256
26507W        W43354  15.152  12.881   1.113  0.1555  0.1492  0.2136
26508W        W43355   3.723   3.044   0.663  0.0335 -0.2630  0.1359
26509W        W43356  11.329  18.109  15.487  0.0753  0.5316  0.1562
26510W        W43357  15.408   3.965  15.211 -0.0403 -0.0065 -0.0458
26511W        W43358  10.162   8.523  12.208 -0.0094  0.2085  0.2159
26512W        W43359  13.133  14.925  10.754 -0.1600  0.0121 -0.2655
26513W        W43360   0.626  16.439  13.762  0.3294 -0.1550  0.0075
26514W        W43361  13.242   4.514   5.409 -0.0341 -0.3252 -0.0356
26515W        W43362  16.007   7.465   0.633 -0.0739  0.0698 -0.0581
26516W        W43363  14.782  15.276  11.501 -0.3975 -0.1119  0.1623
26517W        W43364   9.743   9.890   2.155 -0.1717  0.1557 -0.1387
26518W        W43365  13.199  15.250   1.214  0.1218 -0.1287  0.0934
26519W        W43366   2.190   8.913  14.596  0.0260 -0.0443 -0.0001
26520W        W43367   9.835   5.914  15.291 -0.3132 -0.1663  0.0719
26521W        W43368  16.496  10.624   2.007 -0.0144 -0.0016  0.1391
26522W        W43369   2.441  15.691  12.608 -0.0785 -0.0733 -0.3287
26523W        W43370  10.314   8.251   3.207 -0.0140  0.4925 -0.3205
26524W        W43371  18.413   5.262   5.883  0.0317 -0.2602 -0.2199
26525W        W43372  15.570  13.229   0.003 -0.2666 -0.0584  0.0846
26526W        W43373   7.026   8.686   4.933 -0.3207 -0.0389  0.1492
26527W        W43374  12.365  12.705   4.157 -0.3722  0.1223  0.0130
26528W        W43375   4.268  10.043   3.980 -0.1835  0.1749 -0.0799
26529W        W43376  13.496  14.100  11.643 -0.0034 -0.1470  0.0030
26530W        W43377   3.061  18.213  14.361  0.3290 -0.1958 -0.2427
26531W        W43378   7.622  17.964  12.722 -0.2091 -0.0517  0.0156
26532W        W43379   3.055   6.393   3.197 -0.1077  0.0037 -0.1040
26533W        W43380  11.119   6.607   3.711 -0.2849  0.0055 -0.0638
26534W        W43381  18.685  10.483   3.849 -0.0210 -0.1695 -0.0944
26535W        W43382   7.828  17.318  10.756 -0.5228  0.2158 -0.1272
26536W        W43383  16.965  14.507   2.796  0.1264  0.1836  0.1364
26537W        W43384   1.507   8.915  10.840 -0.0239  0.1386 -0.2023
26538W        W43385   8.172  16.413  12.580  0.2510 -0.1914  0.0414
26539W        W43386  16.666   6.890   3.568  0.2301  0.3263  0.0176
26540W        W43387  11.142   0.597   1.828  0.2069 -0.0597  0.1499
26541W        W43388  16.232  11.627  12.446  0.0027 -0.1280 -0.2136
26542W        W43389  15.175  16.618   4.973  0.1130 -0.0775  0.1792
26543W        W43390  16.804  10.933   3.033  0.1554  0.1351 -0.0233
26544W        W43391   5.584   3.845  10.379 -0.2215 -0.1702 -0.2781
26545W        W43392  17.735  18.175   4.032 -0.0921  0.1781 -0.0626
26546W        W43393   7.831  14.353  13.905  0.0374  0.1278  0.1449
26547W        W43394  16.140   2.459   4.046  0.0335 -0.1005 -0.2093
26548W        W43395   0.375   8.218  15.448 -0.0624 -0.1258  0.1022
26549W        W43396  16.190   5.578  11.891 -0.2235 -0.0461 -0.0055
26550W        W43397   2.127   4.501   1.950 -0.0810  0.1871  0.0548
26551W        W43398   7.504  14.000  15.106 -0.1576  0.0930 -0.0116
26552W        W43399  17.249  14.947   3.603 -0.5490  0.0694 -0.1417
26553W        W43400   1.724   2.731  14.731 -0.0391  0.1211 -0.0197
26554W        W43401  10.973   4.006   0.295 -0.0027  0.1114 -0.0351
26555W        W43402   1.220   8.523  11.195 -0.3694 -0.0910 -0.2112
26556W        W43403  14.849  17.384   5.357 -0.2968 -0.2621  0.1225
26557W        W43404   1.952   3.088  11.461  0.0684  0.3548  0.0202
26558W        W43405   6.737  13.628   3.713  0.1370  0.2152  0.0509
26559W        W43406  15.645  16.735   5.051 -0.0933 -0.1297 -0.1388
26560W        W43407   6.418  17.224   0.030 -0.2411 -0.0415  0.1143
26561W        W43408   2.681   6.975  12.812  0.0312  0.4435 -0.2698
26562W        W43409  10.874   8.853   1.416  0.1124 -0.0381  0.0259
26563W        W43410   7.489  12.666  12.183  0.0474 -0.3138 -0.1563
26564W        W43411  17.543   5.505   1.766 -0.0848 -0.2113  0.3375
26565W        W43412  12.364  11.489  13.411 -0.0534 -0.0845 -0.1356
26566W        W43413  18.410  16.919   4.388  0.0946 -0.0569  0.0600
26567W        W43414  14.963   2.931  10.664  0.2503 -0.0243 -0.1422
26568W        W43415  13.718   7.502   4.964  0.0529 -0.0317 -0.1347
26569W        W43416  18.806   3.461  14.613  0.1115  0.1160 -0.2790
26570W        W43417  13.149  10.055   0.329 -0.2313 -0.0719 -0.1871
26571W        W43418   9.285   1.600   4.859 -0.1303 -0.0047  0.1493
26572W        W43419  16.066   2.857   4.873 -0.1609 -0.2315  0.2271
26573W        W43420   2.919   7.591   0.441 -0.0086 -0.1801 -0.1606
26574W        W43421   4.527   6.081  13.668  0.0201 -0.1407 -0.1816
26575W        W43422  12.763  10.595  12.195  0.0152 -0.1212 -0.2787
26576W        W43423  11.691   9.034   4.996  0.0010 -0.2085 -0.3829
26577W        W43424   7.889   0.057  13.710 -0.0967  0.2460 -0.0331
26578W        W43425   2.255  11.279  11.399 -0.0867 -0.1832  0.1185
26579W        W43426   4.764   6.898   5.091  0.2067 -0.1589  0.0299
26580W        W43427  15.161   6.293   0.947 -0.0435  0.0831 -0.0995
26581W        W43428   2.999   9.640  15.435 -0.0010 -0.0261 -0.1700
26582W        W43429   2.837   6.692  10.832  0.2217  0.1670  0.1208
26583W        W43430   7.634  16.561   2.860  0.1635 -0.1886  0.0754
26584W        W43431   3.441   7.995   2.319 -0.0741 -0.2176  0.1177
26585W        W43432   4.607  16.354   2.922 -0.0146  0.0220  0.1496
26586W        W43433  16.181   5.865  10.430  0.2508 -0.2033  0.0267
26587W        W43434   7.105   2.608   2.393 -0.3197  0.0590  0.2683
26588W        W43435   2.578   3.535   3.983 -0.0606  0.1686 -0.0054
26589W        W43436  16.154   2.110  13.280  0.0128  0.2163  0.0175
26590W        W43437  15.405   3.705  13.512  0.1196  0.2243  0.2528
26591W        W43438   7.979  18.325  12.351  0.0718 -0.1036  0.1045
26592W        W43439   5.242  16.906   0.378  0.0215 -0.2421 -0.4050
26593W        W43440  18.370  15.064   5.548 -0.0636 -0.2998 -0.1370
26594W        W43441   6.697   1.368  13.288  0.0426 -0.2230 -0.1852
26595W        W43442  16.895  16.416   3.712 -0.0792  0.0287 -0.2554
26596W        W43443   6.957   1.575   1.169 -0.2185 -0.1409  0.4389
26597W        W43444  11.658   4.970  12.726  0.3401  0.0295 -0.1300
26598W        W43445  14.865  13.762   0.907  0.1377  0.1495  0.0895
26599W        W43446   9.168  11.993   3.563 -0.0695 -0.1060 -0.0800
26600W        W43447   5.188  17.304  11.798 -0.0608 -0.1133 -0.5434
26601W        W43448  12.698  15.340   1.047  0.2935  0.0752  0.0251
26602W        W43449  17.800  17.805   3.065  0.0898 -0.3494  0.1551
26603W        W43450   4.177   5.402   3.838  0.3157 -0.1180 -0.0897
26604W        W43451  18.679  12.740  14.496  0.0448  0.0958 -0.1859
26605W        W43452  11.600   6.255   3.627 -0.4101 -0.2425 -0.1311
26606W        W43453   3.301   1.893   1.380  0.2676  0.0312 -0.2375
26607W        W43454   4.344  10.502  13.571 -0.1607 -0.2018 -0.0609
26608W        W43455   0.495   6.031   0.181  0.0302  0.3529 -0.1356
26609W        W43456   5.544   6.921   3.009  0.3268  0.0587  0.1041
26610W        W43457   7.853  13.395  12.624  0.1126 -0.0024 -0.1050
26611W        W43458  17.904  16.877   5.061  0.0735 -0.0605 -0.0305
26612W        W43459  18.460  14.623   5.374 -0.1691 -0.0609  0.2056
26613W        W43460  14.767   3.463   3.170  0.2515  0.1132  0.1965
26614W        W43461   6.052   0.276   2.383  0.0056 -0.4505 -0.0420
26615W        W43462  17.931  12.344   4.624  0.0557 -0.4629 -0.0523
26616W        W43463   4.603  14.478  13.010 -0.2458 -0.4091 -0.1793
26617W        W43464   0.796   5.890  14.586 -0.0401 -0.1684 -0.0094
26618W        W43465   7.550   6.925  15.554 -0.2912 -0.1210 -0.1052
26619W        W43466  16.147  15.876   3.384  0.3732 -0.1484  0.0137
26620W        W43467   0.292  14.025   2.659  0.0975  0.1335  0.1896
26621W        W43468   3.105  10.466   3.343  0.0763 -0.1698 -0.0407
26622W        W43469  13.780  13.414  13.059 -0.0041 -0.0485  0.0661
26623W        W43470   5.236   2.632   4.209 -0.0749  0.2160  0.2708
26624W        W43471   3.502  14.518  14.669  0.1076 -0.0480 -0.3523
26625W        W43472  15.902  10.608   5.172  0.2823  0.0340  0.2627
26626W        W43473   3.549  17.929   3.971 -0.3252  0.1007  0.1283
26627W        W43474  13.627   5.985   0.662 -0.2647  0.1629 -0.2149
26628W        W43475  17.224   9.413  14.268  0.4550  0.1777 -0.2604
26629W        W43476  16.913   0.523   2.216  0.2549 -0.2843 -0.0199
26630W        W43477   2.673  14.361   4.617 -0.0958 -0.1839  0.2117
26631W        W43478   6.947  18.457  10.891  0.1827 -0.0468  0.0455
26632W        W43479   1.435  10.958   4.728  0.3156 -0.1151  0.0676
26633W        W43480   3.398  11.256  14.092  0.0909  0.1893  0.1195
26634W        W43481  12.066   1.858   4.538 -0.0961 -0.3529  0.1370
26635W        W43482   1.016   4.749  12.104 -0.1927 -0.1046 -0.0233
26636W        W43483   5.760   6.388   3.746 -0.2118 -0.1407  0.1095
26637W        W43484   7.263   8.641  15.287 -0.2471  0.0847 -0.0144
26638W        W43485  18.255  12.043  12.650  0.0767 -0.1481  0.0801
26639W        W43486  15.469   6.929  14.087 -0.1484 -0.3667 -0.1222
26640W        W43487   2.017  10.222   0.179  0.2028 -0.0291  0.1251
26641W        W43488   3.287  14.773   0.203 -0.0458 -0.2887 -0.0137
26642W        W43489   7.042  16.630   4.167 -0.0634  0.2142 -0.0603
26643W        W43490  17.581   7.763  15.189  0.5100 -0.1042 -0.1770
26644W        W43491   7.825  18.104   4.947  0.2887 -0.2370  0.2389
26645W        W43492   9.724   8.966   0.225  0.0288 -0.3024 -0.4673
26646W        W43493   0.019   1.451   1.726 -0.1992  0.1716  0.1338
26647W        W43494  11.377   2.300   0.092  0.3290  0.3469 -0.0106
26648W        W43495   8.235   1.687  14.121 -0.2302  0.0773  0.0771
26649W        W43496   5.765  10.133   4.792 -0.1432 -0.1192  0.1193
26650W        W43497  14.275   7.011   0.936 -0.2063 -0.3375 -0.0647
26651W        W43498   6.868   7.859  14.969  0.1303 -0.3437 -0.0767
26652W        W43499  18.435  16.595  14.865  0.2701 -0.2401  0.0495
26653W        W43500  12.782  10.848   0.011 -0.0099 -0.0239 -0.1245
26654W        W43501   0.347  10.771   0.512  0.2589  0.3111  0.1002
26655W        W43502  18.173  11.405  15.031 -0.0254 -0.0147  0.4961
26656W        W43503   0.218   6.375   0.016 -0.0101  0.3998 -0.1459
26657W        W43504  15.640   0.866  13.912 -0.2902  0.2305 -0.1550
26658W        W43505  10.409   8.323   2.730  0.1656  0.1062 -0.0482
26659W        W43506   4.829  11.487   3.495  0.1047  0.3531 -0.0098
26660W        W43507  11.048  16.718   0.987  0.1545 -0.1245 -0.0095
26661W        W43508  11.467   3.345  15.446  0.1321  0.2406 -0.2293
26662W        W43509  17.516   0.020   5.768  0.0729  0.1368 -0.1187
26663W        W43510   4.023  12.309   2.719 -0.1743 -0.0052 -0.2213
26664W        W43511  15.172   0.358  12.461  0.1064 -0.0883  0.2007
26665W        W43512   7.462  18.062   2.726 -0.0973 -0.4287 -0.4347
26666W        W43513  18.719  15.296   1.950 -0.0451 -0.0965  0.0126
26667W        W43514   9.587   6.569   2.318  0.0965  0.1734 -0.0883
26668W        W43515  17.940   9.194   1.185  0.0912 -0.0465  0.0710
26669W        W43516   9.522  16.120   1.961  0.1709 -0.1227 -0.5254
26670W        W43517  13.124  12.465   1.474 -0.0738 -0.0488  0.0092
26671W        W43518   1.636   0.148   4.105  0.1814 -0.1397  0.4177
26672W        W43519   9.752  11.535   1.003  0.0019  0.2519 -0.0169
26673W        W43520  18.762   0.604   2.339  0.0503 -0.1087 -0.0153
26674W        W43521   0.725  14.320   4.522 -0.3630 -0.4539 -0.0126
26675W        W43522  14.812  16.488  14.812  0.2951 -0.1648  0.1330
26676W        W43523  16.061   5.943   2.992  0.0249  0.0669  0.0075
26677W        W43524   8.449   5.674   4.940 -0.2051  0.2451  0.2859
26678W        W43525   0.215   3.038  14.816  0.2071  0.0707  0.1109
26679W        W43526   1.097   1.529   1.796 -0.1823  0.3050  0.1750
26680W        W43527   5.769   4.296   2.057 -0.0237  0.1291 -0.4350
26681W        W43528   2.612   7.748   4.353  0.2762  0.0317 -0.0873
26682W        W43529   7.714  12.276  13.143  0.0687 -0.1081  0.1560
26683W        W43530   3.078   8.841  14.352  0.0304  0.1130  0.1360
26684W        W43531   6.543  11.465   3.652  0.2594 -0.1806  0.0523
26685W        W43532   2.704  17.327  12.643  0.2554 -0.2061 -0.2376
26686W        W43533  14.968  13.744  14.816 -0.0793  0.0562  0.3537
26687W        W43534   8.590  12.453  10.470 -0.2208  0.3928 -0.2663
26688W        W43535   0.589   7.754  12.977  0.0934 -0.0400  0.1475
26689W        W43536  14.946   7.546  13.761 -0.1782 -0.1236  0.3984
26690W        W43537  17.572   8.445   3.065  0.0331  0.3920 -0.0430
26691W        W43538   5.550  10.654   2.599  0.0696 -0.1164  0.2226
26692W        W43539  13.444  15.898  15.005 -0.1465  0.2235  0.1309
26693W        W43540   0.417   1.609   0.269  0.1266 -0.0593  0.0660
26694W        W43541  14.293  14.242  11.166 -0.0834  0.0945  0.1483
26695W        W43542  14.513   2.411   2.652  0.0050 -0.0580  0.1836
26696W        W43543   1.028  12.963   3.677 -0.1647  0.0357 -0.2036
26697W        W43544   2.389   7.824   2.950  0.0366 -0.4428  0.1066
26698W        W43545   2.757  16.483  15.252 -0.0695  0.0626  0.0497
26699W        W43546   8.608  14.176   2.582 -0.0607 -0.2011  0.2527
26700W        W43547   7.478  15.202  13.166  0.0132  0.0802 -0.0881
26701W        W43548   4.791   0.956  14.249  0.1259 -0.2494 -0.0377
26702W        W43549   4.352   9.068   4.705  0.1469 -0.0567 -0.0954
26703W        W43550  13.496  11.259  14.254 -0.0585 -0.1643 -0.3126
26704W        W43551  12.537   9.922  14.910 -0.2827 -0.1566  0.3214
26705W        W43552   2.053  17.586  13.685  0.3217  0.1999  0.3427
26706W        W43553  14.228   6.513  12.602  0.0760 -0.2313  0.2386
26707W        W43554  10.434   4.193   2.549  0.1366 -0.0895 -0.4011
26708W        W43555  10.142   3.693  13.555 -0.0453 -0.0001 -0.2288
26709W        W43556   7.764  12.304   4.178 -0.1054 -0.0341 -0.2217
26710W        W43557   4.144   8.901   0.417 -0.1012 -0.0708  0.1907
26711W        W43558  10.662  14.963   4.774 -0.0037  0.0891  0.2340
26712W        W43559  15.048   3.963   2.520 -0.1114 -0.5047  0.2205
26713W        W43560   3.256  18.773   2.202 -0.1844 -0.1191  0.0592
26714W        W43561   7.661  14.108   1.604  0.0125  0.4351  0.2588
26715W        W43562  17.192  13.731  11.693 -0.0101 -0.0717  0.0239
26716W        W43563   1.205  17.916  15.315 -0.1361 -0.0214 -0.0818
26717W        W43564   6.054   7.948  10.293 -0.0841  0.0122 -0.1908
26718W        W43565   1.467  17.318   3.218 -0.0567  0.2259  0.0751
26719W        W43566   1.189   2.860  14.783 -0.2949 -0.1817  0.1290
26720W        W43567   5.459   3.232   3.002 -0.1880  0.2235  0.1207
26721W        W43568   2.221   3.202   2.909  0.0368 -0.0822  0.2072
26722W        W43569  12.855   2.430   3.445 -0.0415 -0.0124 -0.2468
26723W        W43570   7.411   6.501  14.264 -0.0697  0.1468 -0.2036
26724W        W43571   8.864  17.060  14.608 -0.1755  0.0957  0.1087
26725W        W43572  17.260  15.183   4.858 -0.1250  0.0015  0.0642
26726W        W43573  17.649   0.227   0.305  0.1508  0.3008  0.1375
26727W        W43574  11.927   3.770  14.202 -0.4230 -0.1331 -0.0210
26728W        W43575   9.540   6.665   1.837 -0.2527  0.2350 -0.0328
26729W        W43576   9.194   8.810   2.579  0.1233  0.2278  0.1066
26730W        W43577  16.129  14.622   3.976  0.2991 -0.2175 -0.1974
26731W        W43578   3.029   5.890   4.108  0.1079 -0.3604  0.0414
26732W        W43579   5.429   6.513  12.210 -0.0896  0.0625  0.1505
26733W        W43580   6.530  10.612  14.485  0.2415  0.0750 -0.0443
26734W        W43581   8.590   9.536   2.627  0.0207 -0.1235  0.1280
26735W        W43582   1.755  15.204  13.902 -0.2217 -0.0720  0.1391
26736W        W43583   9.418  16.442   0.556 -0.0807  0.2244  0.1011
26737W        W43584  11.348  10.586  12.357  0.0849 -0.0124 -0.2619
26738W        W43585   8.734   0.863  12.723  0.0213 -0.0907  0.1991
26739W        W43586   8.532   1.575   1.324 -0.0474 -0.0626  0.0499
26740W        W43587  12.028  17.031  15.310 -0.0894 -0.0581 -0.0618
26741W        W43588   2.502  11.195   2.154 -0.2522 -0.1144  0.3968
26742W        W43589   5.551   5.257  12.398  0.2037  0.0243  0.1793
26743W        W43590  12.271   7.876  14.949  0.0546  0.1354 -0.2316
26744W        W43591   2.162  16.753   0.643  0.1400 -0.2448  0.0053
26745W        W43592  12.007   1.139  14.448  0.0811 -0.0280  0.0371
26746W        W43593  15.107  11.771  12.807 -0.0098  0.0523  0.2725
26747W        W43594   2.308   2.082  13.293 -0.0802  0.0936  0.1992
26748W        W43595   0.913  11.649   0.202  0.2642 -0.0052 -0.2484
26749W        W43596  14.349   7.871   2.807  0.0604  0.3257 -0.4685
26750W        W43597   4.600   4.593   2.243 -0.0942  0.0738 -0.2054
26751W        W43598   6.490  15.251   3.139  0.0895 -0.0267  0.2334
26752W        W43599   9.329   6.589   1.361 -0.1695 -0.0089 -0.0270
26753W        W43600   2.319   2.961   1.341  0.0449  0.1273  0.1047
26754W        W43601  10.974  13.496  13.919 -0.0149  0.1554 -0.1356
26755W        W43602   5.309   4.938  10.755  0.2133  0.0094  0.0862
26756W        W43603   3.687   9.956   1.391  0.0593  0.1299 -0.0066
26757W        W43604   6.415  12.515   1.739 -0.2031 -0.0878  0.1189
26758W        W43605  17.302  18.249   9.809 -0.2321 -0.0541 -0.3155
26759W        W43606   1.516  15.346  14.331  0.2865  0.0393  0.1495
26760W        W43607   2.013   0.759   0.280 -0.3814 -0.1883  0.2246
26761W        W43608   5.760   0.627   2.032  0.1576 -0.0649 -0.2670
26762W        W43609   3.671  17.355  11.656  0.1355 -0.1112 -0.1124
26763W        W43610  10.423   7.299  12.173 -0.2532 -0.1096  0.0760
26764W        W43611  14.516  17.195  11.140  0.3538 -0.0384 -0.0954
26765W        W43612  13.946   9.931   2.567 -0.0395 -0.2512  0.1187
26766W        W43613  18.162  10.462  13.956 -0.3420  0.1837  0.0303
26767W        W43614   7.153  11.263   2.605  0.0288 -0.0643 -0.0951
26768W        W43615   3.771  12.995   0.018 -0.0320 -0.1324  0.1811
26769W        W43616   7.324   6.882   5.158 -0.0848 -0.1553  0.0281
26770W        W43617  11.907  12.517   2.499  0.0074  0.0673  0.1603
26771W        W43618  15.305  17.085  13.448  0.2594  0.0026 -0.3422
26772W        W43619   8.007   9.239  10.919  0.1523 -0.0564  0.2762
26773W        W43620   3.952  15.931  14.502 -0.2497 -0.2618 -0.1456
26774W        W43621  17.001  16.135  13.683  0.1753  0.0070 -0.1562
26775W        W43622  14.335   2.485  11.065  0.0543 -0.0967  0.1644
26776W        W43623   4.466   8.525  13.962  0.0236  0.1675  0.0087
26777W        W43624   8.392  17.310  15.402 -0.2941 -0.0388  0.3164
26778W        W43625   4.503  10.715   1.371  0.1153 -0.0659  0.0968
26779W        W43626   4.670   2.322  15.092  0.1870 -0.0547  0.0114
26780W        W43627  15.561  10.182   1.986  0.0230  0.0672 -0.1023
26781W        W43628  11.307   5.427   4.417  0.1718  0.1322  0.0324
26782W        W43629  15.132   5.350   3.620 -0.3705 -0.1232  0.1852
26783W        W43630  14.600   7.338  13.083 -0.2390 -0.0580  0.0324
26784W        W43631  10.903   6.305   5.120  0.0622 -0.1978  0.0036
26785W        W43632   7.898   2.651  10.034 -0.1443 -0.0016 -0.2949
26786W        W43633   8.126  15.835   1.614 -0.0442 -0.3581  0.1495
26787W        W43634  15.974  12.496   2.366 -0.0724 -0.0192  0.3422
26788W        W43635  11.038  11.619   0.107 -0.0196  0.1133 -0.0318
26789W        W43636  14.565  17.356  14.011  0.3096 -0.4218  0.1066
26790W        W43637   0.760  11.257  13.490 -0.2705 -0.0330 -0.0589
26791W        W43638   2.381  13.854   0.566 -0.0570 -0.1208  0.3442
26792W        W43639   2.065  14.546  14.152  0.3268 -0.0695  0.3049
26793W        W43640  12.204   8.208  13.697 -0.1151 -0.1397 -0.1880
26794W        W43641   9.213  11.790   4.444 -0.1231 -0.5773 -0.0237
26795W        W43642   4.026  12.541   3.872  0.1601 -0.3577  0.0907
26796W        W43643   3.383  16.120  14.606 -0.4602 -0.2074 -0.0986
26797W        W43644  11.490  12.634  13.864 -0.0594  0.0527 -0.2171
26798W        W43645  14.366   9.828   5.076  0.1653 -0.3299  0.0532
26799W        W43646  12.191  17.029   1.609 -0.2701  0.1152 -0.2183
26800W        W43647   1.850   4.663  12.866 -0.0470  0.0574 -0.0200
26801W        W43648   3.337   1.791  14.473 -0.2012 -0.0622  0.1280
26802W        W43649  10.424   0.720   2.859 -0.0640  0.1017 -0.3794
26803W        W43650   2.359  16.710  13.484 -0.1485  0.1637 -0.1543
26804W        W43651   2.353  12.894  13.277 -0.2052  0.0413  0.2568
26805W        W43652   4.699   9.088  15.298 -0.0513  0.2085  0.0058
26806W        W43653   8.661   6.761  12.708  0.0474 -0.1322  0.1598
26807W        W43654   6.971   8.195   3.446  0.0965 -0.2895 -0.0507
26808W        W43655  13.013   7.234   4.744  0.0754 -0.1879 -0.2866
26809W        W43656  11.707   3.892   5.215  0.0446 -0.2960 -0.0033
26810W        W43657   8.342  10.182   1.835 -0.2636 -0.2227 -0.1323
26811W        W43658  12.535   6.414  11.738 -0.0997  0.3684 -0.1235
26812W        W43659   1.194  13.175  14.809  0.0294 -0.1271 -0.1187
26813W        W43660   2.815   1.087   0.454  0.0053 -0.0893  0.0480
26814W        W43661   1.051  16.438   5.229 -0.3000 -0.2631  0.1218
26815W        W43662  15.928  17.689   2.519  0.0352  0.2258  0.2201
26816W        W43663  14.160   2.031  14.828  0.0370 -0.2098  0.1527
26817W        W43664   6.533   6.481  14.320 -0.1172  0.0062 -0.0154
26818W        W43665  13.977  13.887   4.322  0.0752 -0.2157 -0.1424
26819W        W43666   5.901   0.238   4.304  0.0348  0.1672  0.0984
26820W        W43667   0.972   3.795   5.188 -0.1775  0.1275 -0.0532
26821W        W43668   0.651   8.713  12.713  0.0256 -0.1418 -0.2204
26822W        W43669   0.932  16.764  14.686  0.2390  0.0902 -0.2241
26823W        W43670  17.073  10.079   4.134 -0.1180 -0.1859 -0.1533
26824W        W43671   1.022   7.847  12.684  0.0602  0.2589  0.0578
26825W        W43672  12.075  16.204   2.966  0.2620 -0.0438 -0.0780
26826W        W43673   6.454  13.545   1.283  0.0380 -0.1000 -0.1621
26827W        W43674   1.325   6.504  11.817  0.2591  0.0626  0.1954
26828W        W43675  12.196   9.418   1.848  0.1295  0.1719 -0.1975
26829W        W43676   9.587   6.342   5.207 -0.0678 -0.2563  0.0223
26830W        W43677  17.609   8.116  12.248 -0.1337  0.0182  0.3448
26831W        W43678   1.473   9.932   5.353 -0.2409 -0.0313 -0.0444
26832W        W43679   4.480  12.030   0.094  0.0078  0.2040 -0.1960
26833W        W43680   0.585  11.826   3.067 -0.1954  0.1059  0.0170
26834W        W43681   4.556   7.291   4.659 -0.0131 -0.1628  0.3621
26835W        W43682  11.732   9.052   0.598  0.1075 -0.0702 -0.1057
26836W        W43683  16.196   0.512   1.632 -0.3601  0.4159 -0.2811
26837W        W43684  11.550   3.661   3.178  0.1239 -0.2367  0.1288
26838W        W43685  11.916   3.273   2.627  0.0619 -0.2688  0.1050
26839W        W43686  12.515  12.341   0.525  0.0065  0.0478 -0.2972
26840W        W43687   0.995   2.178  10.841  0.1897 -0.3801  0.6238
26841W        W43688  14.417   4.466  13.227  0.1939  0.1261 -0.0249
26842W        W43689   7.763   3.672  15.228  0.1182 -0.2000  0.1574
26843W        W43690   0.190   6.315   3.282  0.0378 -0.0327  0.2979
26844W        W43691   4.186  14.588  12.177  0.1301 -0.2517  0.1336
26845W        W43692   0.981   4.596  14.643  0.1636  0.0976  0.0815
26846W        W43693   6.857  16.662   1.504  0.1049 -0.1923  0.3843
26847W        W43694  12.166  16.753  12.380  0.0738 -0.0923  0.1009
26848W        W43695   8.973   0.988   1.761 -0.0505 -0.1670 -0.2913
26849W        W43696   7.875  10.955  12.895  0.0448 -0.1041 -0.3401
26850W        W43697  16.904  12.977   4.204 -0.1173  0.0118  0.1117
26851W        W43698  15.948  17.081   4.697  0.1992  0.1321  0.0510
26852W        W43699   4.735   3.590  15.204 -0.0676  0.0303  0.2367
26853W        W43700  13.098  12.481  11.191  0.1808  0.0204  0.1490
26854W        W43701  14.506  15.473   0.750  0.3293 -0.2001 -0.1634
26855W        W43702  15.185  13.813  15.339 -0.0456  0.1852 -0.1607
26856W        W43703  15.893  14.196   4.711  0.0656  0.5727 -0.0869
26857W        W43704   1.530   2.968   2.079 -0.0689 -0.1150  0.3635
26858W        W43705  11.320   7.720   4.259 -0.0202  0.0006 -0.1279
26859W        W43706   2.669   9.324  13.796  0.2297 -0.0304 -0.2566
26860W        W43707  16.586  13.654  12.783 -0.2242 -0.3491  0.0841
26861W        W43708   9.772   8.791  13.115 -0.1950  0.1394 -0.0527
26862W        W43709  16.913  14.943   2.585  0.1967  0.0861  0.3371
26863W        W43710  13.953  11.852   2.469  0.2189 -0.0645  0.2901
26864W        W43711  13.263   3.552   3.059  0.1838 -0.2927  0.3019
26865W        W43712   3.525  10.007  11.352  0.0978  0.0584  0.2371
26866W        W43713  17.771  17.770   1.776  0.0680 -0.1109  0.1554
26867W        W43714   9.390  13.788   2.938 -0.1574  0.0418 -0.0714
26868W        W43715   6.855  10.663  14.903 -0.1571  0.1814 -0.0055
26869W        W43716  13.515  15.171   2.675 -0.2681  0.1389  0.0595
26870W        W43717  16.031   7.496  14.684  0.0830  0.0409 -0.0702
26871W        W43718   8.713   2.393  12.907 -0.0991 -0.1523  0.2642
26872W        W43719  11.728  13.791   4.333  0.1552 -0.0276 -0.4734
26873W        W43720  13.201  10.207  13.394  0.0355  0.3567  0.0695
26874W        W43721   3.617  15.941  13.487 -0.0541  0.1480  0.1069
26875W        W43722   2.713   2.222   1.743 -0.0160 -0.0068 -0.2818
26876W        W43723   4.188  14.114   2.226  0.2179  0.2500  0.0854
26877W        W43724   5.031   4.331   3.254 -0.0957 -0.1775 -0.2960
26878W        W43725  18.168   2.525  14.248  0.2546  0.1149 -0.2368
26879W        W43726   2.650  16.949  11.726  0.3070  0.1644 -0.2156
26880W        W43727  13.646   3.269   3.238 -0.1057  0.1276  0.0887
26881W        W43728   2.097   0.071  13.380 -0.0213 -0.1679 -0.0317
26882W        W43729   9.862  17.111   2.764 -0.0841  0.0095  0.1906
26883W        W43730   8.250   3.662   3.003  0.2139  0.1465 -0.0791
26884W        W43731   8.205   0.897  12.766 -0.0773 -0.1922  0.0046
26885W        W43732   2.793   4.260   0.597  0.0859  0.1452 -0.4629
26886W        W43733  15.780   0.892   3.515  0.1941 -0.1445  0.0067
26887W        W43734   6.993   2.594   0.189 -0.2522  0.0364  0.0069
26888W        W43735   7.988   9.336  13.914  0.2211  0.2273  0.0159
26889W        W43736   7.089  10.685   1.847 -0.1353 -0.1028  0.2444
26890W        W43737   6.367  11.143  13.134 -0.0629  0.0157 -0.1456
26891W        W43738  12.616  15.657   2.370  0.3136  0.2279 -0.0016
26892W        W43739  13.886   4.540  11.936 -0.1176  0.1474  0.3817
26893W        W43740   1.057   9.848  13.774  0.1673  0.1243 -0.3649
26894W        W43741  11.430   0.212   3.756  0.1265 -0.2530 -0.0081
26895W        W43742   9.888  17.276  14.066 -0.0027 -0.1842  0.2129
26896W        W43743   2.580  18.410  13.425 -0.1288  0.0440 -0.0276
26897W        W43744  12.877  15.086   5.672 -0.1589 -0.0735 -0.0037
26898W        W43745   5.864   5.781   2.820 -0.3176  0.2609 -0.0517
26899W        W43746  10.485   7.448   0.219  0.0989  0.2314 -0.2497
26900W        W43747   3.543  16.213   5.236  0.1491 -0.0304  0.4012
26901W        W43748  17.645   7.717   1.931 -0.0958 -0.0064 -0.1716
26902W        W43749   1.512  16.161   2.243  0.4337 -0.1136 -0.2498
26903W        W43750   5.996  11.273   4.946 -0.0512  0.5815  0.0494
26904W        W43751   9.376  12.091  11.701 -0.0838  0.1605  0.1322
26905W        W43752  16.220   7.189  14.082 -0.1316 -0.1498 -0.4508
26906W        W43753  17.126   6.403  11.124  0.0004 -0.1603 -0.3060
26907W        W43754  18.116   1.145  11.809  0.3578 -0.2039 -0.0167
26908W        W43755  16.045  15.136   5.078 -0.1768 -0.0950 -0.2177
26909W        W43756  14.688  13.386  13.149  0.0696 -0.1572  0.0373
26910W        W43757   6.188   8.928   4.439 -0.1166 -0.3030  0.1754
26911W        W43758   4.589   9.016  14.786 -0.1801  0.3449  0.0864
26912W        W43759   5.026   2.947  11.956  0.1719  0.0895 -0.2192
26913W        W43760   2.833  13.447   4.713  0.0735  0.2042  0.0581
26914W        W43761   6.075   7.230  14.573  0.1008  0.0671 -0.0325
26915W        W43762  14.023   7.253  12.679 -0.1175 -0.4178  0.4268
26916W        W43763  13.641   3.939  11.375 -0.0719  0.2654  0.1997
26917W        W43764  11.804   7.775  12.412 -0.1259 -0.0029  0.1977
26918W        W43765   4.936   3.912   0.469 -0.2934  0.5402  0.0497
26919W        W43766  16.511  12.769   1.136 -0.2280  0.1185 -0.1369
26920W        W43767   5.420   7.508   4.108 -0.1922  0.2026  0.0561
26921W        W43768  10.007   2.804   0.122 -0.0338  0.1164 -0.0817
26922W        W43769  10.162  17.574   1.975 -0.2362  0.0637 -0.0998
26923W        W43770   8.096  11.551   0.545  0.0550  0.0034 -0.2745
26924W        W43771  12.362   1.171   2.251 -0.4178  0.3021  0.0931
26925W        W43772  17.538  16.166  12.876 -0.0691  0.3981  0.2024
26926W        W43773   3.655   7.230  13.474  0.2347  0.1172  0.1277
26927W        W43774  17.306   7.480   1.229 -0.0946 -0.1466  0.0384
26928W        W43775  13.183  18.434   3.422 -0.0124  0.1750 -0.0402
26929W        W43776  11.505   4.030   4.753  0.3411 -0.1470 -0.0495
26930W        W43777  17.220  16.627  14.145 -0.1288 -0.2330 -0.1355
26931W        W43778   9.316  14.127   1.056 -0.0343  0.0863  0.0236
26932W        W43779   0.484   3.359  13.233  0.1130 -0.1945 -0.0248
26933W        W43780  14.961  16.998  11.840  0.0891 -0.0033 -0.0951
26934W        W43781  13.979  12.394  11.229 -0.3122  0.1144  0.2176
26935W        W43782  16.576  10.314   0.089 -0.3183  0.0545 -0.0240
26936W        W43783  11.285   5.290  15.475 -0.2484  0.0390 -0.2534
26937W        W43784  10.001  16.836  12.181 -0.2035  0.3148  0.1275
26938W        W43785   1.113  16.108   1.648 -0.2353  0.0065  0.0469
26939W        W43786  17.910   7.325  14.304  0.0296 -0.1469  0.0993
26940W        W43787   7.305  15.898   0.247 -0.1035 -0.1107 -0.0766
26941W        W43788  12.021  16.890   5.399  0.4005  0.2893  0.1611
26942W        W43789  13.933   8.782   4.039  0.1917 -0.0927 -0.0024
26943W        W43790  16.355   3.587   5.571 -0.1038  0.0533 -0.1021
26944W        W43791  10.205  14.995  14.702  0.0023  0.1721  0.3192
26945W        W43792   6.548  16.570  12.268  0.0175  0.0297  0.3513
26946W        W43793   5.111  18.002  12.361  0.1296 -0.1145 -0.2234
26947W        W43794  18.093  15.470  14.247 -0.0656 -0.2161  0.0329
26948W        W43795   8.481   6.760  13.504  0.1777 -0.1628  0.1757
26949W        W43796  15.914  16.610   4.581 -0.0530  0.1373  0.2285
26950W        W43797   3.210  16.841   0.257  0.0581 -0.0886 -0.2384
26951W        W43798   3.978   5.430  11.506 -0.1671 -0.3620 -0.2323
26952W        W43799   1.514   1.656   1.466 -0.0677 -0.0669 -0.0799
26953W        W43800   7.201   9.514  13.719 -0.0418  0.0163  0.2234
26954W        W43801  17.407   3.625  10.982 -0.1509 -0.1685 -0.0330
26955W        W43802   7.786  11.718   1.796 -0.2503 -0.0354 -0.3149
26956W        W43803   9.794  18.798   4.659 -0.0760  0.0787  0.3540
26957W        W43804  15.601  10.697   3.694  0.0617 -0.2459  0.3373
26958W        W43805   9.263   8.029  12.746 -0.3265  0.0957  0.4235
26959W        W43806  12.752   8.765   4.004 -0.2264  0.2135  0.0978
26960W        W43807   4.522  15.013   0.664  0.0812 -0.0221 -0.2343
26961W        W43808   8.296   5.105   2.174 -0.1252 -0.2566 -0.3161
26962W        W43809   1.664  12.894  14.262  0.1013 -0.0609 -0.0400
26963W        W43810   4.273  11.294  14.340 -0.2351 -0.0158 -0.0595
26964W        W43811   9.663  18.608  13.107  0.1345  0.1217 -0.0504
26965W        W43812   8.530   2.679   2.455  0.0023  0.2602 -0.0855
26966W        W43813  15.036  10.241   2.115 -0.0557 -0.0991 -0.2807
26967W        W43814   2.868   1.656  12.132  0.3062 -0.0294 -0.2801
26968W        W43815  17.895   0.718  11.879 -0.0155 -0.0328  0.1495
26969W        W43816   7.010   9.031   3.663  0.2778  0.1288 -0.0816
26970W        W43817   5.871   6.487   0.352 -0.1555 -0.3467 -0.2154
26971W        W43818  11.178   2.554   3.587  0.0551 -0.1595  0.2117
26972W        W43819  13.780   2.938  12.805 -0.0104  0.3972 -0.0427
26973W        W43820   6.875  10.737   4.143 -0.0113  0.1268 -0.3200
26974W        W43821   6.800  15.628   0.992 -0.2992 -0.1336 -0.0616
26975W        W43822  15.907  14.082  10.296 -0.0196  0.0615 -0.1057
26976W        W43823  13.568   7.856   2.188 -0.3223  0.0309  0.2160
26977W        W43824   6.679   2.159  12.203  0.1336  0.1351 -0.2336
26978W        W43825   1.922   0.127  13.911  0.2778  0.2195 -0.0473
26979W        W43826   9.640  13.098   1.791 -0.1032 -0.0784 -0.0035
26980W        W43827   1.855   2.384  11.201  0.0403 -0.3415  0.2500
26981W        W43828   9.675  17.895   3.716  0.0806 -0.0158  0.0465
26982W        W43829  17.716   1.517   5.851 -0.2021  0.1622  0.2405
26983W        W43830   1.281  13.149   4.433  0.3430  0.0138 -0.1451
26984W        W43831  10.573   3.660   3.719  0.1801 -0.0189 -0.1424
26985W        W43832   6.677  13.946   3.081 -0.0302 -0.2273  0.2152
26986W        W43833  15.397  18.126   3.073  0.3086  0.3924 -0.0599
26987W        W43834  15.100  12.748  12.822  0.0862 -0.0257 -0.2486
26988W        W43835  17.360  17.101  14.284  0.3955 -0.0860 -0.2824
26989W        W43836   4.790   3.030  12.584  0.0523 -0.1280  0.1565
26990W        W43837   4.961   5.157  12.161  0.0304  0.1585 -0.0811
26991W        W43838   3.477   7.874   1.204 -0.0987 -0.0568 -0.1942
26992W        W43839   0.152   3.620  14.132  0.5631  0.0508 -0.1800
26993W        W43840  14.042   2.288   3.582  0.1130  0.5214  0.2755
26994W        W43841  15.117   2.869   4.722 -0.0799  0.2012  0.2594
26995W        W43842   4.844   7.043  14.976 -0.2770  0.0507 -0.0770
26996W        W43843   0.193   5.994   1.988  0.0875  0.2996  0.1488
26997W        W43844   8.666  14.759  14.919  0.0466  0.0527  0.2629
26998W        W43845  18.626   2.209   0.081 -0.0692 -0.2257  0.0899
26999W        W43846  12.593  14.750  13.976 -0.0512  0.1829  0.1010
27000W        W43847   1.359  15.505  13.712 -0.0484 -0.0506  0.1606
27001W        W43848   8.970   6.941  13.489  0.0574  0.4393  0.1608
27002W        W43849   4.018   5.167   1.119 -0.1252  0.0452  0.3086
27003W        W43850  11.050  12.800  14.757  0.0728 -0.1059  0.3216
27004W        W43851   4.168   2.035   1.634 -0.1099  0.1766  0.0391
27005W        W43852   1.982  18.348  15.032  0.1208 -0.1402 -0.0969
27006W        W43853   1.457  18.511   5.024 -0.0624  0.1703  0.0324
27007W        W43854  14.017   8.188   1.413 -0.0773  0.1291 -0.1800
27008W        W43855   6.627   3.334   0.896 -0.2990  0.0313  0.0382
27009W        W43856  17.862  15.843   0.318 -0.2558 -0.4187 -0.0506
27010W        W43857  13.905  13.724  10.892 -0.0357  0.1071 -0.1673
27011W        W43858   7.714  17.016  11.296 -0.1337  0.0815  0.0230
27012W        W43859  13.096  10.975  13.363 -0.1621 -0.1193 -0.2677
27013W        W43860   7.295  12.720   1.463 -0.0478  0.3765  0.1216
27014W        W43861  11.549  11.547  11.370  0.1316 -0.1041  0.1236
27015W        W43862  11.821   9.735   1.680  0.5040 -0.0028 -0.2455
27016W        W43863  15.611   2.716  14.281 -0.1910 -0.0941  0.3416
27017W        W43864  11.209   3.167   2.074  0.0347 -0.3078 -0.0841
27018W        W43865   9.367   6.241   3.023  0.3688 -0.1907 -0.0121
27019W        W43866  12.082  17.662  13.292  0.1027 -0.0247 -0.1746
27020W        W43867  11.599   8.453   3.271 -0.2448  0.0314 -0.2828
27021W        W43868  14.406  18.426  12.841 -0.1772  0.2104  0.1687
27022W        W43869  13.214  10.531   4.491  0.0774  0.0163 -0.1066
27023W        W43870  16.887   4.517   4.867  0.2673 -0.0204 -0.0509
27024W        W43871  14.668   4.672  14.505  0.1409  0.0059 -0.3120
27025W        W43872   1.657  14.795  10.574 -0.2627  0.3645 -0.0003
27026W        W43873  17.786   5.113  14.906  0.1535  0.0817  0.0368
27027W        W43874   9.231   1.654   2.078 -0.0786 -0.0306 -0.0398
27028W        W43875  10.776   6.402  11.880  0.0322 -0.5139 -0.0871
27029W        W43876   4.191  13.841   4.896  0.1956  0.1111  0.2474
27030W        W43877  11.575  13.767  13.028 -0.2326  0.0368  0.1184
27031W        W43878  14.311   5.815  12.775  0.0001  0.3877  0.2226
27032W        W43879  11.556  17.458   1.517  0.2007 -0.2598 -0.1538
27033W        W43880  16.556   5.324   5.906  0.2828 -0.2771 -0.1734
27034W        W43881   2.001  13.071  10.687  0.0425  0.0826 -0.4024
27035W        W43882   3.609  12.426  12.709 -0.1328 -0.1826 -0.0758
27036W        W43883   0.184   2.070   5.676 -0.0038  0.2007  0.0553
27037W        W43884  12.150   9.231  14.610  0.2089  0.2701  0.0125
27038W        W43885   1.348  10.778  12.905  0.0350  0.1292  0.1831
27039W        W43886   5.454  10.811  12.922 -0.0454 -0.0851 -0.2214
27040W        W43887   7.711   0.580  11.531 -0.4442 -0.0482  0.0257
27041W        W43888  12.020  14.701   4.745  0.0178 -0.1521  0.0060
27042W        W43889   9.903   7.518  14.264 -0.1848  0.0737 -0.0691
27043W        W43890   9.354  12.059   0.778 -0.0244 -0.2779  0.3978
27044W        W43891   8.686   2.616  13.487 -0.1665  0.1905 -0.3523
27045W        W43892   7.405   1.325   0.275  0.0428 -0.4622  0.2731
27046W        W43893  11.906  14.900   2.188 -0.0852  0.2812 -0.1322
27047W        W43894   9.663  13.455  12.180  0.0266  0.0933  0.1088
27048W        W43895   6.726   3.131  13.540  0.0425 -0.0530 -0.2167
27049W        W43896   8.375  16.694   2.142 -0.0184  0.3539  0.2826
27050W        W43897   2.160  16.483  11.226 -0.0989  0.1189 -0.0979
27051W        W43898  11.346  18.818  14.379  0.1890 -0.0906 -0.0707
27052W        W43899   4.424  18.114   2.378  0.2761  0.1174 -0.2075
27053W        W43900  15.847   3.513  13.565 -0.1930  0.1754 -0.1157
27054W        W43901  16.369  18.054  13.916 -0.0417  0.3843 -0.0392
27055W        W43902  10.209   9.860   2.326  0.1062  0.0359 -0.1331
27056W        W43903  17.180  18.523   1.772 -0.1933  0.0430 -0.0057
27057W        W43904   7.471   6.908  15.049  0.4108 -0.2813 -0.0831
27058W        W43905   5.523   9.668  13.407  0.0025 -0.0755 -0.2119
27059W        W43906  11.956   3.338   1.282  0.0947  0.0929 -0.0346
27060W        W43907   7.119  18.828  14.800 -0.0526  0.2793  0.3194
27061W        W43908  16.048   7.119   2.766 -0.0105  0.0994 -0.0867
27062W        W43909  11.512   4.028   0.394  0.3623 -0.2562 -0.0150
27063W        W43910  14.704   9.721  12.187 -0.0757 -0.0807  0.4603
27064W        W43911  10.918  15.628  11.794 -0.0234  0.1893 -0.1159
27065W        W43912  12.218   8.444   3.911 -0.2988 -0.4943  0.0383
27066W        W43913   2.307  18.621  13.802 -0.0859  0.2037  0.0019
27067W        W43914   6.543   3.096   4.049  0.1824  0.1092 -0.1861
27068W        W43915  13.720   1.062  11.042 -0.3767 -0.2538 -0.3342
27069W        W43916   1.582   6.966   5.944  0.0516  0.1060  0.0848
27070W        W43917  12.302   3.262   0.966 -0.1282  0.3288  0.1575
27071W        W43918   3.573   8.725  13.880  0.0853  0.1641 -0.0445
27072W        W43919  13.142   4.883   2.211 -0.0264  0.4286  0.3821
27073W        W43920   5.643   9.931   2.212 -0.3609 -0.1293 -0.0038
27074W        W43921  16.760   7.042   0.382  0.3451  0.0839 -0.1608
27075W        W43922   2.456   4.342  12.130 -0.2568 -0.1488  0.0123
27076W        W43923  15.195  16.219   3.119 -0.2079 -0.1337  0.0383
27077W        W43924   1.069   6.380   2.839 -0.1671 -0.3242  0.2399
27078W        W43925  14.310   8.930   3.013  0.0430 -0.1571  0.1861
27079W        W43926  13.371   0.827  13.448  0.1167 -0.3643 -0.1045
27080W        W43927   8.858   2.918  13.149  0.4272  0.0392 -0.0297
27081W        W43928  16.652   8.198   2.275 -0.3407  0.0887 -0.2234
27082W        W43929  16.163   2.714  11.624  0.1935  0.0029  0.1361
27083W        W43930   7.820  12.389  11.400 -0.0034  0.4040 -0.1980
27084W        W43931   8.871  14.367  15.112 -0.0734 -0.0597  0.0284
27085W        W43932  14.104   5.314   3.742 -0.0618 -0.0367 -0.0334
27086W        W43933   7.958   8.856  12.681  0.1722  0.0483 -0.0314
27087W        W43934   5.164  18.755   4.727 -0.0370  0.0315 -0.1811
27088W        W43935  11.630  14.083  10.760  0.3061 -0.0606 -0.4567
27089W        W43936  16.063  12.731  12.893  0.0591  0.1385  0.4678
27090W        W43937  13.013  17.170  12.751  0.1813  0.1623  0.0221
27091W        W43938  16.324  15.974   4.661 -0.2641  0.1273 -0.0256
27092W        W43939  12.393   8.657   2.198  0.1271 -0.0976 -0.1322
27093W        W43940   7.725   0.327   0.068 -0.0033 -0.2584 -0.2243
27094W        W43941   6.070   1.030  12.115  0.2652 -0.1340  0.0933
27095W        W43942   2.689   1.227   2.806 -0.0920 -0.2295 -0.3216
27096W        W43943  16.612  16.654  10.542  0.0480 -0.2875  0.3719
27097W        W43944   9.442  11.760  10.931 -0.0383 -0.1020 -0.2842
27098W        W43945   2.766  15.612   3.278  0.1053  0.3297  0.2833
27099W        W43946   8.617   0.737  15.389  0.0360  0.1563  0.1401
27100W        W43947   7.290   7.485  14.652 -0.0775  0.2103 -0.3418
27101W        W43948   3.980   0.494   5.298 -0.3612  0.0931  0.3796
27102W        W43949  12.536  13.161  13.281  0.4436  0.0521  0.0295
27103W        W43950  18.680  11.800  11.855 -0.0280  0.1015  0.0481
27104W        W43951  18.845   7.384  11.441  0.4273  0.0102  0.1554
27105W        W43952  15.172   7.134   1.426  0.2496 -0.0391 -0.0515
27106W        W43953   9.783   2.263   0.721  0.1246 -0.0229  0.3439
27107W        W43954   2.691  14.884   2.137 -0.0038 -0.5072 -0.0579
27108W        W43955   1.905  17.541   3.309 -0.3703 -0.0755 -0.0829
27109W        W43956  10.980  17.368   1.415  0.1240  0.2060  0.1536
27110W        W43957  13.223  12.579   4.479 -0.1203  0.0491  0.2283
27111W        W43958  13.450   6.656  14.484  0.0093  0.0116  0.1021
27112W        W43959   1.281   5.081   1.915  0.0133  0.3397 -0.0728
27113W        W43960   7.479  14.635  12.283  0.0067  0.0434  0.2684
27114W        W43961  17.570  18.205  12.600  0.1426 -0.0736 -0.0997
27115W        W43962   5.885   4.185  14.781 -0.1445 -0.0226  0.2473
27116W        W43963   7.564  14.141   4.080 -0.0913  0.0298 -0.0962
27117W        W43964   8.806  17.528   1.180 -0.1142 -0.2354 -0.1010
27118W        W43965   4.707  11.206  11.967  0.0929  0.2821  0.3744
27119W        W43966   1.437   7.604  14.164  0.0282  0.1850 -0.3603
27120W        W43967   7.905   1.330   1.462  0.1865 -0.1548 -0.2661
27121W        W43968  12.763   2.522  13.974  0.0487  0.0216  0.0288
27122W        W43969   2.904   8.651   3.108  0.0453  0.3220 -0.0683
27123W        W43970   0.244  15.410   0.769 -0.2774  0.0425 -0.0341
27124W        W43971   9.051   8.651  13.646 -0.1492 -0.0092 -0.3821
27125W        W43972   1.064   4.096  12.459  0.2400 -0.1104 -0.1806
27126W        W43973   9.430  13.755  10.780  0.2708  0.0286  0.3198
27127W        W43974  10.118  11.574  15.179  0.1807 -0.2280 -0.1391
27128W        W43975  11.501  16.860  11.288  0.0725  0.1683  0.2967
27129W        W43976   1.152  13.668  14.898 -0.0333 -0.2376  0.2116
27130W        W43977  13.287  10.114  12.894 -0.1607  0.2624 -0.1750
27131W        W43978   1.449   3.305  11.546  0.1263 -0.0306  0.1465
27132W        W43979  16.335  15.847  14.283  0.0335 -0.1567 -0.1451
27133W        W43980   5.944   4.679   1.711  0.2220  0.0707  0.1825
27134W        W43981   6.498   3.301   2.253 -0.0729  0.0273 -0.0721
27135W        W43982  13.987  17.319  11.198 -0.0116 -0.0869  0.0112
27136W        W43983  14.201   7.889   4.444 -0.3780 -0.2573  0.0330
27137W        W43984  10.686   5.013  11.332 -0.3447  0.1482 -0.0115
27138W        W43985  18.157  10.518  15.248 -0.0462 -0.1436  0.0052
27139W        W43986   1.396   1.257  11.530 -0.2560  0.1328 -0.0912
27140W        W43987   5.433  13.069  13.490  0.0931 -0.1302 -0.0184
27141W        W43988   7.489   4.720  11.305 -0.0098  0.1278 -0.0147
27142W        W43989  13.859   6.292   1.103  0.0832  0.0017 -0.1979
27143W        W43990  12.802  17.506   1.071 -0.0718 -0.2813  0.2565
27144W        W43991   1.768  12.796  13.423  0.4411 -0.0092  0.3030
27145W        W43992   7.802   5.332   2.957 -0.2315 -0.0544  0.0496
27146W        W43993   9.163  10.923   5.975  0.1109 -0.0184 -0.1184
27147W        W43994   0.027  15.383  11.569  0.2152 -0.0784 -0.0557
27148W        W43995  13.805  17.692   4.497  0.4100  0.1059  0.0490
27149W        W43996   7.941   2.848  14.116 -0.0300  0.0763 -0.0190
27150W        W43997   1.713  18.160   1.542  0.0520 -0.1878  0.0740
27151W        W43998   6.058  10.578   5.640  0.1746 -0.2566 -0.0140
27152W        W43999  10.969  15.360   1.517 -0.0665 -0.0169 -0.2725
27153W        W44000  13.873  10.979   5.342  0.0497  0.1639  0.0726
27154W        W44001   8.178  15.658   3.946  0.3269  0.3020  0.0529
27155W        W44002  15.683  14.721  15.369  0.0408  0.0915 -0.1243
27156W        W44003   6.636   8.731  12.027  0.1030 -0.1751  0.0146
27157W        W44004  13.490   0.442   2.523  0.2539 -0.0374 -0.0473
27158W        W44005  15.578   2.644   4.855 -0.2335 -0.0724  0.1161
27159W        W44006   8.965   6.633   3.081  0.3403  0.0721 -0.2115
27160W        W44007   6.615  14.988  12.491  0.0997  0.0002 -0.0121
27161W        W44008   1.744   1.051   4.047 -0.0902  0.4190  0.3135
27162W        W44009   8.225   2.739  13.648 -0.0690  0.0171 -0.1457
27163W        W44010   4.496  15.168   4.786  0.2070  0.0407  0.0002
27164W        W44011  10.130   0.527  11.637 -0.2340 -0.0194 -0.1652
27165W        W44012   7.662   1.603  11.559 -0.0213 -0.1004  0.1680
27166W        W44013   2.172   1.975   4.365 -0.0021 -0.1043 -0.1726
27167W        W44014   6.160  18.749  12.008  0.0128  0.3240  0.3224
27168W        W44015   1.654  17.467  13.274 -0.4801 -0.0494 -0.1885
27169W        W44016   5.329   0.357   1.032  0.3540 -0.1962 -0.2987
27170W        W44017  12.486  16.814  14.055  0.0038 -0.1795 -0.0546
27171W        W44018   9.397   0.890   0.492  0.1905 -0.2459 -0.0604
27172W        W44019   3.122   4.639   5.044  0.4550 -0.0857 -0.0307
27173W        W44020   1.227   7.087  11.793 -0.2876  0.2266 -0.0008
27174W        W44021  17.980  14.482   5.664 -0.1737 -0.2722  0.1815
27175W        W44022   9.843  18.573   2.026 -0.1675 -0.1217  0.0757
27176W        W44023  17.302  12.932  12.909  0.0296  0.1740 -0.1295
27177W        W44024   6.714   4.641   5.887  0.2195 -0.0669  0.0444
27178W        W44025  10.383   7.070   1.147  0.1661  0.0294  0.0068
27179W        W44026   2.350   7.058  13.234  0.2488  0.1146 -0.2186
27180W        W44027  15.944   2.583  12.823 -0.0025 -0.1336 -0.0233
27181W        W44028   1.269   0.713   5.022  0.1926 -0.5695 -0.2467
27182W        W44029  15.738   1.308  15.171  0.1775  0.2060 -0.0821
27183W        W44030   9.077   3.996   3.617 -0.0645 -0.1295  0.0859
27184W        W44031   9.604  16.738   3.076 -0.1009  0.0881  0.0152
27185W        W44032  15.880   4.598   2.366  0.3969  0.1903 -0.1806
27186W        W44033   4.842  16.795   3.216  0.0460  0.2451  0.2938
27187W        W44034  13.357  11.669  12.712 -0.0208 -0.2375 -0.0276
27188W        W44035  16.880  11.747   2.860 -0.1168 -0.0003  0.1721
27189W        W44036  13.903  11.150  13.023  0.2304 -0.0255  0.1100
27190W        W44037   9.438   3.613  11.212  0.1584 -0.4070 -0.2544
27191W        W44038  10.822  13.186   0.980 -0.3014 -0.2939 -0.0128
27192W        W44039   8.247   1.049  14.575 -0.1122 -0.1904  0.0315
27193W        W44040   1.787   5.000   0.481  0.1626 -0.0899 -0.0369
27194W        W44041   6.719   1.574   0.555  0.1205 -0.0645  0.2339
27195W        W44042   2.147  13.541   3.913  0.1442 -0.4123 -0.0118
27196W        W44043  14.693  10.440  14.180 -0.0919  0.1108  0.4020
27197W        W44044   6.042   7.732   4.657 -0.0293 -0.1106  0.0668
27198W        W44045   1.654  12.592  15.327 -0.3416  0.1023 -0.1874
27199W        W44046   1.924  15.696  12.022  0.0746  0.0770  0.0066
27200W        W44047  10.087  10.096  12.514 -0.0176  0.1643 -0.1342
27201W        W44048   3.560  11.919  11.890 -0.0945  0.0671  0.2128
27202W        W44049  12.547   5.939   5.465  0.0708  0.2602 -0.0911
27203W        W44050   5.903  17.696  12.627  0.0619 -0.1895  0.0624
27204W        W44051  11.175  15.390  11.434 -0.1468 -0.1169 -0.1072
27205W        W44052   9.309  13.353  13.766 -0.1498 -0.2159  0.2189
27206W        W44053   1.791   2.951   0.210 -0.2256  0.0867  0.2896
27207W        W44054   2.765   5.853  13.689 -0.2647 -0.1047 -0.0127
27208W        W44055  10.545   5.691   2.871 -0.0165  0.2705  0.1170
27209W        W44056   8.215  17.707   3.733 -0.0508 -0.0206  0.2337
27210W        W44057   1.547   7.517  15.451  0.0952 -0.1340 -0.1632
27211W        W44058   6.989   6.441  14.553 -0.3283  0.0770 -0.0277
27212W        W44059   6.530   2.908  11.434  0.2752  0.1012  0.1254
27213W        W44060  11.322   2.292   4.079 -0.2350  0.0281  0.0828
27214W        W44061   1.509   5.130   2.424  0.0035  0.1191 -0.1803
27215W        W44062  13.040  11.450   5.796 -0.0702 -0.2458 -0.1304
27216W        W44063  10.974   6.016  15.382  0.2006  0.1668 -0.0074
27217W        W44064  15.523  10.919   3.241  0.0192  0.1129  0.1633
27218W        W44065   8.245  14.796   3.345  0.1337 -0.0180 -0.3364
27219W        W44066  14.461  10.713   0.055 -0.2064  0.1932 -0.1873
27220W        W44067  10.519   5.998  12.643 -0.1027 -0.1533 -0.1110
27221W        W44068   4.217   6.671   5.182 -0.2772  0.0316 -0.3671
27222W        W44069   7.163   5.214   4.567  0.1949  0.5040 -0.0564
27223W        W44070  16.064  12.089  14.058  0.0928 -0.1604  0.2140
27224W        W44071   1.865  11.325   3.560 -0.0633  0.0783  0.1749
27225W        W44072   5.650  15.359   1.935 -0.2695  0.3275  0.1378
27226W        W44073   1.505   3.230   4.648  0.2739  0.0253 -0.1933
27227W        W44074   8.151  18.495   5.078  0.1995 -0.3349 -0.2673
27228W        W44075  10.423   2.500  12.463  0.1539 -0.0753  0.1307
27229W        W44076   7.908   2.214   1.670 -0.0945 -0.2831  0.0541
27230W        W44077  15.308  17.309  12.173 -0.0244 -0.0170 -0.0614
27231W        W44078  12.678   5.821  10.853 -0.2273  0.3023  0.0734
27232W        W44079   3.658   2.527   4.966  0.1198  0.0268 -0.1803
27233W        W44080   9.934  13.163  11.891 -0.0282  0.0966  0.0892
27234W        W44081  18.200  18.686  12.135 -0.0370 -0.2650  0.1793
27235W        W44082  10.384   5.279   3.309  0.2625 -0.2315  0.2118
27236W        W44083   4.880  15.829   3.119  0.2569 -0.0804  0.1133
27237W        W44084  11.114   6.302   4.633  0.0133 -0.0279  0.0787
27238W        W44085   2.511  16.430  11.669 -0.1771 -0.0640  0.1908
27239W        W44086   1.958   0.424  12.997  0.0781 -0.2975  0.2184
27240W        W44087  13.042  15.217  14.018  0.1231 -0.0781  0.0601
27241W        W44088   6.794  17.558  12.524  0.1629 -0.2040  0.0001
27242W        W44089   1.279  10.184  12.630 -0.0450  0.0430  0.1966
27243W        W44090  17.174  13.549  12.191 -0.0424  0.0391  0.0985
27244W        W44091   8.552  11.787  12.812 -0.1002 -0.2507 -0.3339
27245W        W44092  14.013   8.434  13.258 -0.2388 -0.0866  0.2412
27246W        W44093   1.894  18.271   2.513  0.1274  0.0597  0.1008
27247W        W44094   7.384  11.520   4.564 -0.1486  0.1125  0.0069
27248W        W44095   7.148   1.052  11.958 -0.0561  0.1256 -0.4810
27249W        W44096   0.222   1.742  11.849 -0.0585 -0.2261 -0.1008
27250W        W44097   0.342   7.568  11.699  0.1716  0.0329 -0.3166
27251W        W44098   6.536  18.074  13.923  0.2042 -0.0840 -0.1123
27252W        W44099  12.336  15.249  15.069  0.1851 -0.2149  0.0802
27253W        W44100  14.170  11.655  12.828  0.5166 -0.0031 -0.3085
27254W        W44101  13.943   9.302   3.284  0.2261 -0.4779  0.3630
27255W        W44102   2.896  12.984  10.978  0.0239 -0.1156  0.2482
27256W        W44103  16.830  14.849  11.712 -0.1624  0.1975  0.2548
27257W        W44104  15.580  12.028   2.302 -0.1538  0.3925  0.1470
27258W        W44105  10.402   0.215  14.711  0.1069 -0.4600 -0.2684
27259W        W44106  13.056   1.565   4.748 -0.0289  0.0555  0.0900
27260W        W44107   5.977  17.623  15.227 -0.1423 -0.0995 -0.0361
27261W        W44108   1.400  12.868   0.785 -0.1535 -0.0876  0.1345
27262W        W44109   8.039   4.738   2.519 -0.0031  0.1465  0.0614
27263W        W44110   9.298  14.864  10.995  0.0884  0.4679  0.0084
27264W        W44111   9.930  11.323   1.877 -0.0661 -0.0095 -0.3093
27265W        W44112   8.164  17.888  10.675  0.0487 -0.2086 -0.0308
27266W        W44113   6.414  16.077   5.190  0.0650  0.1735 -0.1704
27267W        W44114  18.402   9.128   0.981  0.3430  0.1344  0.1843
27268W        W44115   3.479   4.658   4.235  0.0615 -0.0560  0.2295
27269W        W44116   3.246   5.918  13.635 -0.2367 -0.0464 -0.1559
27270W        W44117   4.383   0.717   3.926 -0.4020  0.0302 -0.0937
27271W        W44118   7.218   2.892  14.597  0.0877 -0.1902  0.1343
27272W        W44119  10.284   4.641  12.741  0.2025  0.0223 -0.0685
27273W        W44120  14.172   7.636  13.838 -0.2574 -0.0449 -0.0458
27274W        W44121   6.986  13.243   1.386 -0.0456 -0.3327 -0.3713
27275W        W44122  18.207  13.075  14.671 -0.2683 -0.1250 -0.3503
27276W        W44123   0.057   4.940  11.218 -0.0550  0.0014  0.1479
27277W        W44124  11.779   0.013   0.892  0.0443  0.1275  0.4727
27278W        W44125  14.495   1.122   0.522 -0.0852  0.1506  0.0185
27279W        W44126   5.427   6.725   0.198 -0.0129  0.0488  0.1888
27280W        W44127  13.055  10.563   5.471  0.1716 -0.2803 -0.0440
27281W        W44128   6.059  13.890   4.438 -0.0077  0.2750  0.0246
27282W        W44129  12.484  11.948  12.572  0.1481 -0.2341 -0.0938
27283W        W44130  17.089  11.316   1.903  0.0604 -0.0248 -0.0512
27284W        W44131   8.313   8.854  14.188  0.2559  0.3074 -0.0320
27285W        W44132  15.775   1.800   6.250  0.2630 -0.4477  0.0944
27286W        W44133   1.362   0.204   2.583  0.0342  0.0137 -0.0355
27287W        W44134  11.047  16.389  12.978  0.1967  0.1433  0.0819
27288W        W44135   8.311  16.399   1.706 -0.2602  0.2398  0.1009
27289W        W44136   1.632   1.783  12.690  0.0237 -0.2306 -0.2374
27290W        W44137   3.504   5.492  15.406  0.0659  0.0814  0.1082
27291W        W44138  10.683   7.946  13.865 -0.2031 -0.0818  0.0383
27292W        W44139   1.404  11.793   1.986 -0.0036 -0.2821 -0.0009
27293W        W44140  12.676  14.687   1.946  0.2253 -0.0507 -0.0686
27294W        W44141   5.479   4.315  14.107  0.0104  0.1446 -0.1290
27295W        W44142  14.779  15.802   1.966  0.3711 -0.4863 -0.1710
27296W        W44143  13.459  13.169  12.729  0.0577 -0.2195 -0.1264
27297W        W44144   4.365  11.620   3.741 -0.1114  0.1173  0.1336
27298W        W44145  11.663   0.479   1.050 -0.3774 -0.0257  0.0706
27299W        W44146  17.821  16.040  15.431 -0.2021 -0.2163  0.0890
27300W        W44147   6.266  17.484   2.248  0.0263 -0.1641 -0.2752
27301W        W44148   6.969   4.414   0.821  0.0528  0.2422  0.1340
27302W        W44149  18.813   9.291  11.225 -0.0280 -0.1676 -0.0751
27303W        W44150   1.558  11.417  15.490  0.0917 -0.0023  0.1634
27304W        W44151  12.677  11.070  12.050 -0.5256 -0.0275  0.2947
27305W        W44152   3.961  14.937  14.619  0.0337 -0.0069 -0.0856
27306W        W44153   9.367  14.129   2.506 -0.3585  0.0828 -0.0013
27307W        W44154   6.048  18.111  11.435 -0.3198 -0.4019 -0.1818
27308W        W44155  18.666   9.547   5.939  0.2563  0.2381  0.0664
27309W        W44156   1.944  12.228  11.731  0.1787  0.2802  0.1103
27310W        W44157  13.648  10.526   4.212  0.0580 -0.1312  0.2364
27311W        W44158   7.606   3.771   4.691 -0.0491  0.0113 -0.0498
27312W        W44159   9.260  14.319  13.607  0.1005  0.1268  0.1775
27313W        W44160  14.573  18.427  12.356 -0.3430 -0.3050  0.1681
27314W        W44161   2.574   9.735  12.974  0.1850 -0.0272 -0.1461
27315W        W44162   3.829  13.076   5.301 -0.1384  0.1869 -0.2998
27316W        W44163   5.005  14.632  14.950  0.2110 -0.2165 -0.1340
27317W        W44164   6.977  15.267   2.816  0.1132 -0.1329  0.0742
27318W        W44165   0.094  14.122  11.856 -0.1290  0.1530 -0.0811
27319W        W44166  12.646   7.711   1.265  0.2080  0.0664 -0.0624
27320W        W44167   9.903   1.883   2.432 -0.0090 -0.0329  0.0127
27321W        W44168  18.258  11.329   2.416 -0.3259  0.1701 -0.2933
27322W        W44169  18.292  10.292  12.674  0.0068  0.0200 -0.2026
27323W        W44170   8.059  13.535   3.631 -0.1413  0.0652 -0.0167
27324W        W44171  16.455   9.877   0.276 -0.1949  0.1203  0.1785
27325W        W44172  10.508   8.534   1.559 -0.1064  0.1242  0.1779
27326W        W44173  10.337  10.124  13.423  0.0239  0.1539  0.1721
27327W        W44174   3.675   8.684   5.730 -0.2072  0.3580 -0.0805
27328W        W44175  17.588  12.620  11.112 -0.1905  0.0619 -0.2457
27329W        W44176  13.783  13.005   9.884  0.1435 -0.2128  0.0350
27330W        W44177   1.512  18.523   3.944  0.0544 -0.1520  0.1851
27331W        W44178   5.092   7.356  11.061  0.2330  0.0629  0.3080
27332W        W44179   6.109  18.423  13.895  0.0444  0.3131 -0.0566
27333W        W44180  12.669   4.944  10.890  0.0734  0.1399 -0.0228
27334W        W44181  10.557  14.769   2.346  0.0979  0.3358  0.0691
27335W        W44182  13.780  16.340   1.051 -0.4097  0.0564 -0.1181
27336W        W44183   7.400  14.409  13.559  0.0119 -0.0191  0.1401
27337W        W44184  15.435   6.006  11.997  0.1534  0.3230  0.3541
27338W        W44185   3.812   0.703   1.800 -0.1000  0.2723  0.0847
27339W        W44186  13.690  12.911   0.706 -0.0374  0.0522  0.2605
27340W        W44187  17.070   7.787  10.931  0.0325 -0.0547 -0.1215
27341W        W44188   3.900  15.108  15.414 -0.0832  0.0274  0.1368
27342W        W44189  10.876  17.508   5.290  0.1333 -0.0804  0.1412
27343W        W44190   7.173   7.071   1.139 -0.1476  0.0903  0.1382
27344W        W44191   1.759  13.645  13.211  0.1767  0.1658 -0.3014
27345W        W44192   0.181  12.086  12.076  0.1504  0.2868 -0.0198
27346W        W44193  10.017  10.629   5.097  0.2263  0.3100  0.0681
27347W        W44194   2.824  13.802   3.437 -0.2699 -0.1558  0.0454
27348W        W44195   0.452  17.237  12.708  0.0439  0.3690 -0.2541
27349W        W44196   6.556  18.811   0.776 -0.0184  0.1609 -0.3086
27350W        W44197   0.860  14.997  11.172 -0.1498 -0.0892  0.3165
27351W        W44198   0.369  16.125  14.929  0.1670 -0.1244  0.1638
27352W        W44199  12.663   3.907   1.487 -0.1245 -0.0891  0.1566
27353W        W44200   3.441  15.909   3.158 -0.1332  0.1409  0.0968
27354W        W44201   4.658  11.721  12.645 -0.1711 -0.0965 -0.1860
27355W        W44202  13.997   7.038   4.895 -0.2303  0.0607  0.0779
27356W        W44203   4.637   5.009   1.730  0.2669 -0.1876  0.0607
27357W        W44204   0.723  16.103  11.674 -0.1138  0.1704 -0.2279
27358W        W44205   9.075  12.902   1.924 -0.2911  0.0266 -0.4553
27359W        W44206   2.862   2.126   3.175  0.0950 -0.1742 -0.1349
27360W        W44207  11.339   0.126  14.895 -0.6676 -0.0343  0.1101
27361W        W44208  10.611  10.317   4.003 -0.2229 -0.1550  0.1311
27362W        W44209   6.053   3.675  12.829 -0.0780  0.3060 -0.1603
27363W        W44210  15.203   6.749   3.585 -0.0279  0.0283  0.0745
27364W        W44211  15.770   1.289  13.691 -0.0177 -0.0641  0.0922
27365W        W44212   0.115   0.975  15.048 -0.1820 -0.3233  0.0288
27366W        W44213  12.819  14.890   2.433 -0.0280  0.2436 -0.2048
27367W        W44214   4.536   6.637   4.606 -0.1228 -0.1291  0.0590
27368W        W44215  14.641  12.930  10.785 -0.0352  0.1536  0.0490
27369W        W44216  17.221  18.707  10.023  0.0302  0.1645 -0.0162
27370W        W44217   3.970  16.778   1.163  0.2048  0.3380  0.1740
27371W        W44218  12.781   2.412  11.747  0.3442 -0.0427  0.0260
27372W        W44219  17.940  16.247  13.259  0.3003  0.1178 -0.0294
27373W        W44220  11.164  13.264  15.340  0.0258  0.1597 -0.1717
27374W        W44221   3.573  15.486  11.620 -0.0653  0.0926  0.0029
27375W        W44222  11.234   0.803   0.691 -0.0326  0.1908 -0.2491
27376W        W44223   2.699  11.342  12.563 -0.3103 -0.1142  0.0569
27377W        W44224   7.628   3.313  11.721 -0.2479  0.1859  0.0559
27378W        W44225  13.772  10.614   4.735  0.3679 -0.0590  0.1780
27379W        W44226  17.874   5.967   5.019  0.1221 -0.3364  0.1884
27380W        W44227  11.999   0.415  11.663 -0.1661  0.0108 -0.1373
27381W        W44228  13.047  11.372   1.854  0.1571 -0.0248  0.0698
27382W        W44229   1.922  16.230  10.378  0.2067 -0.0570 -0.4000
27383W        W44230   5.108  12.094  10.807  0.2663 -0.1397  0.2092
27384W        W44231   7.178  17.679   3.878  0.0819  0.1237 -0.2558
27385W        W44232  11.292  16.871   2.138 -0.1398  0.1622  0.2689
27386W        W44233   3.793   1.776  12.779  0.1726 -0.1104 -0.0603
27387W        W44234  10.369  10.578  12.346 -0.0238 -0.1297 -0.1534
27388W        W44235  16.605   5.930  11.798  0.0807  0.0647  0.0631
27389W        W44236  18.598  13.038   0.920  0.2876  0.1560  0.3343
27390W        W44237   6.072   9.848   0.657 -0.0571 -0.1745  0.1809
27391W        W44238  13.470  16.033  10.886  0.2204 -0.5503  0.0445
27392W        W44239   3.452   5.439   6.115  0.3405  0.0764 -0.0385
27393W        W44240  15.510   3.537  13.044 -0.2942 -0.2927  0.0334
27394W        W44241   8.658   6.773   5.084 -0.0788 -0.0253  0.2292
27395W        W44242  12.402  12.303  15.548  0.2842  0.2880 -0.0858
27396W        W44243  16.582   7.878   9.528 -0.0287 -0.0518  0.1952
27397W        W44244  14.627   5.375  15.461 -0.2120 -0.1430  0.1086
27398W        W44245  16.132  11.358   3.968  0.0957 -0.1459 -0.1246
27399W        W44246   5.228   1.589  12.162 -0.0012  0.2522  0.0733
27400W        W44247  18.728  15.544   9.474  0.1908 -0.3747  0.0713
27401W        W44248  18.429   7.786   5.813  0.0903 -0.0486 -0.0443
27402W        W44249   4.273  15.042   2.970 -0.1758 -0.2651  0.1405
27403W        W44250  14.051   8.775  10.938  0.0999  0.1648 -0.1790
27404W        W44251  16.965   7.780  11.452 -0.2058 -0.1888 -0.0406
27405W        W44252   1.999   2.225  13.705 -0.2059 -0.0388 -0.1231
27406W        W44253   2.279   8.474  13.531 -0.0413 -0.0261 -0.2000
27407W        W44254   1.285  10.961   4.251  0.0352  0.0104 -0.2069
27408W        W44255   3.191  16.418  10.077 -0.3002 -0.2674  0.1602
27409W        W44256  10.340  17.766   0.154  0.2241  0.3283  0.2348
27410W        W44257   4.977  15.945  12.004 -0.0146 -0.0124 -0.1236
27411W        W44258   0.800   1.583  13.443  0.1640  0.1332  0.1361
27412W        W44259   7.507  16.647   2.373 -0.1069 -0.1353  0.1106
27413W        W44260   9.652   1.341   4.823 -0.0207  0.0662  0.1979
27414W        W44261  16.192   1.104   2.302  0.4797  0.0932  0.0978
27415W        W44262   3.486  11.908  15.299 -0.1646  0.0787 -0.0167
27416W        W44263   7.016  14.858   4.910 -0.0361  0.0724 -0.1236
27417W        W44264  15.216  13.059  14.648  0.1556  0.0125  0.0810
27418W        W44265   5.857   8.631  15.136 -0.1012  0.0307 -0.3484
27419W        W44266   8.873  18.663   3.068 -0.1634  0.1691  0.1356
27420W        W44267  11.730  15.520   1.583 -0.1732  0.0409  0.2724
27421W        W44268  14.960  13.348  15.129  0.1373  0.4003 -0.2561
27422W        W44269   0.107  10.069   2.915  0.1293 -0.1126 -0.1087
27423W        W44270  15.095  11.047  15.089 -0.1402  0.0207 -0.3925
27424W        W44271   8.054   8.608  15.114 -0.2465  0.0540  0.1217
27425W        W44272  15.336   0.190  11.955 -0.1578 -0.0067  0.0162
27426W        W44273  12.208  12.313   1.354 -0.0061 -0.0271  0.0605
27427W        W44274   8.811   3.806  14.765  0.2391 -0.3804 -0.0845
27428W        W44275  10.173   8.728   0.001  0.1009  0.2299  0.1496
27429W        W44276   1.689  14.979  13.443 -0.1953 -0.0279  0.0431
27430W        W44277   5.031   6.592   0.847 -0.3365  0.1889  0.3800
27431W        W44278  12.306  16.985  10.901  0.2848 -0.1242  0.0566
27432W        W44279  15.875  17.797  12.331  0.3237  0.0426  0.0032
27433W        W44280  12.662  13.077   3.817  0.3607 -0.1355 -0.3944
27434W        W44281   6.616  13.496  11.177 -0.2887  0.0857 -0.2511
27435W        W44282  18.649  14.127   4.481 -0.0689 -0.0290 -0.0608
27436W        W44283   5.661   3.274  13.543 -0.1165  0.1960  0.1160
27437W        W44284  12.907   6.137  11.221 -0.3352 -0.1835  0.1945
27438W        W44285  15.834   1.113   1.281  0.2482 -0.1244  0.1733
27439W        W44286  12.273  12.830  14.492  0.4713 -0.1418  0.0112
27440W        W44287  10.870  15.797   1.345  0.1043  0.1134  0.2040
27441W        W44288   3.007   2.280   3.825 -0.2885  0.1020 -0.1982
27442W        W44289  14.322   9.821   2.240  0.0521  0.2160  0.2417
27443W        W44290   0.547   9.176  11.995  0.0570  0.1863 -0.0630
27444W        W44291  11.149  18.818   0.276  0.2570 -0.0194  0.0761
27445W        W44292  15.029   6.782  12.093 -0.4346  0.1998 -0.1341
27446W        W44293  17.884  16.584  12.948 -0.0047 -0.0288  0.1335
27447W        W44294   4.369   5.886   3.785  0.1489  0.0238 -0.0238
27448W        W44295   2.406  18.438   1.014  0.1912 -0.0532  0.1683
27449W        W44296  18.382  16.396  13.709 -0.2605 -0.2790  0.0224
27450W        W44297  18.321   6.332   2.164 -0.0713 -0.1355  0.0003
27451W        W44298  13.368  13.314   3.148  0.0130  0.2626 -0.0144
27452W        W44299   1.867  10.016  14.154  0.0400 -0.0805 -0.0767
27453W        W44300   7.523   9.903  13.566  0.4132 -0.1565 -0.0836
27454W        W44301   3.310  16.514   1.924  0.2063  0.3367  0.2014
27455W        W44302  14.487   6.373  14.190  0.0136 -0.0862 -0.1969
27456W        W44303  18.292  13.790   4.011 -0.1528 -0.0024 -0.0253
27457W        W44304   3.061  15.063  13.579  0.0080 -0.1609 -0.1895
27458W        W44305  13.142   9.724  11.520 -0.0685  0.0589  0.0164
27459W        W44306  13.608  11.651  11.741  0.0782 -0.0520 -0.0915
27460W        W44307   1.875   2.116   5.359  0.5326  0.0847  0.1168
27461W        W44308   7.650   2.764   4.133 -0.0499  0.2680  0.1686
27462W        W44309   5.288  13.326   5.218  0.3726 -0.0984 -0.0381
27463W        W44310  13.957   8.149  12.289  0.0182 -0.1071 -0.3032
27464W        W44311   7.673   0.523   0.781  0.1287  0.1387  0.0182
27465W        W44312   2.612   6.215  10.835  0.2161 -0.0713 -0.2835
27466W        W44313   1.014  15.099  12.917 -0.2009  0.0851  0.1783
27467W        W44314   0.090  13.900  13.056 -0.1748  0.1324 -0.2285
27468W        W44315   6.054   2.403   3.991 -0.0271 -0.3255  0.0608
27469W        W44316   3.954   2.330  14.086  0.1479 -0.0339 -0.0839
27470W        W44317   3.647   8.321   2.649 -0.1349  0.1196 -0.5992
27471W        W44318   1.466  17.281   4.551 -0.1468  0.1493 -0.1369
27472W        W44319  15.797  12.917   3.480  0.2343 -0.2374 -0.2126
27473W        W44320  13.919  14.584  15.214 -0.0251 -0.3370  0.2667
27474W        W44321  12.654   0.580   2.934  0.1733  0.0320  0.0650
27475W        W44322  14.225  12.172   5.760  0.0430  0.2340  0.1222
27476W        W44323  15.328  10.621   2.161 -0.1346 -0.2721 -0.2093
27477W        W44324  11.988   2.182  11.713  0.0446 -0.4372  0.1074
27478W        W44325  11.134  11.203   1.350  0.1869 -0.0249 -0.1252
27479W        W44326  10.525   1.138  12.566 -0.2420  0.0158 -0.2302
27480W        W44327  10.109  11.646   0.571  0.0020 -0.0369  0.0384
27481W        W44328   5.686   2.636  13.629 -0.0845  0.0528  0.1365
27482W        W44329  11.863   0.937   4.388 -0.1127 -0.1871  0.0481
27483W        W44330  17.247  10.255   4.990 -0.0792  0.1631 -0.1249
27484W        W44331  18.358   7.943  14.868 -0.0646 -0.0361 -0.1410
27485W        W44332   6.831   3.859   4.223  0.1913  0.1452 -0.0860
27486W        W44333  13.814  16.818  14.467  0.2080  0.3348 -0.1302
27487W        W44334  15.770  11.978   3.238  0.1201 -0.0533 -0.1338
27488W        W44335   1.166  15.325   3.295  0.0369 -0.1646 -0.4791
27489W        W44336   9.787  16.520   0.841  0.0970  0.0124  0.0462
27490W        W44337  11.452  18.087  14.988 -0.0666  0.0336 -0.3033
27491W        W44338  10.723  10.851   3.047 -0.1519  0.2280 -0.2146
27492W        W44339  11.020   3.869   1.768 -0.0923 -0.0981 -0.1704
27493W        W44340   1.272  15.127  10.500  0.1542  0.1784 -0.2613
27494W        W44341   1.116   4.580  15.171  0.1691  0.3065 -0.0351
27495W        W44342  13.625  16.448   2.983 -0.3799 -0.0682 -0.1848
27496W        W44343  13.998  18.295   5.060  0.0965  0.1180 -0.3529
27497W        W44344   5.548  15.901  13.483 -0.0618  0.0491 -0.0899
27498W        W44345   4.592   7.797  13.491  0.2725  0.0010  0.0140
27499W        W44346  10.134   0.725  14.796  0.3244 -0.0637  0.0761
27500W        W44347   6.889   5.763   1.919  0.0302  0.3284 -0.2083
27501W        W44348   2.363  17.085   1.703 -0.2188 -0.4457 -0.0608
27502W        W44349  12.542  15.936   4.075  0.1741  0.0191 -0.1909
27503W        W44350   1.550   0.750   4.443 -0.0126 -0.2891  0.0327
27504W        W44351  10.742  10.517  14.975  0.0954 -0.2670  0.1634
27505W        W44352  17.274   9.861   4.545  0.1597  0.3918 -0.2008
27506W        W44353  14.876   4.233  14.545  0.5329  0.0114  0.1352
27507W        W44354  11.692  14.133   4.734  0.0176  0.0511  0.2319
27508W        W44355   8.096   6.076   2.439  0.1367  0.1304 -0.2596
27509W        W44356   8.077  17.758  14.494  0.2164 -0.0537  0.2012
27510W        W44357   6.781  14.100   3.682  0.1024 -0.1701 -0.1573
27511W        W44358  12.779   9.206  13.450  0.0001 -0.1216 -0.2033
27512W        W44359   1.860   1.633   1.026 -0.1506  0.0854 -0.1451
27513W        W44360  13.916  14.882   3.919 -0.1440 -0.0238 -0.0329
27514W        W44361   1.988   0.851  12.667 -0.0423  0.0826 -0.0600
27515W        W44362  10.886   5.758   1.082  0.1141  0.0571 -0.0567
27516W        W44363   6.264   1.185   3.303  0.0628  0.2022  0.0057
27517W        W44364  17.792  14.677   4.454 -0.0113 -0.0061 -0.1688
27518W        W44365  18.014  18.693   3.088  0.0386  0.0275 -0.0988
27519W        W44366  14.242   5.257  11.181  0.0182  0.1081  0.2464
27520W        W44367  16.136   5.623  10.004 -0.0557  0.0718  0.1225
27521W        W44368   2.161   0.348   5.179  0.1874  0.0828  0.0144
27522W        W44369  18.171   3.444   1.006 -0.0261 -0.0336  0.2367
27523W        W44370  13.902   4.374   1.242  0.1033  0.0286  0.3875
27524W        W44371   6.695   3.972  13.660 -0.0961 -0.0935  0.3593
27525W        W44372   0.215  10.693   3.455  0.0621  0.2909 -0.0098
27526W        W44373  13.437   1.146   3.526  0.1457 -0.2309  0.0151
27527W        W44374   4.098  13.890   4.082  0.0772 -0.0011  0.1666
27528W        W44375   8.696   3.480   1.066  0.2320  0.0366 -0.2167
27529W        W44376  16.175  15.216   4.622 -0.1560  0.1834  0.2494
27530W        W44377  10.362  13.790  10.601  0.1832 -0.2422  0.1844
27531W        W44378   4.370  17.572   4.628  0.1151  0.2341 -0.1785
27532W        W44379  12.032  12.517  10.671 -0.0864 -0.0689  0.2832
27533W        W44380   4.815  16.881  12.082  0.1682 -0.2699  0.0887
27534W        W44381   2.477   0.924  10.609 -0.2114 -0.0396  0.1741
27535W        W44382   8.013  17.345  13.481  0.2058  0.0615 -0.1564
27536W        W44383   5.487  14.155  14.190  0.5520  0.2704  0.0052
27537W        W44384  11.802   5.369  11.946  0.1549 -0.0770  0.3175
27538W        W44385  16.995   2.020   4.051  0.3249 -0.2404  0.1412
27539W        W44386   5.725  16.913   5.241 -0.2046  0.3964 -0.0253
27540W        W44387   3.667  16.448  14.803  0.0187 -0.0412 -0.1906
27541W        W44388   2.747  10.640   2.939 -0.1526  0.1938 -0.0326
27542W        W44389  17.920   3.429  12.872  0.0298  0.3603  0.2138
27543W        W44390   8.465   5.791  11.709  0.1097  0.0021  0.2629
27544W        W44391  15.860  15.657   0.865  0.1505 -0.0967  0.0243
27545W        W44392   4.214  16.846  14.870  0.2248  0.1784 -0.1394
27546W        W44393  16.379   1.187   0.271 -0.1185  0.3023 -0.1297
27547W        W44394  11.456  18.136   1.964 -0.1232 -0.1097 -0.2484
27548W        W44395  11.095  17.435  13.099 -0.2369 -0.3906  0.3039
27549W        W44396   9.357  10.527  11.387  0.2554  0.0257  0.2945
27550W        W44397  18.181  13.415   0.705 -0.0588  0.0244  0.3168
27551W        W44398  15.768   9.071  13.483  0.0196  0.0029  0.3053
27552W        W44399  14.747  14.567   4.502 -0.0644 -0.2017 -0.0302
27553W        W44400   1.700  18.170   2.033  0.3137 -0.0568  0.2241
27554W        W44401  16.182  13.437  11.989  0.1840 -0.1319  0.2475
27555W        W44402  18.099  15.814   1.159 -0.0273 -0.4123 -0.3006
27556W        W44403  17.292   9.772   1.371  0.0251 -0.0430 -0.1743
27557W        W44404   9.473   8.035   0.834  0.3278 -0.1185 -0.2539
27558W        W44405  12.558  10.106   3.524  0.0574 -0.0476  0.2557
27559W        W44406  11.643   5.293  11.470  0.1020  0.0071  0.0936
27560W        W44407   6.868  13.588  12.927 -0.0003 -0.0396 -0.0654
27561W        W44408  15.018   2.721   3.384  0.0376  0.1692  0.1548
27562W        W44409  10.404  13.295  10.544  0.0384 -0.2706 -0.1354
27563W        W44410  14.417  15.972  12.978 -0.2320  0.2263 -0.2172
27564W        W44411  11.122   9.107  13.428 -0.1553 -0.0565 -0.0718
27565W        W44412  16.435   2.694  13.572 -0.2092 -0.2804  0.2866
27566W        W44413  13.644   8.092   1.701  0.0613 -0.0771 -0.0130
27567W        W44414  10.173   9.090   0.997  0.1487  0.2393  0.0886
27568W        W44415   9.030  14.658   0.464 -0.1773  0.0805  0.2505
27569W        W44416  13.025  14.907   3.749 -0.0233  0.1955 -0.0350
27570W        W44417   7.796   5.723  13.054 -0.0557 -0.0730 -0.0505
27571W        W44418  11.017  17.517   2.537  0.1722 -0.2205 -0.0020
27572W        W44419  15.285  13.694   2.120 -0.0249 -0.3680  0.2634
27573W        W44420   3.474  16.478   1.000 -0.2784  0.0914  0.1063
27574W        W44421   0.597   3.764   2.422 -0.0568 -0.3400 -0.3625
27575W        W44422   3.380  15.029   2.963  0.1723  0.0910 -0.2379
27576W        W44423   8.153  14.962   2.281 -0.0072  0.2727  0.1918
27577W        W44424   1.315  17.034  14.902 -0.2312 -0.2256  0.2073
27578W        W44425   3.719  16.059   1.243 -0.1353 -0.0425 -0.1534
27579W        W44426   3.303   4.384   3.656 -0.2411 -0.0815  0.0947
27580W        W44427  15.465   3.446  14.973 -0.2914 -0.0753  0.2502
27581W        W44428   9.390  12.175   4.814  0.1510 -0.2022 -0.3347
27582W        W44429   2.977  11.275   4.334  0.2188 -0.1370 -0.1273
27583W        W44430   5.098  10.620  13.241  0.1496 -0.1091 -0.1967
27584W        W44431   9.709  18.455   0.719 -0.0344 -0.0917  0.0764
27585W        W44432   3.212   9.090  13.881  0.0417  0.1356 -0.0849
27586W        W44433   3.534  16.195  12.704 -0.1613 -0.0299  0.0231
27587W        W44434   8.552   3.665   0.142  0.2759 -0.1284 -0.0430
27588W        W44435   8.693  18.245  13.183 -0.0750 -0.1422  0.1980
27589W        W44436   4.473   8.784  13.526  0.0937  0.2147 -0.1379
27590W        W44437  17.779  15.167   9.725  0.0138 -0.2405  0.0288
27591W        W44438  11.561   3.168   3.028  0.1414 -0.0550 -0.0745
27592W        W44439   3.822   7.876  13.357 -0.0056  0.0506  0.4396
27593W        W44440  17.758   8.926  15.332  0.1125  0.0285  0.0647
27594W        W44441  11.546   1.185   2.416 -0.0581 -0.1400  0.3603
27595W        W44442   5.086   2.102  11.633 -0.2120 -0.1364 -0.1319
27596W        W44443  13.074  14.692  11.235 -0.0280 -0.2817 -0.0320
27597W        W44444  12.895  18.507   0.318 -0.1495 -0.0358  0.2494
27598W        W44445   4.683   7.570   1.062  0.1277 -0.2695 -0.2793
27599W        W44446  17.287   1.723   0.800 -0.2305  0.0959  0.0249
27600W        W44447  10.831  13.774  12.376 -0.0620  0.1086 -0.0824
27601W        W44448  18.829  16.153  10.547 -0.1975 -0.1739  0.1454
27602W        W44449  10.109  11.862  11.602 -0.2305  0.1033  0.0582
27603W        W44450   9.523   2.872  13.795  0.3076 -0.0566  0.0354
27604W        W44451  10.100   4.070   0.548 -0.2527 -0.1101 -0.2499
27605W        W44452   6.747   8.656  14.555 -0.2461 -0.1339  0.0478
27606W        W44453   2.428   3.800  11.584  0.1538 -0.5064  0.3013
27607W        W44454   1.692  11.383   1.098  0.0428  0.0841  0.0538
27608W        W44455  17.130   9.931   3.021  0.0587 -0.2445  0.0697
27609W        W44456  15.432   1.597   1.377 -0.2538 -0.0483 -0.0769
27610W        W44457  10.274   8.065  11.184  0.0900 -0.1175  0.0236
27611W        W44458   2.958  18.654   1.532 -0.0429 -0.0156 -0.3181
27612W        W44459  15.675   7.931  10.723 -0.0912  0.0422  0.3944
27613W        W44460   9.128  15.012  12.999 -0.2117  0.1755 -0.0253
27614W        W44461  15.222   3.785   1.389  0.1658  0.0355 -0.0075
27615W        W44462  13.253   9.588   2.094 -0.0392  0.2585 -0.2210
27616W        W44463   2.143  14.449   3.446  0.0959 -0.3800  0.0325
27617W        W44464   6.365  13.275  12.140 -0.3081  0.1685 -0.2520
27618W        W44465   5.043  18.179   3.137  0.1222  0.0971 -0.4610
27619W        W44466  14.928  15.943  14.096 -0.1629  0.1751 -0.1353
27620W        W44467   6.364   7.071   1.522  0.1897  0.0722 -0.2153
27621W        W44468  13.776  12.980  15.538 -0.1316  0.2842  0.0629
27622W        W44469   4.139   1.218  13.507 -0.1142  0.2864 -0.1870
27623W        W44470  14.523   9.741   3.385 -0.0264 -0.0875 -0.0958
27624W        W44471   4.666  18.303  12.231 -0.0157  0.2325  0.0638
27625W        W44472  11.370  12.419   1.194  0.0662 -0.2223 -0.1095
27626W        W44473  16.459  17.646  12.443 -0.0718 -0.2001  0.0104
27627W        W44474  14.919   8.030  12.477  0.4065 -0.0626  0.0849
27628W        W44475   5.055   7.715   3.705  0.0934  0.2208  0.1113
27629W        W44476   9.452  10.009  14.419  0.2723 -0.1533  0.2616
27630W        W44477  11.739  16.957   1.398 -0.0669  0.0860  0.1801
27631W        W44478  15.920  13.231  15.164 -0.2774 -0.2227 -0.2274
27632W        W44479   5.725  14.879   4.055  0.1727 -0.0330 -0.2256
27633W        W44480  18.500  16.565   0.367 -0.1894 -0.2230 -0.2442
27634W        W44481   1.828  17.086  10.842  0.2234 -0.0380  0.0292
27635W        W44482  16.943   5.613  13.130  0.0002 -0.0503 -0.0447
27636W        W44483  17.149   3.338   6.066  0.0600 -0.1637  0.0224
27637W        W44484  15.554   8.904   1.482 -0.0074  0.0066 -0.4618
27638W        W44485  15.314   6.479   4.782  0.1393  0.0238 -0.2936
27639W        W44486  14.320  12.592   2.623 -0.0250  0.0228 -0.3291
27640W        W44487  12.632   7.206   0.355  0.0448 -0.2465  0.0602
27641W        W44488   6.896   1.235   4.631 -0.0724  0.0301  0.0556
27642W        W44489   2.963  15.872  14.698 -0.1021 -0.0917  0.3299
27643W        W44490   6.283   7.605   4.157 -0.0464 -0.0294  0.2188
27644W        W44491  16.386  16.240  12.469 -0.1637 -0.0136  0.0529
27645W        W44492   3.482  16.384   2.900 -0.2245  0.0141  0.1784
27646W        W44493   6.049   0.945   3.731  0.1015  0.1647 -0.0109
27647W        W44494   2.071  17.839   1.700  0.1651  0.0659  0.0025
27648W        W44495   7.664   8.717   0.724 -0.1384 -0.0103 -0.0549
27649W        W44496   5.850   4.724   3.299 -0.2456  0.2188 -0.0876
27650W        W44497   1.418   8.480   0.848 -0.1485  0.0456  0.1941
27651W        W44498   2.131  16.987   2.411 -0.0052  0.1613  0.1772
27652W        W44499   5.285   4.693  11.519 -0.2296  0.0119  0.0300
27653W        W44500   0.109   2.677  11.083  0.2074 -0.2871  0.1318
27654W        W44501  17.391  11.851   0.547  0.0099 -0.0245  0.0737
27655W        W44502   2.389  11.076  15.142  0.1810 -0.0741 -0.0872
27656W        W44503  18.734   1.973   2.565  0.0557 -0.1632  0.0573
27657W        W44504  11.769  15.547   3.053  0.1602  0.1097  0.1109
27658W        W44505  12.999  17.955  14.073  0.2239  0.0923 -0.1381
27659W        W44506  11.490   5.713   4.038 -0.2473  0.0846 -0.1847
27660W        W44507   4.897  12.180  15.399  0.1487  0.1278  0.0660
27661W        W44508  16.952   9.848  12.507 -0.1614 -0.2304 -0.0499
27662W        W44509  13.993  12.548  14.114  0.3325  0.0853  0.0564
27663W        W44510   1.554  16.306   1.778  0.0207 -0.1156  0.0688
27664W        W44511  18.651   1.718   4.991 -0.0291  0.0391  0.1994
27665W        W44512  11.429   5.315   1.935 -0.3214 -0.0395 -0.1460
27666W        W44513   2.945   4.077   4.581 -0.0593 -0.0062 -0.0323
27667W        W44514   9.453   0.513   2.623  0.2851  0.2668 -0.2077
27668W        W44515  11.758  10.618   1.915  0.2349 -0.0137  0.1761
27669W        W44516   7.305   9.286   2.732  0.0535  0.0406 -0.0698
27670W        W44517  12.143  11.321  12.027  0.0379 -0.3040  0.0099
27671W        W44518   4.326   0.582  15.012 -0.0706 -0.1307 -0.1642
27672W        W44519  13.412  14.873  13.956 -0.0199  0.1366 -0.1373
27673W        W44520   3.168   0.779   0.734  0.0376 -0.1034  0.2655
27674W        W44521   7.963  13.316   1.300  0.0212  0.1842  0.2291
27675W        W44522   2.871  16.425  10.459 -0.0822  0.3442 -0.0856
27676W        W44523   5.768  16.276  11.191  0.0371 -0.3656  0.0663
27677W        W44524   9.609   3.076   5.033  0.2042  0.0519 -0.0614
27678W        W44525  15.961   8.599  11.481 -0.3747 -0.0412  0.0128
27679W        W44526  15.175   3.825   5.095 -0.1283 -0.1683  0.1604
27680W        W44527  15.032  14.916  14.521 -0.0727  0.1441 -0.0786
27681W        W44528   5.241   5.140   4.689  0.0628  0.0944  0.1682
27682W        W44529   6.989  16.421  14.348 -0.0868 -0.3691  0.0674
27683W        W44530  17.032   1.415   2.429  0.2195  0.1486  0.2464
27684W        W44531   5.759   8.086   1.860  0.3447 -0.2446  0.0288
27685W        W44532  18.710   8.164  14.428 -0.1609 -0.1119 -0.3207
27686W        W44533  14.075   2.020   5.351  0.1444 -0.0301  0.2206
27687W        W44534  13.996   0.836  15.060 -0.1759  0.2180 -0.2316
27688W        W44535  12.977   8.668   5.425  0.0609  0.0073  0.1638
27689W        W44536  14.863   8.677   1.349  0.1288 -0.1129 -0.1817
27690W        W44537  12.428   3.325   1.470 -0.0878 -0.0723  0.2380
27691W        W44538   9.111   4.830   2.296  0.0811 -0.2528  0.0117
27692W        W44539   3.867  14.246  14.437  0.2089  0.1786  0.0735
27693W        W44540  15.844   4.790  12.669 -0.0521 -0.0577 -0.1489
27694W        W44541   5.553   4.451   2.579 -0.2075 -0.0926 -0.0189
27695W        W44542   1.191   6.053   4.896 -0.0225 -0.3182 -0.0532
27696W        W44543   3.118  11.876  14.893 -0.2596  0.0767 -0.0078
27697W        W44544   1.730   9.892   0.466  0.1677  0.2522  0.1470
27698W        W44545  18.120   8.568   1.998 -0.0978 -0.3274  0.2276
27699W        W44546  12.899   7.207   1.237 -0.1401  0.3602  0.0887
27700W        W44547   8.120  10.711   4.718  0.0791  0.2016  0.1247
27701W        W44548  13.919  11.234   3.435 -0.1410  0.1062 -0.1581
27702W        W44549   7.288   8.118  15.239  0.1983  0.2628  0.0029
27703W        W44550  16.658   7.424  15.480 -0.1418  0.2967  0.0668
27704W        W44551   1.311   1.634   4.020 -0.0723  0.0872  0.0892
27705W        W44552   9.420   1.963  14.683 -0.2014  0.1144 -0.2037
27706W        W44553  17.634  12.033  11.334 -0.0089 -0.3776 -0.1369
27707W        W44554   0.258  15.443   0.069 -0.1581  0.0950 -0.0526
27708W        W44555  18.001  16.553  14.644  0.0314  0.0588 -0.1697
27709W        W44556  18.331   8.383   3.435  0.2003  0.0363 -0.0035
27710W        W44557   4.358  15.885   2.923 -0.0248 -0.2554 -0.0930
27711W        W44558   7.737   3.227   4.496  0.3953  0.1595  0.2030
27712W        W44559  10.511  15.777  12.031  0.0098  0.1531 -0.0410
27713W        W44560  10.606  16.124  15.465 -0.1362  0.1590  0.2460
27714W        W44561   8.751  10.815  13.473 -0.1305 -0.1683  0.1289
27715W        W44562   0.127  12.598  13.457 -0.1984 -0.3570  0.0081
27716W        W44563  12.241  15.363  12.590 -0.1494 -0.1478 -0.1502
27717W        W44564   9.725   5.061  15.256 -0.0607  0.2176  0.0492
27718W        W44565  17.463   5.525  14.825 -0.0112  0.0722 -0.4381
27719W        W44566  13.479   0.240   0.373 -0.0956  0.0033  0.3092
27720W        W44567  18.709   4.979   3.631  0.0675 -0.0666 -0.0477
27721W        W44568   3.761   2.457  11.120  0.0733  0.1710  0.1805
27722W        W44569  14.046   6.081   4.285 -0.2304 -0.1711  0.2438
27723W        W44570  14.080  10.804  15.308  0.0666  0.1387 -0.2345
27724W        W44571  11.151   0.613   3.546  0.1856  0.3518 -0.0661
27725W        W44572   5.005   1.851  12.901  0.1166  0.1506  0.0926
27726W        W44573   9.881   5.438   0.809 -0.1286  0.0478  0.1329
27727W        W44574   6.784  14.147  11.268 -0.0000 -0.1199  0.3394
27728W        W44575   6.015  18.025   0.539 -0.0766  0.1938  0.3262
27729W        W44576   6.718   3.973  11.194 -0.1402  0.1507 -0.0912
27730W        W44577  17.621   3.728   5.038 -0.4452 -0.2292  0.0600
27731W        W44578   0.692  16.065   1.953 -0.0769  0.2147  0.0594
27732W        W44579   4.756  15.336  11.403 -0.4868 -0.2766  0.4476
27733W        W44580  14.011  15.454  15.523  0.1625  0.1848 -0.0869
27734W        W44581   0.703   8.462   3.834  0.0501  0.1739  0.0390
27735W        W44582  17.471   3.016   0.696 -0.0388  0.0612 -0.0365
27736W        W44583  14.482  13.257   2.028 -0.2138  0.1327 -0.3300
27737W        W44584   3.988  11.967  11.451 -0.1487  0.0721  0.0812
27738W        W44585  18.719  16.813   4.827  0.3133  0.2716  0.0400
27739W        W44586   9.814   1.449  11.671  0.1533  0.0164 -0.1352
27740W        W44587   2.567  16.220   4.037  0.0073  0.0216  0.0570
27741W        W44588  10.572   3.719   2.672  0.1576 -0.0721 -0.1250
27742W        W44589   5.048   2.306   1.636  0.0479  0.1785  0.0214
27743W        W44590   1.026  12.822  11.012  0.3603  0.2018  0.3891
27744W        W44591  10.713  13.273  13.409  0.1476 -0.0738 -0.1620
27745W        W44592   3.965   9.566   0.316  0.0908  0.2914  0.0051
27746W        W44593   1.164   9.954  13.061 -0.1020  0.0114  0.1557
27747W        W44594   8.497   2.835   1.831  0.0627 -0.0276 -0.1124
27748W        W44595   9.181  16.093  13.618 -0.1384  0.1551  0.0970
27749W        W44596  17.336  11.300  15.113  0.1301 -0.2440 -0.0659
27750W        W44597  12.330   3.548   2.660  0.0890  0.2889 -0.1390
27751W        W44598   3.101  11.696   5.145  0.2303 -0.0641 -0.1040
27752W        W44599  18.639  18.068   2.710 -0.2695  0.2199 -0.2071
27753W        W44600  15.155   3.001   6.166  0.2307  0.1651 -0.0362
27754W        W44601  13.761   0.199  13.101 -0.0998 -0.1131  0.2099
27755W        W44602  15.736   1.296   3.902  0.0250 -0.2043 -0.1292
27756W        W44603  13.557  12.103   3.720  0.1510  0.0067  0.0556
27757W        W44604   8.292   9.505  15.456  0.1603  0.0129 -0.0189
27758W        W44605   8.642  11.117   4.682  0.4690  0.1672  0.1639
27759W        W44606   0.500   0.649  14.221 -0.0834  0.1659 -0.0322
27760W        W44607  16.836  14.821   4.659 -0.0817  0.0182 -0.0253
27761W        W44608   3.044   0.650  14.966  0.1304 -0.0113 -0.2327
27762W        W44609   2.570  10.038   4.655 -0.3741  0.2645  0.3489
27763W        W44610  16.285  10.691  12.040  0.0343 -0.1429  0.0606
27764W        W44611  11.796  14.078  11.383 -0.0791  0.0071  0.3478
27765W        W44612  10.609   1.001   0.438 -0.1491 -0.0248  0.1410
27766W        W44613  16.041  17.886   3.195  0.0226  0.2757 -0.0558
27767W        W44614  14.778   2.983   3.063 -0.3418  0.2154  0.3087
27768W        W44615   9.686  12.750   4.003 -0.0506 -0.2420 -0.0868
27769W        W44616   3.369   5.736  12.608  0.1920 -0.0185  0.0845
27770W        W44617   7.407  14.533   0.745  0.1939  0.0581  0.1677
27771W        W44618  11.761   2.420  15.353  0.1406  0.2886 -0.0321
27772W        W44619  16.350   6.633   0.175  0.0516  0.2317 -0.2990
27773W        W44620  15.555  14.319  12.047  0.2231  0.0507 -0.0780
27774W        W44621  16.136  15.335  11.236 -0.0935 -0.2721 -0.1718
27775W        W44622   9.816  13.405   0.046 -0.0992  0.0002  0.1426
27776W        W44623  15.813   0.150   1.818 -0.1201 -0.3782  0.1030
27777W        W44624  12.559   4.399  13.081  0.0545  0.0820  0.0574
27778W        W44625   0.130   8.942   0.750 -0.0124 -0.2032  0.0824
27779W        W44626  12.946   5.853  13.435  0.1012  0.2245  0.2336
27780W        W44627   8.906  10.108   1.376  0.2201  0.0661 -0.0159
27781W        W44628  12.453   0.021  13.885 -0.3038 -0.3626  0.0310
27782W        W44629   5.359  10.111  11.372  0.1313 -0.2483 -0.3118
27783W        W44630   9.761  10.460   1.397 -0.4333 -0.1481  0.0975
27784W        W44631  11.066   8.397  13.981  0.2421  0.2546 -0.0112
27785W        W44632  15.081  17.578  15.425  0.3480 -0.0960  0.0634
27786W        W44633   3.335  12.821   5.101 -0.1128 -0.0362 -0.3630
27787W        W44634  18.759  17.056  11.004 -0.0830 -0.0440 -0.0991
27788W        W44635   5.329   5.537  12.824  0.0517  0.4027  0.0506
27789W        W44636   1.384   0.247   5.058 -0.0473  0.0223 -0.0652
27790W        W44637  11.411  15.365   0.767 -0.1699 -0.0606 -0.0374
27791W        W44638   2.264   9.767  14.015 -0.1257 -0.0491 -0.1379
27792W        W44639  13.905  17.005  15.422  0.0001  0.2705 -0.2986
27793W        W44640  10.783  14.788   5.242 -0.0782  0.0792  0.3416
27794W        W44641   4.418   8.344   5.241 -0.0529 -0.0228  0.3364
27795W        W44642  14.559   8.131  15.447  0.0977  0.0234  0.0201
27796W        W44643   4.204   6.491   0.584  0.1918 -0.1716 -0.0034
27797W        W44644  18.062   1.582  11.618  0.1393  0.0981 -0.0707
27798W        W44645   1.082  18.728  10.275 -0.1206 -0.1678 -0.1318
27799W        W44646   1.006  18.144  10.752 -0.2147  0.0107  0.3832
27800W        W44647   1.164  11.695   3.043  0.2168 -0.0953 -0.0569
27801W        W44648  15.733   4.233  14.360  0.1568  0.3092 -0.1206
27802W        W44649   8.206   9.874   1.271  0.6911 -0.0610 -0.0496
27803W        W44650  11.669   2.282   0.505  0.0157  0.2562 -0.1219
27804W        W44651   8.027  12.014   0.616 -0.3326 -0.1337  0.3521
27805W        W44652   7.747  16.742  14.985 -0.2054 -0.0667  0.0258
27806W        W44653   4.445  16.741   1.255  0.5700  0.1391  0.0472
27807W        W44654   8.850  15.831   0.958  0.1098 -0.2002  0.1630
27808W        W44655   2.102  12.562  13.012  0.0771  0.3090  0.1989
27809W        W44656  10.081   5.902   2.172  0.1113  0.2432  0.1251
27810W        W44657  18.593   0.936   0.599  0.2422 -0.0130  0.0622
27811W        W44658  13.423  11.496   2.940 -0.1605 -0.2514 -0.0051
27812W        W44659  15.310   6.396   2.132 -0.1780 -0.1374  0.0413
27813W        W44660   4.099  17.811   2.132 -0.1598 -0.0137 -0.1698
27814W        W44661   4.485  12.786  14.522  0.0245  0.0719 -0.3731
27815W        W44662   2.816   1.620   3.200 -0.2311 -0.0358  0.1163
27816W        W44663   2.243  14.991   0.274  0.1120  0.1552 -0.1640
27817W        W44664  15.526   5.162   4.531 -0.1028 -0.1186  0.3118
27818W        W44665   2.853  14.339  12.781  0.3213 -0.0067 -0.1097
27819W        W44666   8.694  12.276  11.460  0.3358 -0.1135 -0.1424
27820W        W44667  16.891  16.900  10.884  0.2117  0.0105  0.2334
27821W        W44668  12.849  12.388   3.159 -0.0020 -0.0809 -0.1592
27822W        W44669  18.378   6.819  14.877 -0.0025 -0.0543  0.4146
27823W        W44670   1.389   3.851  12.769 -0.0731  0.2827 -0.1872
27824W        W44671   8.074   9.255  12.348 -0.1829 -0.1306  0.2380
27825W        W44672   0.729  12.963   2.387  0.2268 -0.2674 -0.3118
27826W        W44673  10.495   9.241   0.675  0.1125  0.1794  0.2344
27827W        W44674   3.320  13.794   0.232  0.0761 -0.1110 -0.0070
27828W        W44675  11.388  11.288   2.771  0.1977 -0.1307  0.1995
27829W        W44676   4.922  13.164  11.754 -0.1590  0.0119  0.0464
27830W        W44677   6.405   1.165   1.828  0.3732  0.1294  0.1922
27831W        W44678   2.029   6.093  15.473  0.2092 -0.3461  0.0373
27832W        W44679  10.896  14.536  11.741 -0.1076 -0.0287 -0.2249
27833W        W44680  11.057   2.926  11.681  0.0973 -0.0171  0.0352
27834W        W44681   5.738  13.896   3.421  0.0620 -0.1623  0.2003
27835W        W44682   7.984   3.521   3.444  0.0485  0.1403  0.2022
27836W        W44683   0.958  13.549   4.419  0.1033 -0.1771 -0.0040
27837W        W44684   3.866   9.204  13.066  0.0024  0.1092  0.0623
27838W        W44685  11.163   6.567   1.443 -0.2145 -0.0363 -0.1213
27839W        W44686   9.896  14.893   3.475 -0.2588 -0.3156 -0.2093
27840W        W44687  17.505   9.313   3.768 -0.1765  0.3198  0.1928
27841W        W44688  15.965   0.415   0.698  0.2172 -0.0600  0.1887
27842W        W44689  17.318   2.936  13.520 -0.1342  0.1846 -0.1148
27843W        W44690  13.210  17.794  13.603  0.1235  0.2742  0.1190
27844W        W44691  10.562   3.875   0.760  0.0976 -0.1623  0.2396
27845W        W44692  12.054   3.529   3.940  0.3054  0.3045 -0.1935
27846W        W44693   1.726  16.824  14.099  0.0468 -0.0112 -0.0536
27847W        W44694  15.471   6.455  14.302  0.1612  0.0593 -0.0928
27848W        W44695   5.408   0.874   4.295  0.0172 -0.0944  0.2936
27849W        W44696  15.093   3.046  11.212 -0.1009  0.2661  0.2937
27850W        W44697  18.146   6.646   3.189  0.1250 -0.2362  0.1796
27851W        W44698   4.044   1.935   4.371  0.3451  0.0567  0.1295
27852W        W44699   8.686   4.994  13.843 -0.2817 -0.0369 -0.2944
27853W        W44700   7.803   8.981   4.537  0.0304  0.0081  0.1492
27854W        W44701  12.855  11.715   4.006  0.3240 -0.0408  0.4148
27855W        W44702  14.474   7.409   1.207  0.1063 -0.0005  0.0059
27856W        W44703   2.206  10.676   0.417 -0.3577  0.0210 -0.1284
27857W        W44704   1.975  12.142  12.763  0.0686 -0.0425 -0.1894
27858W        W44705  17.152   5.845  14.705 -0.0436 -0.1418 -0.3486
27859W        W44706   7.187  17.379  10.588  0.3055 -0.0909  0.1005
27860W        W44707   4.590   5.495  12.378 -0.4121 -0.0978  0.0244
27861W        W44708  11.240   3.206   3.342  0.2267  0.1999 -0.4247
27862W        W44709   0.710  16.788   3.712  0.2461  0.1720 -0.1499
27863W        W44710  13.241   6.122   1.037 -0.2662 -0.2632  0.0452
27864W        W44711  11.573  16.270  11.321  0.1507 -0.1607 -0.1417
27865W        W44712  14.003  10.113   4.914 -0.0185 -0.1895 -0.0708
27866W        W44713   7.387  11.869  10.684 -0.1102 -0.0320  0.0300
27867W        W44714   0.925   7.849  15.181 -0.0437  0.1603  0.0562
27868W        W44715  13.227  18.700   0.044 -0.4513 -0.1203 -0.0350
27869W        W44716  16.791  11.950   3.791 -0.3301 -0.0627 -0.1760
27870W        W44717   0.944  12.992   1.800  0.0735 -0.0461 -0.2161
27871W        W44718  13.785   1.788   4.430 -0.2602  0.3027  0.2079
27872W        W44719   0.364  18.564  13.069 -0.2100 -0.0786  0.1906
27873W        W44720  15.356   5.754   0.953  0.2467  0.2919  0.1942
27874W        W44721   1.213   8.337   1.282 -0.2167 -0.0011 -0.1630
27875W        W44722   4.214   4.792  14.021 -0.0255 -0.0438  0.2818
27876W        W44723   6.883   2.808   1.526  0.0021  0.1958 -0.0948
27877W        W44724   9.623   5.601   4.854 -0.2457 -0.2387  0.0010
27878W        W44725   5.168   9.076   3.642  0.1755  0.0626 -0.1411
27879W        W44726   0.828  18.431   4.562  0.3464 -0.2724 -0.3490
27880W        W44727   1.737   0.934  11.146 -0.0318  0.0344 -0.2428
27881W        W44728  13.469   7.186   2.193  0.1179 -0.0422 -0.1471
27882W        W44729   8.453  16.445   2.606  0.1861 -0.1150  0.0743
27883W        W44730   8.105   2.176   5.857 -0.1256  0.2623  0.1039
27884W        W44731  11.575  10.172   1.618 -0.0617  0.1122  0.2012
27885W        W44732  17.467   1.186  13.550  0.0340  0.1438 -0.1555
27886W        W44733   0.752   8.623  11.024  0.0569 -0.1593 -0.0559
27887W        W44734   1.055   9.739   2.051 -0.1079  0.0104 -0.1162
27888W        W44735  18.797   8.014   0.151 -0.0133 -0.1768  0.3773
27889W        W44736   4.504  13.063   4.213  0.0393  0.0926 -0.0099
27890W        W44737  15.257  13.671   4.509  0.0430  0.1848  0.1111
27891W        W44738  11.367  14.844   0.996  0.1990  0.3261  0.1395
27892W        W44739   3.001   1.497  13.311 -0.0233  0.0752 -0.0456
27893W        W44740   4.334   0.842   2.379 -0.1227 -0.0735  0.0500
27894W        W44741  17.336  15.504   0.598 -0.2494  0.0879 -0.0605
27895W        W44742  15.878   7.479   3.870  0.0915  0.0990 -0.2108
27896W        W44743   0.593   1.789  15.356  0.0837 -0.1051  0.1263
27897W        W44744  15.453  11.900  12.348  0.0187  0.1623 -0.2333
27898W        W44745   7.428  11.101  12.350  0.1716  0.1931  0.0692
27899W        W44746   3.151   2.770   4.815 -0.0585 -0.0675 -0.1275
27900W        W44747   3.560  12.338   5.811  0.1037 -0.1832  0.1035
27901W        W44748   3.848   9.157   3.961  0.0760  0.1253 -0.1751
27902W        W44749  11.343   2.490  11.485 -0.1726  0.1905 -0.0829
27903W        W44750  11.794  10.787  14.255  0.0647 -0.1550  0.0065
27904W        W44751   9.097   7.188  14.494  0.1013  0.0592 -0.0636
27905W        W44752  14.593  17.781  15.297  0.1151  0.0943  0.0533
27906W        W44753   9.484  13.611   2.419  0.2888 -0.1743 -0.2960
27907W        W44754   8.963  17.101   2.424 -0.0806  0.1477  0.0880
27908W        W44755   3.325   7.672   4.018  0.0884 -0.2570 -0.1290
27909W        W44756   6.055   1.226  13.948  0.1870 -0.1901 -0.0820
27910W        W44757   9.122  10.442  13.552 -0.2608 -0.1055  0.0661
27911W        W44758   5.284  15.279   1.479  0.0457 -0.1632 -0.0951
27912W        W44759   6.022  16.459   4.344 -0.0159 -0.2073 -0.0457
27913W        W44760  14.791  11.011   5.739 -0.2993  0.3162 -0.1914
27914W        W44761  13.829  10.562  14.065  0.1595 -0.1659  0.2217
27915W        W44762  17.220   5.958   1.816  0.4154  0.0804 -0.0228
27916W        W44763   8.441   4.876   0.463  0.1163  0.1576  0.0236
27917W        W44764  15.611  15.595   2.585 -0.0362  0.1018 -0.0729
27918W        W44765  10.717   6.839  15.213 -0.0611  0.0087 -0.2055
27919W        W44766  13.122   1.177  14.225 -0.0235 -0.0473 -0.1363
27920W        W44767   1.442  11.062   3.349 -0.0028 -0.0286 -0.0095
27921W        W44768   8.838   9.997  11.992 -0.0470 -0.0269  0.1071
27922W        W44769   5.847   4.192   0.823  0.4932  0.1147  0.1473
27923W        W44770  11.760  14.159   1.590  0.0427  0.0378  0.0392
27924W        W44771   1.350  11.384   4.539 -0.2432  0.2504 -0.0482
27925W        W44772   6.679  12.758   4.778  0.0453 -0.1923 -0.2433
27926W        W44773   8.792  14.669   1.414  0.0057 -0.2369 -0.0528
27927W        W44774   1.386   1.032   0.521  0.1345  0.1598  0.2236
27928W        W44775  15.298   2.566  12.042 -0.2885 -0.0527 -0.2177
27929W        W44776   3.027   6.857   5.905  0.2221 -0.1919  0.1819
27930W        W44777  17.105  15.417  11.042 -0.0119  0.2557  0.1690
27931W        W44778  13.146  13.827   4.014  0.2197  0.1242  0.0852
27932W        W44779  11.162   7.842   2.977  0.1485  0.2307  0.1200
27933W        W44780  18.404  15.916  14.417 -0.0153 -0.0177  0.0429
27934W        W44781   3.229   7.184  13.201 -0.0867  0.0036  0.0168
27935W        W44782   0.550  11.888   3.957  0.0681  0.3318  0.0983
27936W        W44783  14.419  12.168  11.843 -0.3091  0.2256  0.2740
27937W        W44784   0.828   9.444   3.048  0.0774 -0.3660 -0.1263
27938W        W44785  17.865   1.453   0.553 -0.0559  0.3695 -0.1088
27939W        W44786   6.675   8.742   1.503 -0.0564 -0.0401  0.1955
27940W        W44787   0.635   0.683   4.781 -0.0324  0.0534 -0.0903
27941W        W44788  17.786   9.809  11.427  0.1679  0.1502 -0.0547
27942W        W44789   6.816   8.080   1.696  0.0825  0.0642 -0.0394
27943W        W44790  14.170   4.461   3.919  0.2441 -0.3192 -0.1984
27944W        W44791  17.803  15.997   4.837 -0.1727  0.2007  0.0956
27945W        W44792   9.353  15.831  14.013  0.2370  0.1832 -0.1245
27946W        W44793   0.473   0.667   1.350  0.0491  0.0183  0.6114
27947W        W44794  12.442  15.654   5.391  0.1086 -0.1392 -0.0061
27948W        W44795  11.961   1.212   5.068  0.2363 -0.0320 -0.0984
27949W        W44796  10.365   3.289   2.877  0.2801 -0.0043  0.4080
27950W        W44797  11.746  15.362   2.129  0.2066 -0.1166  0.1234
27951W        W44798   3.985  15.635   4.514 -0.1146 -0.1922 -0.0018
27952W        W44799  15.290   9.314  11.012 -0.0019 -0.0449  0.2792
27953W        W44800   8.070  12.615   1.836  0.3660  0.2374 -0.1266
27954W        W44801  14.238  10.808   3.943 -0.3198  0.1779  0.0580
27955W        W44802   4.238  16.019  13.749 -0.2179 -0.2321 -0.0748
27956W        W44803   6.310  13.412   4.032 -0.0671 -0.0193  0.2379
27957W        W44804   7.066   2.256   4.746  0.1342  0.0598  0.2114
27958W        W44805  12.835   1.484  11.663 -0.0117  0.1445 -0.2358
27959W        W44806   8.644   8.258   0.363 -0.1330 -0.0771 -0.0550
27960W        W44807  11.189   4.477   4.998  0.0786 -0.0315  0.1285
27961W        W44808  15.791   3.425  14.583  0.1399  0.2881 -0.0582
27962W        W44809   0.185  18.159   2.429 -0.0462 -0.3390  0.0191
27963W        W44810   6.340  10.802  11.268 -0.1758  0.1360 -0.0190
27964W        W44811   9.034   1.742   3.418 -0.1218  0.1566  0.0459
27965W        W44812   6.501  16.118  13.606 -0.4420  0.1087 -0.2792
27966W        W44813   9.380   1.055  11.818  0.0810 -0.1401  0.1207
27967W        W44814   4.445   4.079  15.116  0.0138 -0.1180  0.2897
27968W        W44815   3.197   1.311   0.686  0.1339  0.1489  0.1702
27969W        W44816  13.790   8.733   3.360 -0.0851  0.0355  0.0312
27970W        W44817  17.071   4.643  15.127  0.2519  0.2084 -0.4089
27971W        W44818   3.754   7.716  12.134 -0.0337  0.3313  0.1165
27972W        W44819  12.509  16.275  11.473 -0.1241  0.0579  0.0718
27973W        W44820   4.034   9.488   3.089 -0.1110 -0.0320 -0.1789
27974W        W44821  12.417   9.441   0.519  0.0248  0.2528  0.0439
27975W        W44822  17.664  15.500  10.702  0.2664  0.0006  0.2606
27976W        W44823   1.801  13.199   0.486 -0.3697 -0.0432 -0.1446
27977W        W44824  10.412  14.756  12.244 -0.1440 -0.1260 -0.0687
27978W        W44825   9.113   4.097  12.991  0.0657  0.3076 -0.1248
27979W        W44826   2.700   9.229   3.272 -0.0775 -0.0387  0.1354
27980W        W44827  12.276   6.933  15.503  0.1738  0.0486 -0.0924
27981W        W44828   6.010  18.056   3.207  0.1519 -0.0359 -0.2682
27982W        W44829  11.235  15.461   2.176 -0.2102  0.1250 -0.1775
27983W        W44830  10.097   4.033  13.991 -0.0186  0.2528 -0.0526
27984W        W44831  10.530  14.310  12.052 -0.0686 -0.2578 -0.1221
27985W        W44832   2.041   4.789   3.106  0.1926  0.1113 -0.1403
27986W        W44833  16.051   4.357   4.789  0.0236 -0.0614  0.0247
27987W        W44834   3.623   1.882   1.019 -0.1440 -0.3023  0.0411
27988W        W44835   1.319  14.959   2.400  0.0399 -0.1705 -0.1168
27989W        W44836  11.931  12.431  13.573 -0.0229 -0.2973  0.2665
27990W        W44837   2.027   2.015   9.303 -0.0523  0.4006 -0.3210
27991W        W44838   8.707  14.624  12.391  0.0786  0.2341  0.2159
27992W        W44839   1.097  16.729   0.341  0.0127  0.0326 -0.0760
27993W        W44840   3.267   3.065   1.049  0.1141 -0.1321  0.1091
27994W        W44841   5.412   3.481  14.501 -0.1652  0.1530 -0.1165
27995W        W44842   2.281  10.088  12.236  0.2904 -0.1123 -0.0732
27996W        W44843  14.473   3.592  13.790 -0.4223  0.1183  0.1045
27997W        W44844   2.886   4.193   3.640 -0.0529  0.0337  0.0291
27998W        W44845   2.410   8.487   3.640 -0.2417  0.4073 -0.0158
27999W        W44846  18.200   4.868   1.767  0.0567  0.0872  0.0254
28000W        W44847   9.452  13.642   4.680  0.1338  0.2238  0.1907
28001W        W44848  11.164  18.538   4.748 -0.2063  0.1347 -0.1912
28002W        W44849   8.986  12.532  14.315 -0.0099  0.1742 -0.0426
28003W        W44850   4.159   0.154   1.281 -0.0278  0.2604  0.0337
28004W        W44851   2.567   1.779   4.647 -0.0571 -0.0862 -0.0283
28005W        W44852   4.436   5.268   4.309  0.0342 -0.2684  0.0530
28006W        W44853  18.135   5.920  14.914 -0.1117  0.1620 -0.3266
28007W        W44854   8.565   2.166   4.923 -0.1684  0.1108  0.1408
28008W        W44855   9.978   0.160  12.215  0.0241  0.1401 -0.0321
28009W        W44856   1.284  16.708  15.328 -0.1648  0.0381 -0.3517
28010W        W44857   0.072   5.292  14.656 -0.2927  0.1516 -0.1448
28011W        W44858  12.371   1.635   2.274  0.1507  0.2255  0.0223
28012W        W44859  18.443   1.197  11.455  0.0719 -0.1385  0.0722
28013W        W44860   3.779   2.476  15.482  0.2300  0.1197  0.0097
28014W        W44861   6.497   3.098   4.534 -0.1887 -0.2052  0.0630
28015W        W44862  17.103   7.123  14.131 -0.2010  0.3101  0.0396
28016W        W44863  16.543   0.120   3.336  0.0090 -0.0262 -0.2625
28017W        W44864  18.835   9.691   2.357 -0.0762 -0.2679  0.0217
28018W        W44865   0.017   6.610  10.486  0.4009 -0.2362 -0.0727
28019W        W44866  11.720  17.710   1.936  0.1503 -0.1531  0.2732
28020W        W44867  12.706   7.472  15.497  0.0102  0.0580  0.1429
28021W        W44868  17.302  14.791  12.947 -0.0370 -0.1170  0.1277
28022W        W44869  12.613   0.102  14.908  0.2171  0.1372 -0.1485
28023W        W44870  18.418  10.693  11.206  0.0887 -0.1291  0.2163
28024W        W44871   2.429   7.880   3.452  0.2190 -0.0317  0.1401
28025W        W44872  13.936  14.703  10.699 -0.4138 -0.1697  0.0870
28026W        W44873   5.853   9.984  15.412  0.1907 -0.2591  0.1022
28027W        W44874  17.151  17.666   0.405 -0.1708  0.3952 -0.4912
28028W        W44875  12.076  14.511   3.849  0.0081  0.2618  0.2597
28029W        W44876  13.446  11.153  11.380  0.0357  0.1594  0.2416
28030W        W44877   5.969   9.562  12.394 -0.0658 -0.2131 -0.1583
28031W        W44878   4.087  16.461  11.848  0.1431 -0.3088  0.0349
28032W        W44879  18.150   4.890   5.742  0.0296 -0.1618  0.2720
28033W        W44880   6.812   1.827  11.913 -0.2535  0.1957 -0.1743
28034W        W44881   0.729   9.668   1.681  0.0671  0.0594  0.0159
28035W        W44882   9.991  16.336   4.512  0.0201 -0.1646  0.0147
28036W        W44883  12.383  18.781   0.871 -0.0772  0.0702 -0.0349
28037W        W44884   2.781   1.237  14.870 -0.1559 -0.4136 -0.1893
28038W        W44885   6.223   0.070   4.859 -0.0566 -0.2160 -0.0279
28039W        W44886   2.655  16.120  12.171  0.0984 -0.2017 -0.0061
28040W        W44887  17.325   6.300   0.511 -0.4937  0.2371 -0.3441
28041W        W44888   2.352  15.611  11.497 -0.0037 -0.2720 -0.0139
28042W        W44889   0.998  10.608   1.845 -0.1521 -0.1236 -0.3392
28043W        W44890   5.183   3.606   3.781 -0.2391  0.1719 -0.0168
28044W        W44891  17.249   3.924   0.270 -0.2889  0.1635  0.1461
28045W        W44892  12.150  17.455   3.197 -0.2243  0.4172 -0.0324
28046W        W44893  17.105   7.643   5.158 -0.0616  0.1162 -0.0583
28047W        W44894   6.251   7.452   5.033  0.1491  0.1467  0.1179
28048W        W44895   1.182  13.502  13.518 -0.0746  0.3170  0.0816
28049W        W44896  12.375  10.257  12.233 -0.0066  0.1380 -0.1604
28050W        W44897   0.700  14.510  10.992  0.2455 -0.0605  0.3435
28051W        W44898  11.562  17.740   1.020  0.0141 -0.0722 -0.2876
28052W        W44899  14.828  15.544   0.427  0.0400  0.4175 -0.0268
28053W        W44900   5.408  14.207   0.070 -0.0730 -0.1889  0.1901
28054W        W44901  17.942  12.764   4.092  0.2421 -0.0267  0.3082
28055W        W44902   5.603   3.864   2.352  0.1314  0.4314 -0.0412
28056W        W44903   7.367   3.462  11.335 -0.2305  0.0958 -0.0214
28057W        W44904   5.929   9.199  11.919  0.1510 -0.1167 -0.2469
28058W        W44905   6.384   7.078   0.367 -0.1119  0.0360  0.0171
28059W        W44906  13.597   8.843   1.533 -0.0545  0.1406 -0.2573
28060W        W44907  11.442   0.598  14.069  0.0501 -0.0640  0.1092
28061W        W44908  13.419  18.332   1.845 -0.0990  0.1877 -0.0064
28062W        W44909  16.147   6.054  12.086 -0.1710  0.0104 -0.0134
28063W        W44910   7.827  12.658   3.821 -0.2676 -0.2014  0.0474
28064W        W44911   4.120  17.039   3.261 -0.0560 -0.2234 -0.2171
28065W        W44912   1.133   4.973   5.678  0.1578 -0.0527  0.0057
28066W        W44913   6.139  13.217   5.430  0.2252 -0.1643  0.1303
28067W        W44914  12.924  14.766   4.858  0.1795  0.1476 -0.4113
28068W        W44915   1.454   4.615   5.646 -0.0455  0.1665  0.2503
28069W        W44916  18.150  10.376  13.462 -0.1454 -0.2339 -0.0405
28070W        W44917  18.542   8.208   2.178 -0.1023  0.0038  0.4524
28071W        W44918   1.339   3.149  11.999 -0.1705  0.1397  0.1687
28072W        W44919   3.592   6.030   4.108  0.0888 -0.3845 -0.0104
28073W        W44920   3.493  10.325   0.296  0.1570  0.3242  0.1151
28074W        W44921   5.670   2.442  13.194  0.1511  0.1582 -0.0679
28075W        W44922  12.928  10.120   1.064  0.0355 -0.1766 -0.1487
28076W        W44923  13.207  10.995   3.012 -0.3739 -0.1460  0.0345
28077W        W44924  15.750   2.379   2.011  0.0238 -0.3590  0.0386
28078W        W44925  15.502  16.175  10.999 -0.0624  0.3414 -0.0301
28079W        W44926  18.276  15.409   2.711 -0.2313  0.1535  0.1516
28080W        W44927   3.249   4.705   2.648  0.0781  0.0363  0.1027
28081W        W44928  16.987  18.058   0.662 -0.0969  0.1705  0.2539
28082W        W44929   1.583   8.861   1.943 -0.0559 -0.1683 -0.0131
28083W        W44930  10.057   1.119  13.426  0.0531  0.0005 -0.0238
28084W        W44931  14.692  10.300  12.161 -0.2674  0.2212  0.0967
28085W        W44932  10.277  17.979  14.114 -0.0425  0.0394  0.0281
28086W        W44933   4.605  18.490   3.110  0.1542 -0.4234 -0.0195
28087W        W44934   6.966   5.078  13.387  0.1752 -0.0091 -0.2109
28088W        W44935   9.970   8.491   4.046  0.2862 -0.0406  0.5503
28089W        W44936  13.215  11.704   3.667  0.0057  0.2611 -0.0081
28090W        W44937  18.714   5.633  10.803 -0.0702  0.1322 -0.0084
28091W        W44938   0.202  15.854   0.353  0.2435 -0.0282  0.0397
28092W        W44939   5.439   7.324   2.674 -0.2724 -0.1666 -0.3644
28093W        W44940   5.395  14.542  13.607 -0.0687 -0.1130  0.0029
28094W        W44941   3.171  18.367   4.699 -0.2171  0.0886 -0.1129
28095W        W44942   4.201  13.086  12.279 -0.2272  0.0572  0.1610
28096W        W44943  11.732  12.415   4.392 -0.0115  0.3056  0.0909
28097W        W44944  13.034  15.347   2.498  0.1348 -0.0397 -0.2045
28098W        W44945  12.087   0.455  12.184  0.1097 -0.0089  0.3653
28099W        W44946  15.039  16.042  11.781  0.2267 -0.1563  0.0153
28100W        W44947   2.923   4.178  12.161  0.0754 -0.0946  0.1968
28101W        W44948  12.402   5.134  14.522 -0.1306  0.2746  0.1453
28102W        W44949   5.715   6.035   1.932 -0.0971 -0.0595  0.0941
28103W        W44950  15.809   6.584  13.779  0.1077  0.4568  0.0374
28104W        W44951   7.803   1.010  11.112 -0.5725 -0.3388 -0.2579
28105W        W44952   2.501  18.403   1.502 -0.1818 -0.3721  0.1011
28106W        W44953   8.322  14.745   1.852  0.0709  0.2445 -0.0460
28107W        W44954   8.561   3.359  14.741  0.2290  0.0362  0.0807
28108W        W44955   9.120   6.038  15.549  0.1286  0.0747 -0.0634
28109W        W44956  16.926  15.349  12.042 -0.1052  0.0866 -0.1321
28110W        W44957  15.231  11.412  12.408  0.0270 -0.1626  0.1282
28111W        W44958   6.902  11.303   3.918 -0.1971 -0.1262 -0.2718
28112W        W44959   0.534   4.169   0.192  0.1071  0.1457  0.0966
28113W        W44960   6.943   1.962  10.971  0.1145  0.2109  0.1106
28114W        W44961  13.873  18.603  14.980 -0.1927  0.0223 -0.1551
28115W        W44962  17.071   4.401   0.210  0.0261  0.1924 -0.0843
28116W        W44963   3.724   4.166  12.164  0.1710  0.1723 -0.2447
28117W        W44964  12.365   8.782  11.261  0.0879  0.0677 -0.3929
28118W        W44965  15.201  12.438  15.331  0.1116 -0.1172 -0.1499
28119W        W44966  11.323   4.538  11.880 -0.0605  0.0677 -0.2824
28120W        W44967   6.700   0.007   4.086  0.0288  0.1850  0.0520
28121W        W44968  13.912  18.651   2.992 -0.0477 -0.0083  0.2396
28122W        W44969  16.702  10.086   3.293  0.1295  0.0270 -0.0357
28123W        W44970  17.620  11.343   0.354  0.1012 -0.2819 -0.0762
28124W        W44971   2.005  15.634   2.712 -0.1519 -0.0250 -0.0464
28125W        W44972   9.952  13.544   0.799  0.0423  0.0332 -0.0479
28126W        W44973   3.013   6.976  11.842  0.2919 -0.1707 -0.0939
28127W        W44974   1.047  14.290  15.533  0.1399  0.1656  0.0456
28128W        W44975   1.008  15.217   0.267  0.2453  0.0723 -0.1472
28129W        W44976  18.710   8.418  11.817 -0.0618  0.1372 -0.0217
28130W        W44977  15.501  11.548   0.255  0.1107 -0.1689  0.1555
28131W        W44978  14.596  11.678  11.985 -0.0878  0.1271 -0.2101
28132W        W44979   8.570   0.833   4.925 -0.0815  0.1691 -0.3313
28133W        W44980  13.226  10.415   3.191  0.0104  0.0054  0.2859
28134W        W44981   0.777   9.224   4.557 -0.1243  0.3920  0.1609
28135W        W44982   0.961   5.835   3.610  0.0348 -0.0992 -0.0673
28136W        W44983  17.922  15.495  15.386 -0.0471  0.0204  0.1584
28137W        W44984   1.724   1.651   2.705  0.0036  0.1193  0.1318
28138W        W44985  14.649   8.630  14.496  0.3407  0.2787  0.1130
28139W        W44986  13.981  18.121   4.313 -0.0123  0.0387 -0.3034
28140W        W44987  12.161  16.817   2.104  0.1294 -0.0936  0.2077
28141W        W44988  15.750   3.103  12.001 -0.3993  0.0650  0.0911
28142W        W44989  11.033   2.861  14.001 -0.1289  0.1939  0.1489
28143W        W44990   2.871   4.825   1.271 -0.0365 -0.1431 -0.0036
28144W        W44991   3.382  18.529   0.759  0.1264  0.1185  0.0410
28145W        W44992   4.438  16.608  12.584  0.3017 -0.2904  0.0172
28146W        W44993   9.799  16.609  11.165  0.1218  0.3003 -0.3405
28147W        W44994   8.988   3.921   0.170  0.0738  0.0337  0.3978
28148W        W44995  11.710   8.241   0.088  0.1443  0.2075  0.1648
28149W        W44996   4.339  11.748   1.042  0.2424  0.1897 -0.1280
28150W        W44997   4.540  12.238  14.460  0.1640  0.3920  0.3601
28151W        W44998  17.817  14.638   2.958  0.1001  0.2785  0.0408
28152W        W44999   7.382  18.714  13.816  0.4325 -0.2971 -0.1227
28153W        W45000   9.851  16.877  13.153  0.1317 -0.2164  0.1083
28154W        W45001   6.195  17.694   2.935 -0.4307 -0.0722 -0.0708
28155W        W45002  12.403   1.201   3.590  0.1116  0.1032  0.1385
28156W        W45003   2.142  10.159  13.697  0.1044 -0.1569  0.0005
28157W        W45004   1.023  12.587   1.530  0.1758 -0.2350  0.0363
28158W        W45005  17.395   1.231   5.608  0.0308  0.1276 -0.1489
28159W        W45006   3.274   1.363  12.362 -0.3676 -0.2915 -0.0794
28160W        W45007  10.430   2.655   3.525 -0.0611  0.2603 -0.1054
28161W        W45008   2.404   8.553  13.044 -0.0508 -0.1610 -0.2556
28162W        W45009   1.188  12.484   0.043  0.0891  0.1855  0.1154
28163W        W45010   1.728   0.827   3.058  0.4677 -0.0413  0.3397
28164W        W45011   0.482  11.912  13.834  0.0573 -0.4278 -0.0859
28165W        W45012  12.035  10.613  13.489 -0.0829 -0.2789 -0.0139
28166W        W45013  16.633  12.704   2.961 -0.1382  0.3068 -0.4356
28167W        W45014  12.463  16.574  11.096 -0.1070 -0.1671  0.2410
28168W        W45015   3.392   6.724  11.069  0.1028 -0.0709 -0.2696
28169W        W45016  11.110   1.986  11.410  0.2787 -0.1039  0.1396
28170W        W45017   8.531   5.262  13.277 -0.5648  0.1151 -0.3299
28171W        W45018  11.602   3.123   0.383 -0.3500 -0.0748 -0.2826
28172W        W45019  16.573   8.251  13.080  0.1271  0.1644 -0.1012
28173W        W45020   8.887   5.036  14.491  0.1182 -0.0529 -0.1278
28174W        W45021   9.059  15.494  12.924  0.0637  0.1637  0.1533
28175W        W45022  10.042   6.836   2.232 -0.2102 -0.0236 -0.0406
28176W        W45023  16.532   7.455   0.562  0.1608  0.0173  0.2922
28177W        W45024  13.848   8.322   5.648  0.2031 -0.0553  0.0581
28178W        W45025  13.857   7.560  13.482  0.2082 -0.0682 -0.1460
28179W        W45026  11.010  11.379  12.329 -0.1722  0.2118 -0.0793
28180W        W45027   4.494   9.149  14.275  0.2944 -0.3353 -0.1962
28181W        W45028  10.536  12.183   3.960  0.1510 -0.3017 -0.3656
28182W        W45029  11.318  11.879  14.886 -0.0836 -0.3866  0.2376
28183W        W45030   1.350  13.607   3.345  0.1129  0.0075 -0.0573
28184W        W45031   0.485  11.433   1.082  0.1346 -0.0101 -0.0490
28185W        W45032  12.274   7.649   2.602  0.0040  0.1373 -0.0195
28186W        W45033   3.673   3.542   4.949 -0.3431  0.1443  0.1366
28187W        W45034  16.157  12.217   1.953 -0.1138  0.3228  0.1534
28188W        W45035   2.786   4.944  14.531  0.0469 -0.3093 -0.1798
28189W        W45036   7.741  15.556   4.167  0.0922  0.0971 -0.2949
28190W        W45037  13.878  14.882   3.395 -0.2448 -0.0607  0.0373
28191W        W45038   6.483  17.460  15.129 -0.2560 -0.0751 -0.2974
28192W        W45039   8.590   8.351  13.701 -0.0812  0.0459  0.1152
28193W        W45040   2.035  17.407  15.338 -0.0628  0.0684  0.0442
28194W        W45041  15.763   0.408   3.767  0.3770  0.1754  0.0436
28195W        W45042   3.156   5.357  10.788  0.0068  0.0701  0.1808
28196W        W45043  12.385   3.317   3.595 -0.2318 -0.2029  0.1801
28197W        W45044  17.970  14.420  15.360  0.1253 -0.1011 -0.0562
28198W        W45045  10.535   1.222  13.211  0.0765 -0.2193  0.3062
28199W        W45046  13.393   4.622   4.950 -0.1274  0.0692 -0.0106
28200W        W45047   9.025  10.103   3.350 -0.3286 -0.1827 -0.2102
28201W        W45048   5.186  15.547   0.088  0.1015  0.4437 -0.1721
28202W        W45049  16.461  16.053   1.668 -0.0518  0.6628  0.3800
28203W        W45050   8.530  12.316   3.033  0.1189 -0.0225  0.0946
28204W        W45051  11.865  10.900  11.688  0.1594 -0.2801  0.0452
28205W        W45052   9.404   6.597   3.371  0.0137 -0.0542 -0.2732
28206W        W45053   4.207   3.893  11.716  0.4236 -0.0033  0.0524
28207W        W45054  14.052   6.736  11.052  0.3901  0.0584  0.0570
28208W        W45055   9.970  11.774  14.373 -0.1741  0.2217 -0.3318
28209W        W45056   0.204   5.030   0.092  0.1525 -0.0152  0.0147
28210W        W45057  11.357   9.780   2.015 -0.3709  0.0764 -0.1203
28211W        W45058  15.128   8.175   2.143 -0.1032 -0.1572  0.3485
28212W        W45059   8.773   1.328   3.437  0.0010  0.1578  0.1120
28213W        W45060  14.224   3.533  14.260  0.2865 -0.3098 -0.1155
28214W        W45061   5.250   7.334  15.170  0.1366  0.1052 -0.5605
28215W        W45062   1.848   1.326  12.401 -0.4072  0.1322 -0.0416
28216W        W45063   0.466   8.024  15.000  0.1485  0.1844 -0.0268
28217W        W45064  14.443  10.591  13.193 -0.3282  0.0767  0.0966
28218W        W45065   3.642   0.536   0.727 -0.0092 -0.1205 -0.2154
28219W        W45066   9.207   6.719   4.314  0.2524 -0.0040 -0.2206
28220W        W45067   1.201   8.966  12.093 -0.0579 -0.0438 -0.0077
28221W        W45068  16.249  12.404   3.171  0.3807  0.2137  0.3148
28222W        W45069   7.676  11.918   4.537  0.0725 -0.1649  0.0342
28223W        W45070   1.123   2.883   4.775  0.0339  0.2380 -0.1967
28224W        W45071  15.627  13.987   5.774 -0.1101 -0.0648 -0.0383
28225W        W45072  13.922  12.841  15.068  0.2715  0.0125  0.0794
28226W        W45073  13.597  17.381  15.198  0.1017  0.1255  0.0064
28227W        W45074   1.098  16.499   3.498 -0.3216 -0.0895 -0.0699
28228W        W45075  13.024  10.352   3.627 -0.0505 -0.1368  0.1300
28229W        W45076   2.103   6.679  14.795 -0.3358 -0.0287  0.0771
28230W        W45077   1.957  12.926  12.515 -0.0238 -0.3008  0.1000
28231W        W45078   7.936  12.790  11.105 -0.2720  0.0655  0.1587
28232W        W45079   9.758  14.434   2.605 -0.0936 -0.0351 -0.0285
28233W        W45080  12.154  11.261   2.101  0.0592  0.1881 -0.0510
28234W        W45081   0.777   8.854  14.725 -0.1371  0.4381 -0.0867
28235W        W45082  10.089   7.758   0.173  0.1435 -0.1648 -0.0829
28236W        W45083  13.343  14.877   0.337  0.1508  0.1225  0.1224
28237W        W45084   8.124   3.456   5.773 -0.0524  0.0357 -0.1404
28238W        W45085   0.424   7.122  14.667 -0.2267 -0.1134 -0.1455
28239W        W45086   5.928   5.145  13.808  0.0163 -0.2074  0.1086
28240W        W45087   6.214   2.115  11.449  0.2011  0.0368  0.1485
28241W        W45088  16.565  16.509  11.020 -0.1317 -0.0385  0.0550
28242W        W45089   1.715  16.125  14.645  0.2157  0.0926  0.1277
28243W        W45090   6.592   4.698  10.024 -0.1570 -0.0312 -0.2897
28244W        W45091  16.509   4.126   3.861 -0.4994  0.4113 -0.1127
28245W        W45092  12.694  11.819   0.438  0.2656  0.2139  0.1993
28246W        W45093   4.254   0.167   0.367 -0.1185  0.4525 -0.0225
28247W        W45094   9.766   3.827   6.072  0.3538  0.0826 -0.0823
28248W        W45095  17.631  13.099  11.024 -0.1315 -0.1126 -0.3114
28249W        W45096  17.325  13.492   5.432  0.1637  0.2891  0.0002
28250W        W45097   5.048   2.153  13.991 -0.2292  0.2305 -0.2103
28251W        W45098   1.700   9.323  14.365  0.1527 -0.0426  0.0500
28252W        W45099   4.802   5.140  10.873 -0.0297 -0.0017  0.2813
28253W        W45100  15.976  11.103   3.441  0.0601 -0.3389  0.0541
28254W        W45101   9.691   5.587   2.589  0.0893  0.4510 -0.4484
28255W        W45102   3.328  13.904   1.141 -0.4418 -0.0695 -0.3951
28256W        W45103  14.589   1.492  10.939 -0.1722 -0.0621  0.0735
28257W        W45104   3.324   7.800   2.929 -0.0801 -0.0710 -0.1504
28258W        W45105  17.706  17.768   4.449  0.3080  0.1298 -0.0502
28259W        W45106  18.494  17.251   1.389 -0.2636 -0.1012  0.0571
28260W        W45107   1.174   0.402  11.000  0.1149 -0.2457  0.0655
28261W        W45108  16.641   2.094   4.911 -0.1606  0.1007  0.0737
28262W        W45109  12.289   5.328   2.429 -0.2478 -0.0379  0.0283
28263W        W45110   8.814   8.560  11.227 -0.1135 -0.2111  0.2129
28264W        W45111  15.410   1.271   0.428 -0.0153 -0.0831 -0.1797
28265W        W45112   9.283   6.926   3.866  0.0164  0.0656  0.4373
28266W        W45113   4.181   2.587   1.303 -0.0624 -0.3672 -0.1443
28267W        W45114  12.366  11.144  14.848  0.0063 -0.1396  0.0487
28268W        W45115  14.782   9.227   2.870 -0.0928  0.1125  0.0206
28269W        W45116  14.341   6.107   1.232  0.2570 -0.1736 -0.0734
28270W        W45117  16.497   8.279   2.815 -0.1676  0.1124  0.3597
28271W        W45118  11.870  13.725   0.231 -0.0718 -0.1224 -0.0731
28272W        W45119   6.712  12.141   1.787  0.1947  0.0484  0.2856
28273W        W45120  13.275   6.578  12.559  0.0041 -0.2451  0.2617
28274W        W45121  17.324   5.419   5.009 -0.1085  0.0099 -0.1953
28275W        W45122  16.249   8.513  13.388  0.0783  0.0308 -0.1146
28276W        W45123  16.795   1.555   0.978 -0.0918 -0.0740  0.2035
28277W        W45124  10.913   4.153  15.262  0.0217 -0.1414 -0.0290
28278W        W45125   1.221  18.328   2.085  0.1846 -0.3560 -0.2766
28279W        W45126  16.740  11.278   3.974  0.1566  0.0453  0.4753
28280W        W45127  13.249  13.102  14.630  0.2676 -0.2327  0.0354
28281W        W45128   1.965   2.475   0.009  0.4207  0.0703 -0.1781
28282W        W45129   6.298   0.366   2.844 -0.0225  0.0295 -0.1283
28283W        W45130  16.325  16.870  14.165 -0.2176 -0.2176 -0.0832
28284W        W45131   4.511   5.230   4.821 -0.0339 -0.1689  0.3482
28285W        W45132   6.269   5.056   5.383 -0.2576 -0.1717  0.0900
28286W        W45133   1.762   9.501   3.605  0.1247  0.1110 -0.2585
28287W        W45134  18.550   1.277  10.987 -0.0741  0.1200  0.1805
28288W        W45135  10.424  10.502  11.358 -0.0365 -0.1446 -0.2183
28289W        W45136   8.615  16.421  15.272  0.4000  0.1679  0.0741
28290W        W45137  16.640   1.958   2.555  0.1496 -0.1023  0.1219
28291W        W45138   4.518   2.898   4.347  0.0841 -0.1204  0.0656
28292W        W45139   5.516  11.791   0.431  0.0784 -0.0933 -0.0844
28293W        W45140   8.307  18.372   0.223  0.1615  0.3727  0.2254
28294W        W45141  15.166   8.753  12.713 -0.1425 -0.1413 -0.0229
28295W        W45142  15.909   4.520   1.591 -0.1119  0.0848  0.0470
28296W        W45143  14.245  17.208   0.925 -0.1608  0.1036  0.1253
28297W        W45144   1.523  16.962   0.662  0.0485 -0.0291 -0.0856
28298W        W45145   1.477   3.931  11.751  0.1657 -0.2346  0.0693
28299W        W45146   9.237   2.139   0.152  0.0838 -0.0833  0.0500
28300W        W45147  17.582  18.534   0.351  0.1074 -0.1154 -0.0979
28301W        W45148   5.145  11.180   5.481  0.0151 -0.0574 -0.2978
28302W        W45149   8.337   4.589   2.909 -0.0765  0.1067  0.1794
28303W        W45150   9.984  13.155   2.430  0.2097  0.3423 -0.2037
28304W        W45151  11.440  13.632   4.721 -0.1790 -0.1966  0.1038
28305W        W45152   8.270  13.706   0.975 -0.0496  0.5208  0.0319
28306W        W45153  15.181   5.514   5.682 -0.2548  0.1566  0.0515
28307W        W45154  16.503   0.567   0.690  0.0132 -0.1943  0.2066
28308W        W45155   0.624  14.131   3.725  0.4813  0.0706 -0.0295
28309W        W45156  15.633  15.591  12.272 -0.0514  0.0135 -0.0565
28310W        W45157  10.180  17.671   3.958 -0.1032  0.0192 -0.1285
28311W        W45158   4.125   5.811   4.295  0.2657  0.0492  0.1934
28312W        W45159   6.151  12.772   4.169  0.0293  0.4164 -0.1368
28313W        W45160   6.042  10.200   2.488  0.0262  0.1016  0.3720
28314W        W45161  11.052   4.228  12.328  0.1871  0.2340 -0.1866
28315W        W45162   1.096   1.199  11.983 -0.0551 -0.0513 -0.0299
28316W        W45163  15.189  14.981   1.005  0.0630 -0.1270 -0.3453
28317W        W45164  13.317   0.449  15.489  0.1682 -0.4005 -0.0932
28318W        W45165   3.669   5.969   2.850  0.1352 -0.1205  0.3171
28319W        W45166   3.071   4.844   0.124  0.0165 -0.0040  0.1536
28320W        W45167  17.043   1.531   5.804  0.2140 -0.0903  0.1029
28321W        W45168   8.968  13.649   4.902  0.0409  0.2808  0.0144
28322W        W45169  17.418  16.243   2.367  0.0295 -0.1717  0.1828
28323W        W45170   1.142  13.031   0.113 -0.1365 -0.3256 -0.1245
28324W        W45171  11.368   9.400  14.709  0.2807 -0.5055  0.4015
28325W        W45172  17.206   2.901  14.976  0.2967  0.0218  0.1415
28326W        W45173   1.024   3.482  10.587 -0.4012  0.1157  0.0176
28327W        W45174   6.444   7.662   0.202  0.0371 -0.3123 -0.0100
28328W        W45175  11.807  16.653   4.159  0.3240  0.2210 -0.0506
28329W        W45176   6.412  12.574   0.963 -0.2348 -0.1389  0.0594
28330W        W45177   3.254  13.048  10.660 -0.1378  0.0773  0.0945
28331W        W45178   2.889   5.744   5.311 -0.1085  0.1131 -0.0660
28332W        W45179   9.717   3.158  11.177 -0.0531 -0.1156  0.0538
28333W        W45180   0.249  11.401  10.658  0.4779  0.0557  0.0099
28334W        W45181   4.553  15.462   2.628 -0.2503 -0.0856  0.2608
28335W        W45182   2.816   1.082  10.249  0.1604 -0.2383  0.0096
28336W        W45183   4.252  14.844   0.221  0.0166 -0.1188 -0.2778
28337W        W45184  18.585   4.642   1.440 -0.1406 -0.5353 -0.0289
28338W        W45185  12.304  18.329  12.850  0.0364 -0.2809  0.0887
28339W        W45186   7.083   3.822   4.716  0.3846  0.5647 -0.2060
28340W        W45187   2.702  16.820   4.045  0.2327 -0.1477 -0.3350
28341W        W45188   7.331  16.368   5.150  0.1342  0.0257 -0.0812
28342W        W45189   0.681  15.982   0.241 -0.0761  0.4703 -0.1069
28343W        W45190  15.342   7.354  14.384  0.2843 -0.2227 -0.0449
28344W        W45191   5.856   4.312   4.122 -0.0519  0.0314  0.1109
28345W        W45192   2.888  10.419  11.168  0.0409  0.3192  0.0454
28346W        W45193   6.733   8.832  15.027 -0.1174  0.0736  0.2447
28347W        W45194  14.011   5.784   0.923 -0.2001  0.0968 -0.0111
28348W        W45195  13.406   6.307  11.255  0.0832 -0.1336  0.3074
28349W        W45196   0.531   3.944   4.230 -0.1992  0.0191  0.2396
28350W        W45197   9.559   7.686  14.581 -0.0533 -0.1317 -0.0508
28351W        W45198   0.198  10.256  14.382 -0.0248  0.2921  0.3031
28352W        W45199  15.312   9.800   2.258 -0.1013  0.0076  0.1045
28353W        W45200  17.165   9.058  11.359 -0.2058 -0.1234 -0.0927
28354W        W45201   8.936   3.180   0.752  0.1400 -0.3901  0.1096
28355W        W45202   3.359  13.048   3.684 -0.3725  0.1031 -0.1081
28356W        W45203   9.207  11.034   4.076  0.1137 -0.1180  0.5026
28357W        W45204  14.033   7.884   3.567 -0.0453  0.0229 -0.2402
28358W        W45205   8.911  15.166  13.933  0.1135  0.1093  0.2281
28359W        W45206   9.852   4.955  13.445  0.0855 -0.1705  0.0483
28360W        W45207   3.070  13.293   4.304  0.2678  0.2537 -0.0483
28361W        W45208   3.860   1.412  13.900  0.1548  0.0437  0.2075
28362W        W45209  12.495   2.524   3.784 -0.2663  0.0640  0.1601
28363W        W45210   5.871  17.735   3.539 -0.1625 -0.2629 -0.1467
28364W        W45211   1.242   4.243  13.812  0.3033 -0.2020  0.1091
28365W        W45212   0.490   2.539   4.114 -0.0564  0.0292 -0.0607
28366W        W45213   2.246  11.546   0.024  0.1030  0.0716  0.0918
28367W        W45214  15.396  12.783  11.746 -0.1816 -0.1860 -0.0232
28368W        W45215   6.193   1.881   1.487  0.0049  0.0028  0.0223
28369W        W45216   7.197   7.420   5.972  0.1328  0.2908  0.1680
28370W        W45217  10.288   3.488   1.265  0.2481  0.0702 -0.0531
28371W        W45218  12.611   0.050   2.063 -0.0738  0.0501 -0.0503
28372W        W45219  18.644  12.106  10.102  0.0867 -0.0087 -0.0583
28373W        W45220   0.871  16.841  13.500 -0.4066  0.0170  0.1643
28374W        W45221   2.780   8.278  12.697  0.0991 -0.1682 -0.0392
28375W        W45222   1.625  16.332  11.292 -0.0526  0.1466  0.0223
28376W        W45223  11.483   4.885   3.808  0.1684 -0.1289 -0.1006
28377W        W45224  13.678  14.496   3.698 -0.1360 -0.2481 -0.1381
28378W        W45225  12.717   1.233   4.613  0.3032  0.1340 -0.2145
28379W        W45226   2.419  14.369   1.791 -0.2089  0.0491 -0.0486
28380W        W45227  10.644   4.440   2.160  0.0191 -0.1514 -0.0666
28381W        W45228   5.294   2.305  11.260 -0.2179 -0.1018 -0.2437
28382W        W45229  16.616   1.084   2.806  0.0174 -0.0157 -0.4365
28383W        W45230   9.539   3.631   5.070 -0.4471  0.0058  0.0463
28384W        W45231   8.047  13.125   1.821 -0.1528 -0.0502 -0.0762
28385W        W45232   6.795  12.081  14.739  0.0692 -0.0159  0.2138
28386W        W45233  17.817   1.586   4.308  0.3195  0.2301  0.1897
28387W        W45234   8.218   1.694  14.864 -0.0565 -0.0116  0.1296
28388W        W45235  12.860  16.399   5.233 -0.1538  0.4018  0.0693
28389W        W45236   3.706   4.988   1.914  0.3686 -0.0107 -0.1324
28390W        W45237   9.675   1.375   0.413  0.0385  0.0347 -0.2023
28391W        W45238   6.982   8.297   5.234  0.2796 -0.2526 -0.2311
28392W        W45239   3.445  15.041  14.557 -0.3627  0.1010 -0.0337
28393W        W45240   5.361  10.455   1.695 -0.0800 -0.2242 -0.2334
28394W        W45241  12.088   8.574  12.017 -0.3768  0.0278 -0.3346
28395W        W45242   6.031  12.731  14.644  0.1179 -0.2410 -0.0455
28396W        W45243  10.701  18.775   2.264 -0.1021 -0.1782  0.2441
28397W        W45244  15.632   4.422  11.695  0.1241 -0.0314  0.0110
28398W        W45245   6.311   7.023  13.149 -0.3571 -0.0249  0.0107
28399W        W45246  11.010   6.824  11.700 -0.0881  0.0142 -0.1299
28400W        W45247   6.587   3.748  12.825 -0.1576 -0.0564 -0.0668
28401W        W45248   7.116  12.078  12.094  0.0610 -0.1748 -0.6226
28402W        W45249  10.554   5.150   3.951 -0.1786  0.1160 -0.1657
28403W        W45250   7.757   6.037  13.963 -0.3998  0.0399  0.1284
28404W        W45251   4.627   5.114   0.603 -0.1669  0.0301  0.0886
28405W        W45252   7.506   7.123   4.236 -0.0214 -0.1068  0.5898
28406W        W45253   3.709   3.653   1.407 -0.1454 -0.1878 -0.3802
28407W        W45254   6.502   0.060   0.214  0.1958  0.3276 -0.1826
28408W        W45255   2.892  15.125  10.095 -0.1086  0.1982  0.2417
28409W        W45256  15.792  12.214   1.579 -0.0276  0.0427 -0.0335
28410W        W45257  18.664   9.610  11.776  0.0807 -0.0499 -0.1269
28411W        W45258  14.010  11.305   2.589  0.2104 -0.3297  0.3458
28412W        W45259   9.088  13.445  14.870 -0.1355 -0.0422 -0.3081
28413W        W45260  18.223   0.921  11.101  0.0981  0.1057  0.2330
28414W        W45261   3.343  13.004  12.163 -0.1252  0.0120  0.0026
28415W        W45262  18.235   4.292  11.499 -0.1578  0.0712 -0.2120
28416W        W45263  10.491  10.854   4.930  0.1871 -0.1506 -0.0802
28417W        W45264   3.750   5.168  14.195 -0.0839  0.0933  0.0193
28418W        W45265   4.293   4.572  12.643  0.4914 -0.1491  0.0089
28419W        W45266  13.256   0.853  11.335 -0.1994 -0.0606  0.1580
28420W        W45267   7.601  17.550  12.069 -0.2169 -0.0163  0.0938
28421W        W45268   0.501   5.106  14.196 -0.0996  0.1602  0.0845
28422W        W45269  17.827   7.842  11.886 -0.1473 -0.3528 -0.1057
28423W        W45270   2.866   9.341   3.825 -0.2286  0.0344  0.0785
28424W        W45271   4.234  17.602  12.741  0.0660  0.0321 -0.0872
28425W        W45272   3.777   9.814  13.838 -0.0191 -0.1878  0.2372
28426W        W45273  17.443  15.238  13.332  0.2123 -0.3596  0.6008
28427W        W45274   5.686  10.455   3.948  0.1158  0.0647  0.0027
28428W        W45275  12.564  15.770   1.864 -0.0574 -0.0947  0.0148
28429W        W45276   1.984   3.275   4.518 -0.1167 -0.2469  0.0411
28430W        W45277   6.023   2.080   4.509  0.1106 -0.0595 -0.0271
28431W        W45278   0.801  18.794  12.867 -0.1531  0.1695  0.2991
28432W        W45279   7.232   1.151   1.961 -0.1351  0.0798  0.2148
28433W        W45280   3.073   1.631   4.896 -0.3832  0.1159  0.3473
28434W        W45281  16.807  12.511  15.385 -0.2236  0.3833 -0.0191
28435W        W45282   4.811   3.033  13.871 -0.0363  0.1360 -0.2424
28436W        W45283   8.675   1.907   0.315  0.1273  0.1086  0.1466
28437W        W45284   0.322  15.962   2.824  0.3262 -0.0750  0.0615
28438W        W45285  15.317  13.822   3.560  0.0741 -0.0810  0.2341
28439W        W45286   0.506   6.669  11.201 -0.1488 -0.1435  0.0395
28440W        W45287   6.938   7.299   4.944 -0.0664 -0.1154  0.1096
28441W        W45288   5.279   8.020   1.876 -0.0926  0.0600  0.3743
28442W        W45289   6.302  18.256   3.879  0.0363  0.0475  0.0473
28443W        W45290   6.901   2.067   2.648 -0.3098  0.2897 -0.4102
28444W        W45291  11.601   7.558   2.262 -0.0105  0.0467  0.1146
28445W        W45292   3.332   2.453   1.185 -0.0271 -0.0694  0.2357
28446W        W45293   2.855  10.611  13.222  0.0937 -0.0257  0.3820
28447W        W45294   7.521   9.222   1.829 -0.0026  0.0061 -0.0315
28448W        W45295  13.445   5.695   5.171 -0.0607  0.1065 -0.0185
28449W        W45296   1.601   8.637   0.418  0.1202  0.1846 -0.0181
28450W        W45297   7.376   7.929   2.502 -0.0745 -0.0893 -0.3000
28451W        W45298  15.022  15.608   0.989  0.2416  0.3984 -0.2122
28452W        W45299   9.472   8.320   3.198 -0.0002 -0.1085 -0.0600
28453W        W45300   1.783  12.667   5.555  0.1266 -0.1437 -0.0714
28454W        W45301  18.606  15.177   0.125 -0.2005 -0.1015  0.1296
28455W        W45302  12.383   7.877  15.496  0.2553  0.2253 -0.0196
28456W        W45303   7.997   2.385   4.134  0.0527  0.1579  0.2261
28457W        W45304  16.105  15.614  11.670 -0.0486 -0.1521 -0.0977
28458W        W45305  16.003   8.866  14.245 -0.1716  0.4267 -0.0491
28459W        W45306   9.322   7.751   2.457  0.0243  0.0517 -0.2085
28460W        W45307  15.906  14.056  11.762 -0.0733  0.2477  0.1774
28461W        W45308  15.031   4.706   1.776  0.3004  0.0170  0.1586
28462W        W45309   5.073  15.409   9.530 -0.1162  0.3731  0.1894
28463W        W45310   9.455   7.169   1.604  0.1350 -0.0710 -0.1393
28464W        W45311  15.531  10.106  14.291 -0.0436 -0.0644 -0.1447
28465W        W45312   4.688   4.308  12.673 -0.0193  0.1987  0.0366
28466W        W45313  11.896  12.860   4.251 -0.1828 -0.1254 -0.2202
28467W        W45314  17.626   5.979   0.797  0.1382  0.2230  0.0489
28468W        W45315   3.050  16.123   4.145  0.0963 -0.2088  0.3932
28469W        W45316  17.899   0.438  15.220  0.1153 -0.0926 -0.1060
28470W        W45317  18.321  16.524   3.579 -0.0930 -0.1782 -0.0208
28471W        W45318   7.571   2.272   4.532  0.0036  0.5736 -0.1367
28472W        W45319   9.718   2.900  10.470 -0.0124  0.0162  0.1117
28473W        W45320  16.113  16.128  14.649  0.0619  0.1345 -0.2848
28474W        W45321  14.366   7.903  12.507  0.1634 -0.1792  0.0184
28475W        W45322  10.351   0.016  11.919 -0.2769 -0.2912 -0.1295
28476W        W45323   9.345   2.603  12.261  0.0375  0.5244 -0.0408
28477W        W45324   9.723   0.778  13.148 -0.0393 -0.0204  0.1407
28478W        W45325  16.412   7.989  11.567 -0.0461 -0.0391  0.1496
28479W        W45326  17.558   3.479   4.586  0.1083 -0.1907 -0.0052
28480W        W45327   0.978   6.096  12.282  0.2849 -0.2831 -0.0728
28481W        W45328   9.355  16.411  12.889 -0.1223 -0.0210  0.1711
28482W        W45329  16.954  17.321   1.678 -0.0422  0.2083  0.0808
28483W        W45330  14.844   9.022  15.211  0.0144 -0.0143  0.1909
28484W        W45331   9.760   6.541  13.805 -0.0555 -0.0390 -0.0414
28485W        W45332   6.144  11.788   3.426 -0.3325  0.1885  0.1075
28486W        W45333  15.889   0.592   1.158 -0.0123  0.3512 -0.1704
28487W        W45334  12.504   0.019   3.737  0.2221 -0.0733  0.0292
28488W        W45335   5.321  11.527   3.699 -0.3022  0.1258  0.0112
28489W        W45336  11.834  16.538   4.674  0.0440 -0.2733  0.0372
28490W        W45337   2.301  10.276  14.209  0.1151  0.0022  0.2894
28491W        W45338   4.098   2.145  12.671  0.1447 -0.1045 -0.0269
28492W        W45339   2.341   8.031   1.570  0.1387  0.1044  0.2502
28493W        W45340   0.932   3.176  14.434 -0.0414 -0.0004 -0.1419
28494W        W45341  11.839   4.105   2.043  0.3505 -0.0898  0.0675
28495W        W45342  14.515   6.193  11.344  0.0903  0.0463 -0.1256
28496W        W45343  12.841  13.881   9.794 -0.0827 -0.0228 -0.2603
28497W        W45344   8.585  16.729  11.723  0.2188 -0.1908  0.0771
28498W        W45345   6.403  13.761  12.717  0.4048  0.2049 -0.1226
28499W        W45346  15.338   8.474   1.370 -0.2163 -0.0109  0.0969
28500W        W45347  14.283  10.810   0.957  0.2281 -0.1875 -0.1418
28501W        W45348  11.220  13.908  14.045  0.1937  0.1887 -0.1065
28502W        W45349  16.445  15.330   3.155 -0.0706 -0.1023 -0.0951
28503W        W45350   2.104   9.862   3.461  0.0025 -0.3190 -0.0934
28504W        W45351   0.600  13.538  11.453  0.4566  0.4229 -0.0628
28505W        W45352   9.125  17.511   1.615 -0.0451  0.0555 -0.0867
28506W        W45353   7.075   0.277   4.271 -0.4998 -0.2664  0.1907
28507W        W45354   5.056   3.964   5.126  0.1030 -0.3837  0.1131
28508W        W45355   3.786  15.925   2.761  0.1119  0.1056 -0.1561
28509W        W45356  15.206  18.593   3.285  0.0685 -0.1994 -0.0050
28510W        W45357   2.804  13.763  15.092  0.1231 -0.0783  0.3590
28511W        W45358   9.594   2.172   1.282  0.2423 -0.2542 -0.0314
28512W        W45359   4.589   6.422   1.082 -0.1141  0.1573  0.3986
28513W        W45360  17.544  12.604   4.547  0.2582  0.0177  0.1227
28514W        W45361   8.412   6.860  12.295  0.2941 -0.0262 -0.2333
28515W        W45362   3.093   0.374   2.338 -0.1777 -0.2371 -0.2945
28516W        W45363   7.243  16.768  11.544 -0.1213  0.0995  0.1035
28517W        W45364  10.450  13.884   1.607  0.1759  0.0601  0.3304
28518W        W45365  10.843  12.694   1.878 -0.0350  0.2145 -0.1352
28519W        W45366   5.049   6.878  15.386  0.1444 -0.1790  0.0839
28520W        W45367   7.287   1.057   3.356 -0.3236 -0.1634 -0.3000
28521W        W45368   5.198   6.374  10.998 -0.0457  0.1692  0.0098
28522W        W45369   1.990   6.537   0.821 -0.1431 -0.2434 -0.0598
28523W        W45370  14.404  16.918   0.028  0.0146  0.0388  0.0489
28524W        W45371  12.502   3.643   1.835  0.0824 -0.1385 -0.0405
28525W        W45372  11.740   4.571   0.207 -0.0480 -0.0436 -0.0265
28526W        W45373   0.236  13.881  11.362  0.0247 -0.0025  0.0453
28527W        W45374   4.715  16.407  11.618 -0.1909  0.2902  0.1425
28528W        W45375   7.535  14.153   3.143  0.0068 -0.1184  0.0261
28529W        W45376  17.646   4.394   0.203 -0.1692 -0.0322  0.1147
28530W        W45377  10.410  13.082   2.768 -0.0039  0.1904  0.0886
28531W        W45378   8.558   4.425   5.531 -0.0714 -0.0174  0.1909
28532W        W45379  11.304  13.923   5.079  0.2008  0.0054  0.2965
28533W        W45380   1.902  17.667   0.826 -0.0353  0.0506  0.1267
28534W        W45381   1.373   7.771  13.648 -0.1754 -0.1218  0.1570
28535W        W45382   1.744  10.477  13.683 -0.2594 -0.0398 -0.0941
28536W        W45383  12.530  11.277  11.172 -0.0076  0.1624 -0.1048
28537W        W45384  12.863   9.951  15.360 -0.2678  0.1778 -0.2696
28538W        W45385   7.628   0.865  12.068  0.0264 -0.1170  0.1475
28539W        W45386  10.278  15.469  11.125  0.0202 -0.0384  0.2848
28540W        W45387   7.832   4.181  12.085 -0.1658 -0.1402  0.1052
28541W        W45388   0.938  13.345   0.537  0.0385  0.0172 -0.0171
28542W        W45389   5.309  14.695   1.248 -0.1998  0.0248 -0.0282
28543W        W45390  15.849   8.984   4.034  0.0528 -0.2820  0.3141
28544W        W45391   1.726   5.641  10.921  0.1183  0.0657 -0.1522
28545W        W45392  15.948   6.009   4.315  0.3934  0.3145 -0.2104
28546W        W45393  13.920   0.997   3.453 -0.0746 -0.0214 -0.1477
28547W        W45394   5.886  10.540  12.230  0.3957  0.1661  0.0106
28548W        W45395   4.411   2.200   5.504  0.0453 -0.1788 -0.4824
28549W        W45396  16.823   3.901   3.044 -0.1276  0.1312  0.1474
28550W        W45397   7.303   0.277  12.530  0.2238 -0.2413 -0.0624
28551W        W45398  18.795  16.263   2.618  0.1669 -0.1169  0.0334
28552W        W45399   1.799  17.651   4.705 -0.1594 -0.1262  0.1079
28553W        W45400  13.200   2.222  12.687 -0.0789  0.2033  0.0795
28554W        W45401   7.685   4.764  12.349 -0.1623 -0.0949  0.4637
28555W        W45402  18.608   2.182  13.759 -0.0306  0.0962  0.0648
28556W        W45403  11.259   3.634   3.679  0.3098 -0.2326  0.0761
28557W        W45404   3.985  18.546  10.922 -0.1050 -0.0749 -0.0834
28558W        W45405  15.902  10.477  13.875 -0.1529 -0.2894 -0.0908
28559W        W45406   4.764  15.605  14.293  0.2873 -0.1018 -0.1072
28560W        W45407  16.616  11.127   5.383 -0.2076 -0.1628 -0.0273
28561W        W45408   7.157  18.840  11.015 -0.3007  0.1587  0.0348
28562W        W45409  13.281   0.788  13.963 -0.1254  0.2170  0.2814
28563W        W45410  13.733  17.221  14.175 -0.0681  0.1744  0.1874
28564W        W45411  17.540  16.674  10.665 -0.0414 -0.1058 -0.0956
28565W        W45412   1.526   4.618  12.476  0.0818  0.2376 -0.0440
28566W        W45413  14.213  14.224  12.027 -0.2061  0.0023  0.1464
28567W        W45414  15.849   0.343  10.843 -0.0859  0.1222 -0.1182
28568W        W45415   8.459   6.071   2.045  0.0028 -0.0323  0.3599
28569W        W45416  16.056  10.171  15.493 -0.1730  0.3179 -0.1436
28570W        W45417  16.127  13.178   0.897  0.0575 -0.1856  0.0913
28571W        W45418  13.197   1.075   3.981 -0.0291  0.1334 -0.1046
28572W        W45419   4.587   4.037  13.774  0.3667  0.2822  0.1866
28573W        W45420   6.167  15.843  14.426 -0.0796  0.1849  0.0586
28574W        W45421   2.554   6.529   3.144  0.1029  0.0688  0.0589
28575W        W45422  10.107   7.952  13.663 -0.4641  0.0033 -0.0637
28576W        W45423  15.365   1.214   4.853  0.0431 -0.0500 -0.6028
28577W        W45424   5.991   0.399  14.651  0.2834  0.0697 -0.0971
28578W        W45425   3.283   6.137   4.468 -0.1138 -0.0602 -0.0642
28579W        W45426  12.569  11.046  14.343  0.0539  0.0337 -0.1332
28580W        W45427  15.622  12.164  15.083  0.3619 -0.1031 -0.1987
28581W        W45428   3.848   4.822   5.535  0.0560  0.0412 -0.1758
28582W        W45429   0.059  14.706  15.460  0.3871  0.0457  0.0527
28583W        W45430  13.590  16.556   2.312  0.2150 -0.0111  0.2764
28584W        W45431   0.645   6.196   4.511  0.0242  0.0580  0.2676
28585W        W45432  15.303  16.294  10.577 -0.0506  0.2757  0.0411
28586W        W45433   0.127  10.255  12.157 -0.1384  0.1252 -0.0494
28587W        W45434  17.449  15.341   1.811  0.0971 -0.0509  0.1057
28588W        W45435   4.003   7.782  14.249  0.0163 -0.2928 -0.0213
28589W        W45436   2.640  17.971   3.746  0.0693  0.0807  0.1186
28590W        W45437   1.890  13.756   2.783 -0.1445 -0.0594  0.0431
28591W        W45438  13.722   0.898   0.356  0.1617  0.0884 -0.3629
28592W        W45439  13.978  10.973  13.863  0.0956 -0.1065  0.1797
28593W        W45440   4.954  14.770  13.763  0.1285  0.1664  0.0832
28594W        W45441  10.337   8.800  10.772  0.3833 -0.0428 -0.2265
28595W        W45442   1.333   3.341  14.691 -0.0673 -0.1587  0.3203
28596W        W45443   4.495  17.313  11.906 -0.0318  0.0026 -0.0863
28597W        W45444   7.280   1.388  13.689  0.0957 -0.3786 -0.2139
28598W        W45445   5.165   0.263  11.078 -0.1108 -0.1083  0.1543
28599W        W45446   1.803  10.792  11.051 -0.0278 -0.5209  0.0545
28600W        W45447   5.648   6.376   3.158 -0.1424 -0.1027 -0.1568
28601W        W45448  10.601   0.203   0.840 -0.0654  0.1975  0.0079
28602W        W45449  10.775   4.938   3.208  0.0129 -0.1486  0.3864
28603W        W45450  15.142  15.821  13.045 -0.0011 -0.1515 -0.1915
28604W        W45451   1.393  15.685   3.649  0.3380 -0.0388 -0.1180
28605W        W45452   7.486  17.320   5.467 -0.1036 -0.0361 -0.3885
28606W        W45453   2.871  13.217  11.838  0.1789  0.0429 -0.1242
28607W        W45454  12.678   6.403   5.252  0.1579 -0.1045 -0.1773
28608W        W45455   7.229   2.300   2.922 -0.2001  0.1636 -0.3132
28609W        W45456  15.407  13.917   0.979  0.3010 -0.1721  0.0143
28610W        W45457   6.584  14.453  14.192  0.1947 -0.0621 -0.0275
28611W        W45458  12.231   5.351  14.095 -0.0028  0.0781  0.0525
28612W        W45459  15.271  13.399  12.272 -0.1351  0.2076  0.0345
28613W        W45460   5.034  12.736   1.540  0.3380  0.3159 -0.1335
28614W        W45461  12.272  17.777   3.557  0.0215  0.2227 -0.2148
28615W        W45462   5.477  12.948  11.155 -0.3337 -0.0735 -0.1081
28616W        W45463  16.067   1.718  15.051 -0.1497  0.2631  0.1570
28617W        W45464  12.945  14.875   9.310  0.0046  0.1136 -0.0281
28618W        W45465  11.244   1.450   4.072  0.0109  0.3787 -0.0140
28619W        W45466   8.190   3.913  15.470  0.2408  0.3104  0.1564
28620W        W45467   5.170   5.529   3.240 -0.1753  0.4204  0.1278
28621W        W45468   6.445  11.717  10.122  0.1565  0.0132  0.0397
28622W        W45469  15.262   2.842   2.928  0.0617 -0.0476  0.0353
28623W        W45470   1.747   9.362  11.564 -0.0572  0.1816  0.0647
28624W        W45471  17.919   5.338  11.497 -0.0366 -0.0697  0.0789
28625W        W45472  17.304  13.393  14.393  0.1382  0.0069 -0.0592
28626W        W45473  18.055  10.295   3.226 -0.2563 -0.1923 -0.0213
28627W        W45474  12.731   9.510  15.101 -0.0448 -0.2337  0.3701
28628W        W45475  16.330  11.055  15.499 -0.0265 -0.0641 -0.1408
28629W        W45476   7.678  13.205   5.149 -0.2552 -0.1000 -0.2120
28630W        W45477   4.258  15.746   2.238  0.1376  0.2940  0.1350
28631W        W45478   4.748   0.504   3.098 -0.0935  0.0841 -0.1801
28632W        W45479   8.131  10.961  14.182  0.2654  0.0451 -0.0726
28633W        W45480  18.206  11.977   5.732 -0.0837 -0.2567 -0.3267
28634W        W45481   2.011  18.178   5.789  0.1925 -0.0694 -0.1736
28635W        W45482  10.775  14.271   1.436 -0.0711  0.0518  0.0449
28636W        W45483   6.324  18.783   2.086 -0.0814 -0.0111 -0.1712
28637W        W45484   7.905   3.432   2.257 -0.0819  0.0739  0.0743
28638W        W45485   6.728  10.792  12.203 -0.0760 -0.1232  0.0353
28639W        W45486   4.167  18.806   3.099  0.2022  0.2940 -0.3084
28640W        W45487   6.321   7.206   3.144 -0.1490  0.0466 -0.0622
28641W        W45488   0.221  15.097  11.942 -0.1838 -0.3590  0.1336
28642W        W45489  13.444  12.040  14.836 -0.0361  0.0614  0.0601
28643W        W45490  14.669   2.215   4.611 -0.2431 -0.3442 -0.3451
28644W        W45491   8.747   1.504  15.041 -0.0554  0.0497  0.1831
28645W        W45492  11.896  14.707   5.224  0.0505 -0.1891 -0.1247
28646W        W45493   2.915   5.134  11.549 -0.2359  0.0384 -0.2127
28647W        W45494   5.175  12.653  13.489  0.0371 -0.3174  0.2665
28648W        W45495   1.078  12.215  11.670 -0.2957  0.0097  0.2992
28649W        W45496   1.518  13.108   3.541 -0.0130  0.1771 -0.0799
28650W        W45497  15.961   9.769  12.296 -0.1513  0.1830 -0.2029
28651W        W45498  17.847   8.315  14.270 -0.1227 -0.2319  0.4426
28652W        W45499  13.597   1.686   2.847  0.0383 -0.2120 -0.0359
28653W        W45500   3.273  12.993   0.032  0.0528 -0.1586 -0.2534
28654W        W45501   8.773   6.536  13.132  0.1029  0.0802 -0.3311
28655W        W45502   4.387  17.827  12.160  0.1495  0.0830 -0.2040
28656W        W45503   2.716  15.726   4.279  0.0148  0.0191 -0.0043
28657W        W45504   9.965  11.680   3.926  0.1021 -0.1184  0.1381
28658W        W45505   3.590   3.620  11.424 -0.2117  0.0677  0.3404
28659W        W45506  12.225  15.443   1.906 -0.1816  0.1080  0.0717
28660W        W45507   1.959   2.401   4.552 -0.1046 -0.0697  0.4149
28661W        W45508  13.339   4.953   4.157  0.0257  0.1168  0.0133
28662W        W45509   2.057  18.727   3.268  0.3392  0.0490 -0.0820
28663W        W45510   5.692   3.393  13.018 -0.0095  0.1192 -0.2250
28664W        W45511   1.129   4.411   0.969 -0.1592 -0.0602  0.0029
28665W        W45512   1.190  11.385   0.780  0.1396  0.0897 -0.0275
28666W        W45513   8.777   7.042  15.437  0.0169 -0.2148  0.0270
28667W        W45514  16.662  15.881   3.728  0.2079 -0.2315  0.1008
28668W        W45515  17.005  17.726  15.473 -0.0209 -0.0582 -0.1500
28669W        W45516   8.550  15.143   3.614  0.0810 -0.0988  0.1294
28670W        W45517  13.836   9.004  13.761  0.0988 -0.1227 -0.2971
28671W        W45518  10.968  11.014   5.008  0.3062  0.1289  0.0379
28672W        W45519  11.237  13.097  13.671 -0.0577 -0.1526 -0.2079
28673W        W45520  10.532   6.210   5.474 -0.2021  0.1589  0.0428
28674W        W45521   1.758  18.601   4.490 -0.2023 -0.0086  0.0111
28675W        W45522  16.213  16.724   5.014  0.0467 -0.1082  0.1559
28676W        W45523   0.713  14.866  13.770 -0.0516 -0.0210  0.1189
28677W        W45524   9.548   7.933   2.896  0.1072  0.1294  0.2107
28678W        W45525   6.031  11.316   3.632 -0.1320 -0.0549 -0.0350
28679W        W45526  14.044  17.348   3.596 -0.0457  0.0424 -0.0747
28680W        W45527  13.988   4.277   0.751 -0.3159  0.3279 -0.1362
28681W        W45528   1.081  12.780   2.695 -0.1773  0.3710 -0.0201
28682W        W45529  12.806   9.715   0.795  0.1306 -0.0118  0.0982
28683W        W45530  11.707   2.050   2.672 -0.1855 -0.3333 -0.0200
28684W        W45531   7.342  18.355   3.109 -0.0090  0.2587  0.1790
28685W        W45532  15.471  14.887   0.549  0.0552  0.1620 -0.1751
28686W        W45533   0.415  15.629  13.453  0.0212 -0.1574 -0.0701
28687W        W45534   9.817   3.098   3.595 -0.1276  0.3069 -0.3485
28688W        W45535   9.564   8.073   4.676  0.1488 -0.0326  0.0416
28689W        W45536  12.504   9.360   5.294  0.0307  0.1149 -0.5033
28690W        W45537   7.315  10.293  14.471  0.0591 -0.2320 -0.0806
28691W        W45538   0.394  15.993  13.921  0.1285 -0.0114  0.1196
28692W        W45539  16.029   9.955  11.784  0.0137  0.0152 -0.0548
28693W        W45540  18.540  15.867   4.161 -0.0676  0.0361 -0.2630
28694W        W45541  12.189   0.724  10.115 -0.1590  0.1260  0.0368
28695W        W45542   5.949   6.262   4.182  0.1303  0.0738 -0.2571
28696W        W45543  12.483  11.998   4.605 -0.0372  0.1740  0.0342
28697W        W45544  11.526  15.661   0.295 -0.0824  0.2876 -0.2015
28698W        W45545  15.124   8.507   0.893  0.1855 -0.1009 -0.0854
28699W        W45546  12.759   9.151  12.889  0.0513 -0.3327  0.0046
28700W        W45547  13.168   7.968   1.931 -0.0555 -0.3532  0.1283
28701W        W45548  17.609   4.384   1.077 -0.4992 -0.1437 -0.0675
28702W        W45549   8.757  13.521   1.986  0.0507  0.0037 -0.1424
28703W        W45550  15.057   6.258   1.774 -0.2765  0.1628 -0.1465
28704W        W45551  15.887  18.297  15.549  0.1256  0.0009  0.1888
28705W        W45552   8.235  14.269   0.196  0.0801  0.0752  0.3224
28706W        W45553  15.636   5.728  12.803  0.3177 -0.1952 -0.0196
28707W        W45554  14.205   6.039   1.746 -0.3292  0.2584 -0.1247
28708W        W45555   2.194   3.061  14.332 -0.1656 -0.0551  0.2171
28709W        W45556   2.831  18.136   3.274 -0.1725 -0.2439  0.3579
28710W        W45557   2.522   6.009   1.835  0.2079  0.0346 -0.2065
28711W        W45558   5.084  11.367   4.709 -0.0324  0.1044 -0.2391
28712W        W45559   1.831  12.103   4.751  0.2546 -0.3734  0.1746
28713W        W45560  17.097   5.966   0.229  0.0901 -0.0333  0.0610
28714W        W45561   9.225  17.357  11.242 -0.0824  0.0911 -0.0901
28715W        W45562   3.131  12.047   0.213  0.4991 -0.2651 -0.2235
28716W        W45563   3.065   1.969   4.465  0.2149 -0.5840  0.0541
28717W        W45564  18.203   2.486  15.175 -0.3018 -0.3756  0.0595
28718W        W45565  11.646  14.226   5.844 -0.1561 -0.2164  0.1941
28719W        W45566  18.034   7.781  15.239  0.1692 -0.0475  0.1723
28720W        W45567   1.872  12.679   0.753 -0.0824 -0.3337 -0.0765
28721W        W45568   2.406   5.486   1.999  0.1898  0.0644 -0.0070
28722W        W45569   1.170   8.907   5.322  0.1579 -0.0216  0.0877
28723W        W45570   0.132  15.763  10.324 -0.2903  0.0091  0.1209
28724W        W45571   9.708   1.037  14.293  0.1172 -0.0585  0.0080
28725W        W45572  12.162   1.472   3.206  0.0494 -0.1029 -0.1770
28726W        W45573   8.470   2.857   2.987 -0.0075  0.0703 -0.1429
28727W        W45574   1.291  15.787   4.187  0.1945 -0.2452 -0.1172
28728W        W45575   2.718  12.556  11.174  0.0155  0.1758 -0.3511
28729W        W45576   4.806  16.781  14.892  0.0208  0.1772 -0.2483
28730W        W45577   8.109  17.208   2.792  0.0602 -0.2480  0.0639
28731W        W45578   8.106   3.232   1.834 -0.0658 -0.2025  0.0218
28732W        W45579  13.445   5.192   2.420  0.0568  0.0622  0.2116
28733W        W45580   8.805   6.919   4.131  0.2201 -0.1666 -0.2344
28734W        W45581  17.251  14.511  14.878 -0.2140  0.2804  0.0054
28735W        W45582   8.672   7.913  14.024 -0.1737 -0.1109  0.0814
28736W        W45583  17.817  12.769  13.029  0.3550  0.2576  0.3599
28737W        W45584   7.190  15.492  14.534 -0.0528  0.0241 -0.2448
28738W        W45585  11.841  13.222  14.414 -0.0571  0.0762  0.3288
28739W        W45586  12.905  16.559  10.311  0.0724  0.0841 -0.0386
28740W        W45587  15.873   3.912  12.961 -0.0197  0.2517  0.0074
28741W        W45588  18.752  17.655   2.269  0.4275  0.1349  0.1631
28742W        W45589  10.291  15.580  11.625  0.2004  0.1272  0.1989
28743W        W45590   9.443   9.618   2.435  0.2717  0.1784 -0.2172
28744W        W45591  11.353   0.211  13.476 -0.0079  0.0040  0.1547
28745W        W45592   7.305   7.551   4.197  0.0250 -0.3863  0.1398
28746W        W45593   8.406  15.185  12.414  0.2829  0.1373  0.2285
28747W        W45594  11.618   1.775  11.949 -0.1061 -0.1569  0.1306
28748W        W45595   4.179   1.098  11.291 -0.1234  0.2170  0.1201
28749W        W45596  10.175   1.062   0.155 -0.0487 -0.2342  0.3453
28750W        W45597  15.682  13.784   1.856  0.1687 -0.0112  0.0033
28751W        W45598   9.207  15.008  14.803  0.1652 -0.1910  0.3021
28752W        W45599   9.351  16.086  15.027 -0.0833 -0.0964  0.0369
28753W        W45600  18.549   8.721   2.262  0.1629  0.0855 -0.0958
28754W        W45601  15.901   1.583   1.018 -0.0646 -0.0554 -0.3115
28755W        W45602   6.690   5.307   1.347 -0.2398 -0.0775  0.1376
28756W        W45603   7.477   0.411   2.730 -0.0795 -0.1301  0.1894
28757W        W45604  11.825   4.168   4.187  0.0941  0.1235 -0.0668
28758W        W45605   0.601   8.004   0.917  0.0984  0.0922  0.4402
28759W        W45606  18.502  14.694   3.370 -0.0892 -0.1208 -0.3061
28760W        W45607  11.935   0.214  13.250  0.0635  0.0669  0.3129
28761W        W45608   8.458  14.307   3.136  0.0475  0.0629 -0.2520
28762W        W45609  15.431   4.608  15.202  0.0457 -0.1402  0.1162
28763W        W45610  17.475   6.881   4.655  0.0579  0.2624 -0.2448
28764W        W45611   9.609  14.772  13.419 -0.0847  0.3597  0.0179
28765W        W45612   6.838   2.848  11.077  0.0161  0.0238 -0.0440
28766W        W45613   9.112  10.810   5.411 -0.1382  0.1153  0.3519
28767W        W45614   1.515  18.621   1.198  0.1942  0.1140 -0.1840
28768W        W45615   7.131   0.572   2.310 -0.0402  0.1980 -0.1273
28769W        W45616   9.593  15.165  11.827  0.1255 -0.3801  0.2248
28770W        W45617  18.434  12.405   1.811  0.2069  0.1109 -0.3949
28771W        W45618   5.762   2.836   3.159  0.0775  0.0819 -0.0849
28772W        W45619  16.620   6.552   3.032  0.0815 -0.0751  0.1780
28773W        W45620  16.942   5.807   3.250 -0.2480  0.1090 -0.0845
28774W        W45621   7.507   4.625   4.131  0.2014  0.2399 -0.0905
28775W        W45622   0.420   8.748   1.738  0.0329 -0.3404 -0.1056
28776W        W45623   6.508  18.094   0.154 -0.0646 -0.2778 -0.3739
28777W        W45624   4.630  11.512   2.348  0.1880 -0.4351  0.1494
28778W        W45625   0.669  10.051  14.033  0.0709  0.1206  0.2620
28779W        W45626   6.966  13.886   0.372  0.0061  0.1119  0.0107
28780W        W45627  16.249  12.697  15.271  0.0923  0.1943  0.4725
28781W        W45628   2.139  13.950  12.390  0.0935 -0.1245  0.0982
28782W        W45629   3.259  13.672   4.628 -0.1614 -0.2528 -0.2052
28783W        W45630  18.755  14.558   4.206  0.2532  0.1811 -0.4241
28784W        W45631   3.678  10.058   3.998 -0.1266 -0.1478 -0.1748
28785W        W45632   3.081   8.241   4.968  0.0298  0.0403 -0.2187
28786W        W45633   5.183  17.154   0.831 -0.1459  0.0534 -0.0761
28787W        W45634  17.428  14.403   4.243 -0.1125 -0.0685 -0.0617
28788W        W45635   4.337  13.801   3.522  0.1063  0.1787  0.3273
28789W        W45636  16.599  13.480   0.823 -0.2332 -0.0021  0.2279
28790W        W45637   7.473   3.733   0.638 -0.3629 -0.0506  0.1074
28791W        W45638  14.675   8.549  13.975  0.3166 -0.1644  0.0881
28792W        W45639   4.081  13.767  13.135  0.0512 -0.0409  0.0172
28793W        W45640  12.351  14.869   0.317  0.1590 -0.1533 -0.0259
28794W        W45641   9.402  16.544   1.725 -0.2779  0.1469 -0.1386
28795W        W45642  17.668   9.314  12.019  0.0204  0.3469  0.0875
28796W        W45643   1.954  12.251   3.977 -0.0535  0.0028 -0.0738
28797W        W45644   6.678   1.171   4.189  0.2107 -0.4060  0.0807
28798W        W45645   0.415   3.109   3.513  0.0418 -0.0008  0.2565
28799W        W45646   4.070  14.362  12.898 -0.0721  0.0360 -0.4899
28800W        W45647  13.766   0.796  13.789 -0.1629  0.0681  0.0126
28801W        W45648  11.255  14.154   3.304 -0.4373  0.3148 -0.0352
28802W        W45649   4.504  17.061   4.601  0.3303  0.0340  0.1795
28803W        W45650   5.545   2.112   2.832  0.1189 -0.0110 -0.1814
28804W        W45651   0.538  13.305   1.945 -0.0043 -0.0680  0.1879
28805W        W45652   8.344   6.089   1.449  0.1467  0.1106 -0.0637
28806W        W45653  14.109  17.415  14.492 -0.0812  0.2048 -0.1099
28807W        W45654   3.317  12.577  13.162  0.0842  0.1578  0.0417
28808W        W45655  17.097   1.011   0.666  0.4179 -0.0049 -0.0181
28809W        W45656   2.983  14.519  14.264 -0.2277 -0.1010 -0.1416
28810W        W45657  16.843   4.814   3.218 -0.0647  0.0526 -0.2991
28811W        W45658  13.522   2.870  11.879 -0.0306 -0.0290  0.3090
28812W        W45659   8.019  17.397   0.208 -0.1352  0.0165  0.2353
28813W        W45660   8.435  12.415  14.555 -0.1454 -0.0826  0.1103
28814W        W45661  14.278  13.575  12.906  0.0003  0.0908  0.0260
28815W        W45662  17.965  14.055  11.714 -0.1223  0.0774 -0.0167
28816W        W45663   7.638   5.240  12.188  0.2533  0.0417  0.0225
28817W        W45664   3.340  16.101   2.485  0.0627 -0.2545  0.3765
28818W        W45665   0.745   2.155  14.423 -0.1238  0.2335 -0.0219
28819W        W45666   5.220   0.162   0.095  0.3413 -0.2583  0.0740
28820W        W45667   2.731  18.724  14.711  0.1155 -0.1598 -0.1717
28821W        W45668  12.202  16.376   1.953  0.0394 -0.0285  0.0081
28822W        W45669   7.091   9.699  11.350  0.1396 -0.1235  0.2367
28823W        W45670  18.080   6.122  11.369  0.2492 -0.1377 -0.0447
28824W        W45671   9.782   9.570  11.585 -0.0402 -0.1592 -0.1069
28825W        W45672  10.685  13.268  14.477  0.1118 -0.2397  0.0712
28826W        W45673  14.724  12.164   4.393 -0.1132  0.0063  0.2067
28827W        W45674   6.652  10.129   2.835 -0.1501  0.1518  0.0230
28828W        W45675   9.618   2.882   4.361 -0.0474 -0.1359  0.0610
28829W        W45676  14.057  17.047  14.817 -0.2031  0.0639 -0.1217
28830W        W45677   9.400   5.325  13.761  0.1394  0.0374  0.1945
28831W        W45678  17.790  17.254  13.974  0.0799  0.2843  0.0024
28832W        W45679  15.750  11.150  11.213  0.2384  0.0501 -0.0911
28833W        W45680  18.398   3.360   4.972  0.2501  0.2292 -0.0925
28834W        W45681   5.117   9.566  11.215 -0.0336 -0.3481  0.2499
28835W        W45682   3.077   9.217  11.161  0.3199 -0.1295  0.2499
28836W        W45683  14.294   7.841   1.070 -0.3939  0.2185  0.1684
28837W        W45684  18.349  13.098  13.750  0.0612 -0.2300 -0.1802
28838W        W45685   3.716   6.395  11.903  0.0199 -0.0667 -0.3518
28839W        W45686  12.990   3.831   5.107  0.2268  0.0697 -0.0046
28840W        W45687   7.904  13.382   0.119  0.0854  0.2511 -0.1139
28841W        W45688  12.666   9.145   1.441  0.0025  0.0203  0.1440
28842W        W45689  18.451   5.274   2.069  0.3581  0.1341 -0.4156
28843W        W45690   8.894  14.174  12.691  0.0929 -0.0058  0.3648
28844W        W45691  10.961   8.874  10.674 -0.0748  0.0999 -0.0038
28845W        W45692   0.661   8.320  11.928  0.0103  0.2383  0.1189
28846W        W45693  12.691   5.514  11.835  0.0896  0.1216 -0.2684
28847W        W45694   4.552  11.844  13.672  0.1159 -0.0019  0.1460
28848W        W45695   7.361   6.260   0.199  0.1210  0.4423 -0.0921
28849W        W45696   3.478   0.341  14.942 -0.1128 -0.1457  0.1245
28850W        W45697   9.346  12.828   9.907 -0.1622  0.1602 -0.2154
28851W        W45698  13.614   1.215   3.037 -0.0095  0.1013 -0.0395
28852W        W45699  11.456  14.978  11.484  0.0511  0.3548  0.0462
28853W        W45700   5.626   7.533   0.436  0.1516  0.0270 -0.1836
28854W        W45701  12.566  11.828  10.148 -0.1290  0.4455 -0.1342
28855W        W45702  10.556   8.074   4.071 -0.0879 -0.0116 -0.2431
28856W        W45703  15.766  13.659   3.735 -0.0608  0.1020 -0.1578
28857W        W45704  11.263   7.252  11.996  0.0977 -0.0587 -0.1727
28858W        W45705  17.217  16.370   1.497 -0.0942  0.0866  0.1334
28859W        W45706  17.642  17.257   4.282 -0.1590  0.0398 -0.1231
28860W        W45707   9.154  11.715   5.376 -0.0211  0.0477  0.2440
28861W        W45708   1.539   8.126  12.013  0.1851  0.1602 -0.2211
28862W        W45709  17.151  11.026   4.557  0.0568 -0.2052  0.2461
28863W        W45710  13.974   0.180   0.476  0.2932  0.0430 -0.1251
28864W        W45711   8.762  12.307  10.981 -0.1970 -0.0771 -0.3671
28865W        W45712  14.568   1.445   3.049  0.1006  0.2288  0.0021
28866W        W45713  11.852   1.843   3.133 -0.0692 -0.1524  0.0495
28867W        W45714   7.658   8.236   0.392 -0.1033 -0.0137 -0.2930
28868W        W45715   1.920  13.991   0.441 -0.0922  0.3345  0.1549
28869W        W45716  18.269  17.069   0.443 -0.0719 -0.0519 -0.0172
28870W        W45717  13.420  16.565   1.803 -0.0222 -0.0509 -0.2971
28871W        W45718  14.915   1.440   0.445 -0.2098  0.2071 -0.1881
28872W        W45719   5.295   5.208   0.330 -0.0646 -0.2157 -0.1020
28873W        W45720   2.552  17.386  14.127  0.1675 -0.2927 -0.1424
28874W        W45721   9.079  10.583   0.475 -0.2579 -0.0374 -0.2131
28875W        W45722  11.350  17.383  14.459 -0.1004 -0.4264 -0.3876
28876W        W45723   2.479   9.321  13.262 -0.2114 -0.1448  0.0020
28877W        W45724   3.034  13.801   1.786  0.0202  0.1068 -0.2000
28878W        W45725  16.082   5.256   0.826 -0.2425  0.0390  0.1193
28879W        W45726  14.371   1.048   5.887 -0.1237  0.2632  0.1987
28880W        W45727   7.019   1.860   1.656 -0.1275 -0.1088 -0.1549
28881W        W45728   8.528  14.683   4.993  0.1377 -0.0193 -0.0154
28882W        W45729   2.435  12.568   2.912 -0.1840  0.1159  0.1633
28883W        W45730   8.594  11.876   2.802 -0.1959 -0.0360  0.2810
28884W        W45731  17.323   8.650   3.939 -0.0215 -0.2876 -0.0698
28885W        W45732  13.068  13.903   5.535 -0.0699 -0.3970  0.2008
28886W        W45733  14.829   4.604  13.599  0.1056  0.0739 -0.0033
28887W        W45734  10.961  16.460  12.464  0.0347 -0.2649 -0.5353
28888W        W45735  18.766  16.341  13.195 -0.4016 -0.2133 -0.0208
28889W        W45736   7.056  11.709  13.914 -0.1022 -0.3064 -0.1306
28890W        W45737   4.036  12.304  14.399  0.3567 -0.0440 -0.0027
28891W        W45738  14.952   0.146   1.341  0.2043 -0.0223 -0.1668
28892W        W45739  16.650   8.523  12.127  0.4114 -0.1180 -0.0019
28893W        W45740  15.717   6.397   5.053  0.1016  0.0016 -0.0152
28894W        W45741  13.019   0.256   0.320  0.1605  0.0136 -0.0063
28895W        W45742  13.570  14.581   0.020 -0.1766  0.0175  0.0061
28896W        W45743   6.686   1.685  14.633  0.0786 -0.1051  0.0619
28897W        W45744  16.841  17.900  14.902 -0.0396 -0.1122 -0.2665
28898W        W45745   7.966  17.759  12.346  0.3394 -0.0200  0.0227
28899W        W45746  13.797  11.375  12.587  0.3036 -0.1812 -0.1387
28900W        W45747  17.488  18.721  12.911  0.1330 -0.1375  0.2933
28901W        W45748  13.756   4.953  15.465 -0.2600  0.2109  0.3098
28902W        W45749  16.953  14.301   0.368  0.1266  0.0650 -0.3912
28903W        W45750  11.111   0.525   4.055  0.1946  0.2337  0.1188
28904W        W45751  10.238  14.776   1.925  0.0873 -0.1599 -0.0431
28905W        W45752   0.535  15.866   3.581 -0.0397 -0.0453  0.0257
28906W        W45753   6.963   5.857   2.760 -0.0987  0.1458  0.1737
28907W        W45754   5.065  18.485   5.254  0.0013 -0.1912  0.2290
28908W        W45755   9.833   9.869   2.929  0.3603 -0.1414 -0.2183
28909W        W45756  11.527   4.791  15.334 -0.0186 -0.1815  0.0624
28910W        W45757  14.446  10.662  10.047  0.3466 -0.2429  0.3965
28911W        W45758  16.491   8.076   1.249  0.0403 -0.2216  0.0892
28912W        W45759   1.889  18.758  10.955  0.0676 -0.0548 -0.1707
28913W        W45760   5.612   5.407  11.211 -0.0824  0.1756  0.1076
28914W        W45761   7.389  17.705  13.565 -0.1594  0.2161  0.2607
28915W        W45762  14.373  15.059   2.119  0.1545 -0.2479  0.1587
28916W        W45763  13.336   3.185  10.427 -0.0344  0.0100  0.1523
28917W        W45764   7.044  14.846  12.286  0.0478 -0.2992 -0.0895
28918W        W45765  18.626   8.279  13.985  0.2049 -0.1849 -0.0210
28919W        W45766  12.066  10.607   4.204  0.0527  0.3813 -0.1748
28920W        W45767   3.185   9.907   0.268 -0.2717 -0.1790  0.0387
28921W        W45768  15.451   8.457  11.411 -0.0095 -0.1895  0.2311
28922W        W45769   9.521   5.375   3.125  0.1849  0.1925 -0.0426
28923W        W45770   3.309  11.417   2.192  0.0218 -0.2143  0.1718
28924W        W45771   6.328   8.962  12.343  0.0875  0.2359  0.0027
28925W        W45772   2.963  12.855  11.540  0.2019 -0.1068  0.0464
28926W        W45773   4.378  16.548   2.254  0.0137 -0.0145  0.0692
28927W        W45774   9.984   6.938   3.805 -0.0419  0.2554  0.0212
28928W        W45775  12.221   9.756   0.916  0.0379 -0.1045  0.0383
28929W        W45776  12.553   5.465  10.010  0.1936 -0.2153  0.0833
28930W        W45777   7.542   8.233  11.117  0.0916 -0.1500  0.3121
28931W        W45778   2.313  12.941  12.184  0.0221  0.1145 -0.2571
28932W        W45779  18.202   2.455   3.336  0.1222 -0.2624  0.1193
28933W        W45780   8.207  16.830  15.234  0.1591  0.1222 -0.1696
28934W        W45781   1.495   0.092   2.115 -0.0359  0.0965 -0.0328
28935W        W45782   6.983   7.625  13.966  0.2505  0.1010 -0.0306
28936W        W45783   9.563  14.682  12.958  0.0579 -0.0450  0.1357
28937W        W45784   9.833  11.881  13.431  0.0178 -0.0923  0.2532
28938W        W45785   9.519   6.619   2.802 -0.0617 -0.4613  0.0893
28939W        W45786  16.417  12.310  14.354 -0.2881 -0.1046  0.0835
28940W        W45787   0.109  12.817   3.707  0.1513  0.2204 -0.0122
28941W        W45788   8.288   0.396   1.903 -0.0346 -0.1487 -0.0043
28942W        W45789   5.989  15.701  12.178 -0.0449  0.2012  0.0828
28943W        W45790   4.992   0.902   2.882 -0.0073 -0.3381  0.1450
28944W        W45791   4.982  12.017  14.169  0.4120  0.0544  0.0688
28945W        W45792  14.269   4.417   3.341 -0.1563  0.3042  0.0934
28946W        W45793   1.516  18.553   1.804  0.1756 -0.3034  0.1727
28947W        W45794   6.700  13.505  15.548  0.0960 -0.1514 -0.0888
28948W        W45795  10.618   2.187  10.997 -0.1663  0.0117  0.1962
28949W        W45796   2.556   3.470   2.617 -0.1094 -0.1584 -0.0860
28950W        W45797   6.715   4.310  11.588 -0.0243 -0.0635  0.1423
28951W        W45798   2.215  11.458   0.499 -0.1413  0.1504 -0.0173
28952W        W45799   7.829  10.224  13.819 -0.0141 -0.0330  0.0888
28953W        W45800  10.409  11.007  13.805  0.1667 -0.0562 -0.1606
28954W        W45801  11.929  10.181  11.110 -0.2941 -0.0257  0.1900
28955W        W45802   6.012  16.185   2.600  0.0693 -0.0431 -0.1912
28956W        W45803   2.065   5.874   1.067  0.1349  0.0267 -0.0211
28957W        W45804  10.212   7.278  15.303 -0.0611 -0.0194 -0.0995
28958W        W45805  13.942   6.566   0.657  0.1402  0.0773 -0.2539
28959W        W45806  13.448  10.180   1.455 -0.3752 -0.4274  0.0454
28960W        W45807   9.401  15.283  13.910 -0.3963  0.0578  0.0752
28961W        W45808   7.186  16.792   1.048  0.1677  0.0956 -0.1428
28962W        W45809   8.886  17.595   2.011  0.1972  0.1970  0.2241
28963W        W45810  15.386   6.378   4.242 -0.0273  0.5658 -0.1622
28964W        W45811  13.153   9.946   1.801  0.2497  0.2115 -0.0151
28965W        W45812  18.692  16.084   2.023  0.2919  0.1278  0.0942
28966W        W45813  10.797  11.221  11.842 -0.1096 -0.0342  0.3173
28967W        W45814   2.197   0.136   4.665  0.1391 -0.0163 -0.0622
28968W        W45815   0.457   9.557   5.084  0.2639  0.1242  0.0865
28969W        W45816  13.040   5.396   4.974  0.0380 -0.1021  0.1566
28970W        W45817   9.322  15.979  12.001  0.3454 -0.2131  0.2716
28971W        W45818   6.797  11.616  11.704  0.3014  0.0112 -0.2360
28972W        W45819   9.326  17.383  13.791  0.0353 -0.3591 -0.1769
28973W        W45820   7.481   9.734   1.822  0.0243  0.1019  0.1311
28974W        W45821  12.090   2.420  13.051  0.0278 -0.2582 -0.2358
28975W        W45822   3.391  10.246  13.052  0.0305 -0.3299 -0.2153
28976W        W45823   6.499   4.358   0.994 -0.3922  0.0669  0.0956
28977W        W45824  12.371  14.132   2.980  0.0849  0.0716 -0.0320
28978W        W45825   4.549  13.078  13.309  0.0674  0.1262 -0.0002
28979W        W45826   6.400   3.754  14.721 -0.3934  0.1828  0.0648
28980W        W45827  10.990   8.163   4.919 -0.2691  0.0276  0.1668
28981W        W45828   8.172   8.425  14.601 -0.2572 -0.4567 -0.0136
28982W        W45829   2.344  17.829   4.865  0.1336 -0.1780  0.3658
28983W        W45830   4.273   8.867   3.815  0.2003  0.1748 -0.2544
28984W        W45831   9.977  14.055  14.812  0.1800 -0.1050 -0.1077
28985W        W45832   3.970   8.263   1.217  0.1776  0.1834 -0.2278
28986W        W45833   3.533  11.259  11.788 -0.3069  0.1209  0.1559
28987W        W45834   3.109  10.875  14.769  0.0807  0.0549  0.4580
28988W        W45835  15.710  16.559   1.305  0.1361 -0.1904 -0.0120
28989W        W45836   3.903  14.969   1.129 -0.1590 -0.2682  0.0845
28990W        W45837   7.810   4.495  14.010  0.0727  0.1226 -0.0672
28991W        W45838  15.501   9.247   3.246 -0.0440  0.1978  0.0360
28992W        W45839   3.888   8.483  11.257  0.0896 -0.1356  0.1942
28993W        W45840  11.123   8.220  13.560 -0.1344 -0.1181  0.0895
28994W        W45841   2.098  17.920   4.432 -0.0372 -0.1225 -0.1113
28995W        W45842   8.338   3.061  12.291  0.0668 -0.1808 -0.0798
28996W        W45843   6.219   7.102   2.686 -0.1706  0.4528 -0.1869
28997W        W45844  18.555  13.553   1.644  0.1141 -0.2993  0.1456
28998W        W45845  15.368   4.937   3.587  0.0906 -0.0522  0.0495
28999W        W45846   2.473  17.957  13.275  0.2040  0.1915  0.2709
29000W        W45847   9.954   9.034  11.689 -0.2203  0.0571 -0.2737
29001W        W45848   4.542  17.075  10.684  0.2466  0.0585  0.0398
29002W        W45849  13.787   8.678   5.088  0.2130  0.0243  0.0982
29003W        W45850   5.013   3.190   5.174 -0.0901  0.0288  0.2640
29004W        W45851  12.450   7.260  13.721  0.0152 -0.0843 -0.1535
29005W        W45852   3.341  11.633  14.496  0.0713 -0.3981 -0.1277
29006W        W45853   3.575  13.857   1.608 -0.1130  0.0350  0.0246
29007W        W45854   6.069  15.724   3.771 -0.0291  0.0163 -0.0616
29008W        W45855   3.074  18.538  13.310 -0.1385 -0.1885 -0.0022
29009W        W45856   3.370  15.464   4.813  0.2036 -0.2397  0.2181
29010W        W45857   0.472  12.344   4.282 -0.0413 -0.1987 -0.0085
29011W        W45858  18.118  13.631   2.528 -0.3854 -0.0837  0.0171
29012W        W45859   6.640   2.100  14.371  0.0016  0.0411  0.1439
29013W        W45860  17.278   5.853  11.190 -0.0076  0.0108  0.0796
29014W        W45861   1.866  12.503  14.751  0.0629 -0.0242 -0.0346
29015W        W45862  18.442  14.415   2.005 -0.3338  0.3507 -0.0256
29016W        W45863  18.742   7.779  11.694 -0.1928  0.2086 -0.1731
29017W        W45864   3.752  12.879   2.896  0.2755 -0.0613  0.1694
29018W        W45865   5.958  15.557  13.206  0.0260 -0.0278 -0.0821
29019W        W45866  16.426   4.335   0.336  0.1220  0.0179  0.0023
29020W        W45867   2.770   4.095  11.258  0.1528  0.1239  0.0523
29021W        W45868  14.064  12.515  13.217  0.4150 -0.1106 -0.0717
29022W        W45869  17.517   3.154  14.655  0.0334  0.0544 -0.1260
29023W        W45870   9.392   6.114  14.359  0.1263 -0.0408  0.1370
29024W        W45871   2.576  18.616  12.544 -0.1162  0.2053  0.0359
29025W        W45872  12.551  17.039   4.114  0.1455  0.2226 -0.0774
29026W        W45873   1.906   4.402   1.172  0.0691  0.0561  0.0651
29027W        W45874  16.832   6.384   0.497  0.1136 -0.0189  0.1617
29028W        W45875  14.143   7.374  12.080 -0.0383  0.0477 -0.0427
29029W        W45876   6.634   3.009  15.460 -0.0906  0.0008  0.1185
29030W        W45877   7.537   4.913   3.351 -0.0048 -0.1249 -0.1771
29031W        W45878  17.634   6.784  13.033 -0.1281  0.0700  0.0173
29032W        W45879   6.256  13.708   0.305 -0.0993  0.1433  0.1910
29033W        W45880  11.783   7.329  12.271  0.4415 -0.0852  0.1223
29034W        W45881  12.951  16.607  12.736  0.0792 -0.3849 -0.1033
29035W        W45882  17.065  14.053  12.183  0.1475  0.1160  0.1458
29036W        W45883  17.017   0.840  12.270 -0.2491  0.2654 -0.2023
29037W        W45884   2.407  17.602  12.374  0.0393  0.0144 -0.2327
29038W        W45885   0.465   0.144   1.106 -0.3084  0.0800 -0.1165
29039W        W45886  11.352  11.077  11.527  0.0083 -0.0486  0.0107
29040W        W45887  17.431  15.686   2.213  0.0787 -0.0308  0.2971
29041W        W45888  12.068  16.153  11.405  0.1237 -0.2302  0.1882
29042W        W45889   8.616   4.432   1.817  0.2019  0.0360 -0.3119
29043W        W45890  10.999  11.587   4.551 -0.1216  0.1927  0.2974
29044W        W45891  10.128   3.315  13.928  0.0897 -0.2207  0.4206
29045W        W45892  17.168   7.581  13.972 -0.1331  0.1308  0.0706
29046W        W45893   0.634  16.212   3.128  0.0720 -0.1102 -0.1090
29047W        W45894  17.363  12.940  11.460  0.1216  0.2769  0.2500
29048W        W45895   0.130  11.599  15.094 -0.2073 -0.2163 -0.1640
29049W        W45896   3.518   4.611   4.780 -0.1128  0.1315  0.0813
29050W        W45897   5.545  10.323  12.674 -0.1838 -0.2818  0.1245
29051W        W45898  10.440  10.355  14.620  0.0005  0.0749  0.0539
29052W        W45899  11.556   7.741   3.742  0.0003  0.1569  0.2407
29053W        W45900  10.960   7.358   4.067 -0.0804  0.3650  0.0149
29054W        W45901  18.611   1.779  13.402  0.0064  0.3401  0.1288
29055W        W45902   3.080   1.228  12.900 -0.0691  0.3859  0.1577
29056W        W45903  18.236   7.188   4.218 -0.0797  0.0689 -0.2115
29057W        W45904   3.056   8.816   1.913  0.0437 -0.2421  0.0792
29058W        W45905  13.684   6.530  15.470  0.0057  0.0071 -0.4173
29059W        W45906  10.698  14.372   4.642  0.0275 -0.0948  0.1239
29060W        W45907  10.128  10.926  11.024  0.0215  0.2915 -0.2265
29061W        W45908  11.272  12.039   3.087 -0.0100  0.0456  0.1384
29062W        W45909   7.401  15.545   4.544 -0.0950  0.2066 -0.2202
29063W        W45910   8.721   4.074  11.616  0.0007 -0.1288  0.1193
29064W        W45911  12.710   7.322   1.822  0.1529 -0.0055  0.2807
29065W        W45912  12.414   7.358  14.234  0.1693  0.1611 -0.0358
29066W        W45913   7.320  16.348   0.746 -0.1138 -0.1200  0.0999
29067W        W45914   9.399  15.809  10.709  0.0086 -0.0086  0.0225
29068W        W45915  10.574   7.822  12.988 -0.0902  0.3743 -0.0029
29069W        W45916  16.190   7.581   9.525  0.0503  0.0594 -0.1707
29070W        W45917   3.644   0.138  14.527  0.1510  0.1836 -0.0302
29071W        W45918   3.438   8.550   2.275  0.0804  0.0871  0.3086
29072W        W45919  15.877   1.694  13.416 -0.0596 -0.0474  0.3185
29073W        W45920  16.836  17.364  11.069  0.2574  0.1527  0.0646
29074W        W45921   4.535  12.995   1.551 -0.3417  0.2146  0.2204
29075W        W45922   3.909  11.506   0.655 -0.2747  0.2345 -0.1696
29076W        W45923  17.684  16.457   1.914  0.1461 -0.1177  0.1779
29077W        W45924  15.934  15.649   4.629 -0.1215 -0.0602  0.4894
29078W        W45925   2.319  13.889   3.224  0.1048  0.2144  0.1639
29079W        W45926   9.888   6.126  12.700  0.1500  0.0343 -0.1007
29080W        W45927  16.671   2.120  13.298 -0.0639  0.4380  0.1289
29081W        W45928  16.878  10.879   0.874  0.1270  0.0222 -0.0734
29082W        W45929  14.261  15.845   4.627  0.3149  0.1475  0.0639
29083W        W45930   1.461   2.753   1.651 -0.1248  0.2179  0.0955
29084W        W45931   2.701   8.920  14.754 -0.2897 -0.2077  0.2641
29085W        W45932   2.966  11.515  14.046  0.2974  0.1667  0.1753
29086W        W45933  15.257   8.363  10.953 -0.3019  0.2101  0.1223
29087W        W45934   7.429  17.348   0.098 -0.1067 -0.1601  0.1184
29088W        W45935  10.265   9.401  11.680 -0.0318 -0.0659 -0.0669
29089W        W45936   4.154   6.904  11.863 -0.1067  0.3067 -0.0536
29090W        W45937  18.273  10.538   2.325  0.2232 -0.0336  0.2686
29091W        W45938   6.825   6.933   0.661  0.0065 -0.1588 -0.0046
29092W        W45939  13.769  12.675   5.541  0.1391  0.1713  0.2167
29093W        W45940   8.582   9.591  12.232 -0.1146  0.1050 -0.2377
29094W        W45941  10.637  12.507  15.154  0.1780  0.0428 -0.1408
29095W        W45942  10.296   7.664   4.302 -0.3352  0.2254 -0.3373
29096W        W45943  12.258   0.167  14.387 -0.2267  0.0927 -0.0421
29097W        W45944  11.923   3.051   3.896 -0.1875  0.0380 -0.0687
29098W        W45945   6.721  13.565   5.164  0.2959  0.2090  0.1947
29099W        W45946   2.659   7.752   2.003 -0.4563 -0.0288  0.1765
29100W        W45947  10.599   5.895   1.953 -0.1705  0.0363 -0.1272
29101W        W45948  11.833  14.760   1.170  0.0244 -0.1944 -0.0008
29102W        W45949   2.872  15.427  10.856 -0.0089 -0.5269 -0.2808
29103W        W45950   4.307  14.629  14.426 -0.0596 -0.0817 -0.1663
29104W        W45951  18.699   4.838   5.069  0.0432 -0.1265 -0.0400
29105W        W45952   1.517  13.010  12.442  0.0572  0.0367  0.0559
29106W        W45953  11.527  18.744  10.065  0.0613  0.4212 -0.1850
29107W        W45954  12.192  13.175   3.819  0.0778  0.1562  0.0797
29108W        W45955   2.319   2.584   4.163 -0.1083 -0.2482  0.1940
29109W        W45956   7.143   8.770   0.768 -0.2518  0.3466 -0.1814
29110W        W45957   8.285  10.230   4.612  0.1599  0.1822 -0.4562
29111W        W45958   6.110   7.407  15.029  0.1518  0.2523 -0.0295
29112W        W45959  15.274  17.306  15.070 -0.0922  0.1689 -0.1780
29113W        W45960  15.892   9.103   1.951 -0.0860  0.1099 -0.3562
29114W        W45961   3.758  16.516  10.405  0.0282  0.1590  0.1440
29115W        W45962  12.941   3.604  11.133  0.0693 -0.0540 -0.1486
29116W        W45963   6.799   3.774  12.299 -0.0057  0.3407 -0.0363
29117W        W45964  15.190   0.675  11.946  0.1086 -0.0321 -0.1167
29118W        W45965   1.520   9.863   2.226 -0.0558  0.1064  0.1507
29119W        W45966   8.221   8.248   2.648 -0.2820  0.2844  0.1336
29120W        W45967  10.271  16.703   3.271  0.0340 -0.4545 -0.0506
29121W        W45968   8.159   6.531  11.981  0.1651 -0.4257  0.2348
29122W        W45969   2.844   7.376   5.001 -0.0989  0.0796 -0.2525
29123W        W45970   9.886  10.253   4.769  0.1182  0.3197  0.1469
29124W        W45971  17.136   0.815   4.712  0.0817 -0.1380 -0.0736
29125W        W45972   1.416   7.471  13.245 -0.1182 -0.1387 -0.1033
29126W        W45973  14.220   7.895   0.576 -0.1200  0.1345 -0.3575
29127W        W45974  17.115   2.067  13.240 -0.2541 -0.2057  0.1037
29128W        W45975   4.686   0.930   3.588  0.2316 -0.3964 -0.1261
29129W        W45976   4.334  14.025  15.486  0.1498  0.3919 -0.1536
29130W        W45977  12.699  17.558  11.514 -0.1234 -0.1069  0.0185
29131W        W45978   0.581   0.460  14.965 -0.0534 -0.1362  0.1134
29132W        W45979   2.293  13.358   0.503 -0.0184 -0.0869 -0.3455
29133W        W45980  17.244  18.838   0.067 -0.0137  0.2674 -0.4239
29134W        W45981   0.734   3.076  14.885  0.1346  0.0077 -0.0734
29135W        W45982   1.704   2.479   3.360  0.0800  0.0680  0.2507
29136W        W45983   0.263   4.474  12.045  0.0081 -0.3730 -0.1131
29137W        W45984   7.411  12.576   0.619 -0.2938 -0.0144 -0.2178
29138W        W45985  14.459  14.531  15.419 -0.2778  0.0854  0.1240
29139W        W45986  18.220  18.844  15.139  0.0976  0.2626  0.1962
29140W        W45987   6.526  16.707  12.729 -0.0369 -0.0163 -0.1203
29141W        W45988   6.673  10.214   0.336  0.0454  0.1116 -0.1029
29142W        W45989   7.662  17.018  12.255 -0.1606  0.0492 -0.0364
29143W        W45990  15.457   2.753  11.015 -0.3401 -0.0171 -0.0752
29144W        W45991   1.902  12.164   0.600  0.1372 -0.2606  0.2143
29145W        W45992   6.449  10.946   5.524  0.0886  0.0142  0.2122
29146W        W45993   4.834  13.681  12.062  0.2320  0.2906  0.2183
29147W        W45994  10.646   4.960   0.348 -0.1673 -0.0952  0.1690
29148W        W45995  13.046  12.484  14.257 -0.1236 -0.1133  0.0049
29149W        W45996  11.189   5.292   3.913  0.0236 -0.0274  0.0219
29150W        W45997   4.072   6.018   1.937 -0.0239 -0.3409 -0.1029
29151W        W45998   0.772  15.512   2.083 -0.4942  0.3555  0.0942
29152W        W45999   7.314  10.444  11.247  0.1377  0.0581  0.3943
29153W        W46000   2.904   4.794   2.975  0.2699 -0.2542  0.1508
29154W        W46001  15.608   5.326   3.611 -0.1499 -0.2268  0.4782
29155W        W46002   7.261  17.744  14.058 -0.1597  0.0325  0.0185
29156W        W46003   5.574   8.833  10.611  0.2456  0.0884 -0.0512
29157W        W46004  13.070   2.038   1.224  0.0665  0.0185 -0.0122
29158W        W46005   4.292   9.806  12.880 -0.3676 -0.4210  0.2457
29159W        W46006  13.501   1.430  10.410  0.2368  0.0793 -0.1681
29160W        W46007  16.990   4.166   3.918  0.1477  0.2199  0.0494
29161W        W46008  15.163  15.692   2.833 -0.1236 -0.2583  0.2557
29162W        W46009   8.810   0.935   3.833  0.3944  0.0085  0.1295
29163W        W46010  11.634  16.258  10.643  0.1253 -0.2642 -0.2370
29164W        W46011   9.618  16.166   1.323  0.2503  0.0043 -0.3045
29165W        W46012   8.606  10.902   2.058 -0.1814 -0.2727  0.0720
29166W        W46013   4.265  12.459  14.849  0.3648  0.1302  0.1316
29167W        W46014   9.308   8.110  14.747  0.0966  0.3303 -0.1146
29168W        W46015   0.810  15.502  10.946  0.0705 -0.3098 -0.1406
29169W        W46016   9.622  10.218  15.339 -0.1890  0.2421 -0.1885
29170W        W46017   7.265  12.069   3.471  0.0238  0.0568  0.4392
29171W        W46018   7.079   4.068   0.398 -0.0705  0.1170 -0.2988
29172W        W46019   5.552   0.784   3.771 -0.1377  0.0883  0.0387
29173W        W46020   5.760   5.818   1.431  0.2409 -0.0757  0.0735
29174W        W46021  16.289   9.673  14.817 -0.0406  0.2907  0.0031
29175W        W46022  12.316   1.983   1.919 -0.0833 -0.2319 -0.0449
29176W        W46023  12.981   4.833   2.697  0.1100 -0.0344  0.1476
29177W        W46024  15.935  10.711   0.134 -0.0763 -0.0521 -0.2033
29178W        W46025   9.105  12.755   1.484 -0.0433 -0.1195  0.3843
29179W        W46026   0.609  11.940   1.218 -0.1543 -0.2216  0.0351
29180W        W46027   0.976  11.449   1.885  0.1967  0.1005 -0.3208
29181W        W46028  16.584  14.102   0.042 -0.2656 -0.0291 -0.3369
29182W        W46029   1.688  10.788  14.607  0.0420  0.0052  0.1233
29183W        W46030  16.291  14.039   3.729  0.0206 -0.2379  0.0585
29184W        W46031  11.819   2.260   4.195  0.2452  0.0062  0.1621
29185W        W46032  12.956  11.119   2.603  0.0728 -0.0066  0.0848
29186W        W46033   0.633   4.546  15.031 -0.3209  0.1207 -0.3591
29187W        W46034  15.818  18.774   0.976 -0.1154 -0.3287 -0.1793
29188W        W46035   4.139   4.335   0.803  0.0172 -0.3115 -0.0362
29189W        W46036   1.573  18.002  12.483  0.0464 -0.1594  0.1103
29190W        W46037  18.360   6.038  12.188 -0.1637  0.0573 -0.0274
29191W        W46038  17.324   7.874  11.874  0.0849 -0.1088 -0.2872
29192W        W46039   5.111   0.994   3.866  0.1275  0.2861  0.0466
29193W        W46040   4.081   5.833  14.828  0.0109  0.0485 -0.1485
29194W        W46041   4.861   1.809   2.875 -0.0363  0.3229  0.0918
29195W        W46042   9.678   5.788  12.191 -0.0149 -0.0364  0.0480
29196W        W46043   4.679  10.885  11.139  0.2261 -0.0287  0.0229
29197W        W46044  13.037   1.824  13.018 -0.0363  0.0473 -0.2750
29198W        W46045   7.886   8.680   0.285  0.2827 -0.3647  0.0580
29199W        W46046   2.286  10.575  14.856  0.0666  0.1067  0.1195
29200W        W46047   2.356   8.765  11.048  0.0996  0.0249  0.1956
29201W        W46048  13.184   9.120  13.117  0.0457  0.2203 -0.2527
29202W        W46049   5.590   4.877  11.188  0.1639  0.1857 -0.1115
29203W        W46050   6.714  17.060   9.899  0.1431 -0.0435  0.0387
29204W        W46051   5.562  16.910  11.557 -0.1684 -0.3655 -0.1619
29205W        W46052  17.626   1.733  11.268  0.0113 -0.0245 -0.1191
29206W        W46053  16.499   9.345   4.747 -0.1057 -0.1882 -0.0800
29207W        W46054   9.320  12.984  11.455  0.1676  0.1232  0.2705
29208W        W46055   6.177  16.304   5.552 -0.1131  0.1195 -0.1562
29209W        W46056   2.656   7.204  12.358  0.0337 -0.0478 -0.2883
29210W        W46057  16.817  15.710  13.041 -0.0790 -0.2432 -0.0960
29211W        W46058  13.253  14.541  12.296  0.0081 -0.1009 -0.1247
29212W        W46059   9.406  15.706   4.980  0.3374 -0.1830  0.1108
29213W        W46060  12.427   0.047  12.931 -0.1338 -0.1085 -0.1182
29214W        W46061  14.998   5.671   1.946  0.0040 -0.0157  0.0220
29215W        W46062   5.883  14.453  13.426 -0.1339 -0.2310  0.3122
29216W        W46063   7.354  14.066   0.707 -0.1536  0.2994 -0.1555
29217W        W46064   7.220   3.654  12.669  0.2595 -0.1356 -0.0721
29218W        W46065   1.581   5.931  14.484  0.0215  0.2134  0.0762
29219W        W46066  13.175  14.497  13.176  0.0310  0.0696  0.0295
29220W        W46067  15.537  12.550  13.056  0.0328 -0.2959  0.1131
29221W        W46068  10.977   1.179  13.508 -0.2242  0.0547 -0.0816
29222W        W46069  12.616   7.257  11.860 -0.0867 -0.1217 -0.1253
29223W        W46070   7.021   2.857   4.017 -0.1978  0.1235  0.0273
29224W        W46071   1.919   4.013  11.331  0.3452 -0.0172  0.0529
29225W        W46072   4.052   3.048   4.265  0.0180  0.2559  0.2278
29226W        W46073  18.778   7.295   2.011 -0.1248 -0.2446 -0.1725
29227W        W46074  10.659   9.695   3.577  0.4608 -0.1579 -0.0841
29228W        W46075   3.182   9.715   2.252 -0.0184  0.0714  0.2239
29229W        W46076  10.630   0.620   4.832  0.0153  0.2738 -0.1895
29230W        W46077   9.674  18.069  15.095  0.0625 -0.0628 -0.0468
29231W        W46078  18.272  15.889  15.288  0.1018  0.1828  0.0837
29232W        W46079  14.068   5.428  14.820 -0.2683  0.1298 -0.0667
29233W        W46080   9.912  15.163  14.134 -0.2130 -0.2753 -0.1268
29234W        W46081   8.616   1.873   3.585  0.1153  0.1192  0.2675
29235W        W46082  11.782   0.616   3.539  0.0393  0.1592  0.2208
29236W        W46083   0.628   5.510   3.322  0.1292  0.1429  0.3213
29237W        W46084   3.194  13.556   3.721  0.2382  0.2943 -0.1536
29238W        W46085  13.859  10.686  12.087 -0.0199  0.0516  0.0758
29239W        W46086   3.915   1.865   0.530 -0.1590 -0.0837 -0.1702
29240W        W46087   5.463   2.092  13.530  0.1999  0.0798  0.3963
29241W        W46088  18.319   9.940   0.195 -0.2071 -0.0886  0.0163
29242W        W46089   9.031  15.667  12.287 -0.3557  0.0282  0.1975
29243W        W46090   3.272   8.576   3.775  0.1434 -0.1619  0.2800
29244W        W46091  12.839   2.385   2.390 -0.0824  0.2486 -0.0075
29245W        W46092  12.327  10.948  11.551  0.1887  0.0199  0.1007
29246W        W46093   6.630   7.274  13.874  0.1139  0.2006  0.2363
29247W        W46094  16.064  16.862  12.488 -0.0171  0.0465  0.4336
29248W        W46095  17.402   6.750  15.289 -0.0081  0.0293  0.0960
29249W        W46096   7.558  16.732   4.240  0.0558 -0.2174  0.3060
29250W        W46097  12.662  14.353   9.894  0.1735  0.0791 -0.0436
29251W        W46098   5.145   7.622   4.633 -0.1613 -0.1131  0.0941
29252W        W46099   1.794   4.226  14.474  0.1727 -0.0542  0.0405
29253W        W46100  11.899  14.836  11.126 -0.0838 -0.0670  0.0233
29254W        W46101   2.836   8.662  13.970 -0.3321  0.1878  0.2400
29255W        W46102   4.688  11.569   1.810 -0.0088  0.0603 -0.1125
29256W        W46103   4.263  18.472  15.156  0.0990 -0.0551 -0.0597
29257W        W46104   5.030   0.087   3.292  0.3553  0.0478 -0.1138
29258W        W46105  10.938   8.602   3.439 -0.1153 -0.1800 -0.1046
29259W        W46106   3.763  16.884   3.950 -0.2264 -0.0131 -0.0080
29260W        W46107  15.227  11.061  14.045 -0.0057 -0.1568 -0.0525
29261W        W46108  16.242  18.492  11.242 -0.1228 -0.1002 -0.0765
29262W        W46109  17.600  12.887   3.408  0.2773 -0.2119 -0.1069
29263W        W46110  16.681   1.043   2.328  0.2732 -0.0169  0.0586
29264W        W46111  16.409   1.694  13.382 -0.0782  0.1006  0.0003
29265W        W46112   3.133  13.810   4.203 -0.0026 -0.1943  0.2746
29266W        W46113   2.435   6.493   0.531 -0.1995 -0.0890 -0.0025
29267W        W46114   4.705  14.688   3.929 -0.2061 -0.2378 -0.1469
29268W        W46115   8.697  11.465   1.690  0.0024 -0.0949  0.2616
29269W        W46116   1.147   6.462  12.602 -0.2295  0.1547  0.0445
29270W        W46117  16.653   2.803   2.510  0.0740 -0.4296  0.0409
29271W        W46118  17.407   5.613   0.497 -0.1503 -0.1060  0.3454
29272W        W46119  12.705  15.595  11.845 -0.1258 -0.1381 -0.2155
29273W        W46120  13.616   2.776   4.691  0.1336 -0.0959 -0.0733
29274W        W46121   3.426  14.419   3.993 -0.0676  0.1891 -0.0684
29275W        W46122  16.377  14.827  11.838 -0.0753  0.2400  0.0068
29276W        W46123   1.018   9.624  11.324  0.0532 -0.2154 -0.0359
29277W        W46124   7.686   5.117  11.572 -0.0253  0.1018 -0.3145
29278W        W46125  12.772   2.542   0.439 -0.0635 -0.0422 -0.1487
29279W        W46126   5.107   9.159   0.511 -0.2870 -0.0354  0.0059
29280W        W46127   4.693   2.849   0.872  0.0045 -0.0787 -0.3377
29281W        W46128   8.183  11.062  13.653  0.0314  0.1250  0.1709
29282W        W46129  17.697   9.185  11.098 -0.1344 -0.2008  0.1841
29283W        W46130   2.681   5.657  14.620  0.2957 -0.3681  0.0159
29284W        W46131  17.719  16.530  14.104 -0.0258  0.0461 -0.3256
29285W        W46132   5.967  10.249   3.535  0.1081 -0.3048 -0.0767
29286W        W46133  17.608   1.814  15.329  0.0052 -0.1041  0.1513
29287W        W46134  12.224  13.495  12.542 -0.4445  0.0713  0.3027
29288W        W46135   1.778   4.893   4.841  0.3931  0.0098  0.3767
29289W        W46136  13.296   4.858  12.614  0.1465 -0.0817  0.0603
29290W        W46137  12.711  13.700  12.341 -0.0210 -0.1328  0.1910
29291W        W46138   1.051   2.016   4.266  0.2771 -0.0772 -0.0611
29292W        W46139   0.439  17.065  10.350 -0.1871  0.1409 -0.0401
29293W        W46140  13.646   5.435   4.840 -0.0250  0.0082  0.1692
29294W        W46141  15.777  17.411  11.912  0.2222 -0.0788 -0.2110
29295W        W46142   9.857   4.066   5.165  0.1397  0.0767  0.5279
29296W        W46143  12.749  10.664  10.656  0.0096 -0.3989 -0.0101
29297W        W46144  13.876   3.648  11.056  0.2247  0.0168  0.0530
29298W        W46145   2.404  15.709  12.107 -0.1916  0.0196 -0.4283
29299W        W46146   1.696   2.496  13.099  0.2046  0.2336  0.3196
29300W        W46147   2.243  15.448   0.823 -0.2016 -0.0409 -0.3484
29301W        W46148  10.130  10.674   0.979  0.0538 -0.0248 -0.1585
29302W        W46149  10.341   7.246   3.579  0.1318  0.2219  0.1228
29303W        W46150  18.220   1.186  14.812 -0.4097 -0.0077 -0.0505
29304W        W46151   0.335   7.784  13.430  0.1071  0.2119 -0.0726
29305W        W46152  10.489  18.553   1.013 -0.0766 -0.0566 -0.0284
29306W        W46153  11.528  12.141  13.630 -0.4528  0.0963 -0.3542
29307W        W46154   4.570  10.899  15.170  0.0762 -0.2165  0.2637
29308W        W46155   3.911   8.806  15.488 -0.0044 -0.0051  0.0949
29309W        W46156  11.198   9.838   3.477  0.0543  0.1102  0.0584
29310W        W46157  11.283   5.470  14.110 -0.1588  0.1894  0.0658
29311W        W46158   9.196   7.068   2.565 -0.1184 -0.1043  0.0491
29312W        W46159   2.664  17.619   0.533 -0.3295 -0.1573  0.0251
29313W        W46160   1.879   7.781  13.948 -0.2637  0.1605 -0.0133
29314W        W46161  16.800   2.139  15.480 -0.1758  0.1460  0.1782
29315W        W46162   1.689   3.383   0.887 -0.0540  0.0197  0.0250
29316W        W46163   3.347  10.771  12.706 -0.1547 -0.0085 -0.2854
29317W        W46164   0.044   4.447  11.102  0.1072 -0.3910 -0.0369
29318W        W46165  15.754   1.237  13.176 -0.0056 -0.2047 -0.1139
29319W        W46166  17.903   3.366   0.590  0.0868  0.0889 -0.0436
29320W        W46167   0.826   2.274  12.873  0.1599 -0.0874  0.2121
29321W        W46168   1.374  11.808   0.473  0.2746 -0.1642 -0.0017
29322W        W46169   6.819  15.988   1.434 -0.0395  0.2109 -0.1230
29323W        W46170   4.405   0.700  13.083 -0.0695 -0.2312 -0.2313
29324W        W46171  12.531  18.391  14.047 -0.3870 -0.1075 -0.0053
29325W        W46172  10.131   9.462   1.427 -0.1977 -0.0337 -0.0317
29326W        W46173  18.743  15.532   2.392 -0.0023  0.0075  0.3578
29327W        W46174  18.425  13.184   0.158 -0.2807  0.1243 -0.3361
29328W        W46175   6.683   3.903   3.362 -0.0434  0.0703  0.1571
29329W        W46176  13.847   7.982  14.842  0.1988  0.0099 -0.0466
29330W        W46177  17.739  14.159   5.174 -0.1639  0.3138 -0.1485
29331W        W46178   7.760   7.856  14.976 -0.1630  0.1494 -0.2190
29332W        W46179  18.583  11.323  15.274 -0.1473 -0.1276 -0.0199
29333W        W46180   7.985  10.935  10.417 -0.2250  0.0557  0.0142
29334W        W46181  12.567  11.462  12.823 -0.1778 -0.1161 -0.1718
29335W        W46182   0.468  11.867   4.455  0.0038 -0.3794 -0.0130
29336W        W46183   3.163  12.597  12.441 -0.2014  0.0805  0.0311
29337W        W46184   9.934   7.543   5.370  0.3765 -0.1354  0.1872
29338W        W46185  14.508  18.816  14.226 -0.2907 -0.6515 -0.1637
29339W        W46186  15.276  17.456  11.585  0.1830  0.0641 -0.3518
29340W        W46187   7.381  10.872   0.102  0.2718  0.1020  0.0270
29341W        W46188  11.191  12.372  14.938  0.2479 -0.1963  0.0377
29342W        W46189   5.596   3.913   1.772 -0.2768 -0.0575 -0.2863
29343W        W46190   0.634  12.194   3.392  0.1389 -0.0870 -0.0668
29344W        W46191  10.270  17.797  13.438 -0.0052  0.0062  0.3021
29345W        W46192  14.349  11.867   4.609 -0.1800 -0.2259  0.0690
29346W        W46193   9.242   6.827  12.459  0.0262 -0.3681  0.0591
29347W        W46194  14.391   7.008   1.999 -0.2998 -0.1606 -0.1849
29348W        W46195  15.469   5.362   0.613 -0.0451 -0.1798 -0.1302
29349W        W46196  10.639   4.519   0.063 -0.0175  0.1965  0.1557
29350W        W46197  16.047   1.820   3.426  0.0993 -0.0314 -0.0476
29351W        W46198   9.114  14.425   3.678 -0.0558 -0.0782  0.1794
29352W        W46199  15.722   7.616  13.522  0.0305  0.0103  0.2552
29353W        W46200   1.569  17.813  11.587  0.0288  0.1501  0.0323
29354W        W46201  17.262  15.183   1.409  0.0384  0.3581  0.2768
29355W        W46202  17.907   8.388  15.247  0.0632 -0.0046 -0.3373
29356W        W46203   6.041  16.980   3.515 -0.0643 -0.1584 -0.0490
29357W        W46204   4.472  10.833  12.700 -0.1086 -0.1888  0.1363
29358W        W46205   5.305   2.893  12.394 -0.0988 -0.2375  0.2689
29359W        W46206  10.623  13.839   1.079 -0.0166 -0.1905 -0.2741
29360W        W46207   4.467  18.103   4.714 -0.0721 -0.0786  0.1860
29361W        W46208   5.969   0.683  12.446  0.1580  0.2776  0.2466
29362W        W46209   4.894   2.975   0.347 -0.0645 -0.2486  0.2583
29363W        W46210   0.672   9.642  15.278 -0.1650 -0.2003  0.0119
29364W        W46211  11.814  10.106   5.733 -0.0959 -0.0546 -0.0429
29365W        W46212   7.713   6.529   3.629 -0.1270  0.2102 -0.0113
29366W        W46213  11.590   7.333  11.088 -0.1821 -0.2560 -0.0897
29367W        W46214  12.196   8.211   2.451 -0.0225 -0.4314  0.3783
29368W        W46215   6.052   5.209   0.844  0.0747  0.0451  0.3250
29369W        W46216  18.435  17.990  12.776  0.1862 -0.5052  0.0745
29370W        W46217   3.994   4.368   4.863 -0.0193 -0.3381 -0.1386
29371W        W46218  13.160   2.644  12.293 -0.0171 -0.0200  0.0980
29372W        W46219  11.749  18.657  13.504 -0.0903  0.6449 -0.1680
29373W        W46220  17.808   2.660  12.797 -0.1296  0.1931  0.2524
29374W        W46221  18.657   7.574   3.164  0.0721  0.4369  0.0780
29375W        W46222   4.846   7.536  11.465  0.0846  0.1054  0.1126
29376W        W46223   7.639  14.761  15.278  0.3439 -0.1216  0.3721
29377W        W46224   3.078   7.550   4.563  0.1266 -0.2427  0.0703
29378W        W46225   8.124   6.978   0.517 -0.0941 -0.0948 -0.0803
29379W        W46226  13.914  10.627  13.451 -0.1468  0.2911  0.0116
29380W        W46227   7.126   0.823   4.342  0.2164 -0.0116 -0.0864
29381W        W46228  13.862   6.318  14.607  0.3329  0.0454  0.0922
29382W        W46229   1.166   3.225  15.111 -0.1598  0.0773  0.1045
29383W        W46230   0.039   1.943  11.416  0.0960 -0.0949 -0.0275
29384W        W46231   7.042   3.525   5.132 -0.2183 -0.0628  0.0619
29385W        W46232   4.074  14.225  13.416 -0.0481  0.0975 -0.1435
29386W        W46233   0.061   9.868   0.067  0.0552 -0.2509 -0.1533
29387W        W46234  17.743  12.022  14.764 -0.0023 -0.1360  0.2256
29388W        W46235  10.917  12.372   1.432  0.0643 -0.0267  0.1135
29389W        W46236   6.096  17.937  14.779 -0.0291 -0.2094  0.0925
29390W        W46237  12.499  11.920   2.610  0.0284 -0.0503  0.0422
29391W        W46238  14.802   5.373  14.093 -0.3317 -0.0615  0.0781
29392W        W46239   4.946   9.318  11.786 -0.0221  0.1480  0.1056
29393W        W46240  18.024  18.132   4.450 -0.0260 -0.1081 -0.3256
29394W        W46241   0.109   6.180  13.387  0.0710  0.4491 -0.1015
29395W        W46242   6.709   8.421  11.625 -0.4375 -0.0860  0.1479
29396W        W46243   8.545  15.722   0.239 -0.2221  0.1609  0.0379
29397W        W46244   1.672   3.883  15.513  0.1308 -0.1273  0.3573
29398W        W46245   7.555  16.554  14.266  0.2231 -0.2237 -0.1811
29399W        W46246   7.158   0.928  11.329 -0.1059 -0.3932  0.0276
29400W        W46247   8.199  13.260  11.826  0.1322  0.1629 -0.0004
29401W        W46248  14.150  12.497  14.606 -0.0434 -0.0409  0.0878
29402W        W46249   4.119  15.446  12.331 -0.2298  0.0398  0.1977
29403W        W46250   1.616  12.002   3.061 -0.2631  0.2198 -0.1261
29404W        W46251  14.176   7.165   4.347  0.2570  0.0731 -0.1703
29405W        W46252   9.753   5.150  10.942 -0.2611 -0.0926 -0.1298
29406W        W46253   4.046   1.860   3.036  0.4462 -0.0012  0.0292
29407W        W46254  11.401   8.199   3.968 -0.3640 -0.1961  0.1388
29408W        W46255  16.717   3.437   0.737 -0.0406  0.1002  0.0292
29409W        W46256  17.477   1.422  14.369 -0.2659 -0.2853 -0.0102
29410W        W46257   8.427   0.261  13.983 -0.0129 -0.0388 -0.2071
29411W        W46258   0.185   6.850   0.010  0.0446  0.1155 -0.3904
29412W        W46259  14.023   3.165  13.959 -0.2024  0.0663 -0.0060
29413W        W46260   8.792  15.233   0.153  0.0588  0.0523 -0.0193
29414W        W46261   0.471  11.705  11.864  0.1246 -0.2052  0.1020
29415W        W46262  10.932   4.435  12.763 -0.0172 -0.1122 -0.0620
29416W        W46263   0.005  14.912   4.520 -0.1975  0.1611 -0.0880
29417W        W46264  10.121   3.809  15.349 -0.1709 -0.1201 -0.0639
29418W        W46265  17.250   2.238   0.066 -0.1506 -0.0285 -0.2585
29419W        W46266   3.168  18.111  11.126 -0.0887 -0.5134 -0.0535
29420W        W46267   9.632  10.762   3.972 -0.0074  0.0180 -0.2754
29421W        W46268  15.343   8.668   4.100 -0.0212 -0.2240 -0.4463
29422W        W46269  16.378   4.161   3.000  0.0421 -0.1372  0.2580
29423W        W46270  16.263  17.543   2.128  0.3218 -0.1304 -0.0978
29424W        W46271   9.590   4.332  13.152 -0.0199 -0.0389  0.0956
29425W        W46272  14.728   7.212  10.635 -0.0718 -0.3896  0.0906
29426W        W46273  17.850   0.674   0.138  0.2020 -0.1038  0.0705
29427W        W46274  10.640  16.467   3.060  0.0160  0.1344 -0.0728
29428W        W46275   4.029   3.073   5.586  0.0994 -0.2145 -0.0554
29429W        W46276  14.924  14.218   2.709 -0.2250 -0.1455 -0.2785
29430W        W46277   1.242   5.984  10.538  0.0255  0.0002 -0.6063
29431W        W46278  11.288   2.025   2.310  0.1669  0.1150  0.4887
29432W        W46279   7.702  14.888  11.228 -0.0900 -0.1874 -0.1923
29433W        W46280   4.262   2.352  15.399 -0.2005 -0.1469 -0.1693
29434W        W46281   9.523   9.301  13.658  0.1210  0.0934  0.2303
29435W        W46282  15.687  15.599   3.769  0.1148 -0.3333 -0.2154
29436W        W46283   1.935  18.218  10.720 -0.1281  0.0730 -0.1198
29437W        W46284  16.932   4.109  14.443 -0.0993 -0.2430  0.1516
29438W        W46285  18.656   1.041   1.833  0.0188 -0.2659  0.2397
29439W        W46286  16.949   2.206   5.371  0.2206 -0.2277 -0.2091
29440W        W46287   3.499   9.966  14.365 -0.4532  0.1354  0.1360
29441W        W46288  10.334  18.423  11.672  0.2531 -0.0017 -0.4448
29442W        W46289   3.055  14.107  15.420  0.3108  0.0579  0.0242
29443W        W46290   8.949  12.735  11.221 -0.0352 -0.0355 -0.2282
29444W        W46291  15.745  11.484  12.313 -0.1585 -0.1606 -0.2262
29445W        W46292   3.926  11.173  15.079 -0.0650 -0.5021  0.2729
29446W        W46293  15.899   8.626   2.071 -0.0667  0.0505 -0.1481
29447W        W46294   3.205  12.479  14.179 -0.3333 -0.0233 -0.0679
29448W        W46295   4.347  12.253  13.401  0.1406  0.3823 -0.2241
29449W        W46296   8.350  10.881  10.822  0.2266 -0.0857  0.3291
29450W        W46297  13.723   6.112   3.856  0.1956  0.1214 -0.0765
29451W        W46298  13.801  14.985   4.408 -0.2655 -0.0823 -0.0166
29452W        W46299   5.628   2.156  14.865 -0.0874  0.0889 -0.1453
29453W        W46300   7.317   6.855   3.752 -0.1115  0.3203 -0.1246
29454W        W46301  15.328   4.837   0.453  0.0494  0.0440 -0.2573
29455W        W46302  16.565  16.791   3.858  0.0551  0.1055 -0.3593
29456W        W46303  10.499   8.581   4.148  0.1191  0.0764  0.0643
29457W        W46304   3.894   4.020  13.420  0.1073 -0.2100 -0.0252
29458W        W46305  12.900   0.485  11.329 -0.3707 -0.1623 -0.1228
29459W        W46306   7.631  17.558  14.481  0.0474  0.0672  0.2328
29460W        W46307  17.172  12.197   4.382 -0.1583  0.2563  0.0599
29461W        W46308   0.856   8.315  12.589  0.3995  0.3108 -0.1565
29462W        W46309   3.323   0.331   0.254  0.0947  0.3489 -0.0013
29463W        W46310   0.797  13.530   3.841 -0.2400 -0.1734 -0.0502
29464W        W46311  11.920  14.425  12.283 -0.0326  0.1362 -0.0043
29465W        W46312   2.056   5.195   4.514 -0.2159 -0.0338 -0.0625
29466W        W46313   1.638  15.190  12.323  0.1013  0.0852  0.0280
29467W        W46314  17.993   7.058   1.486 -0.1527  0.1346 -0.1319
29468W        W46315   3.845  12.017  12.459 -0.0094  0.1146 -0.1958
29469W        W46316   3.684  11.429  15.489 -0.0418  0.1918  0.1356
29470W        W46317  14.993  18.485  14.057  0.4703 -0.4242  0.1518
29471W        W46318  18.841  13.786  14.886 -0.0326  0.1791 -0.2299
29472W        W46319   7.549  16.920   3.780 -0.0572  0.0870  0.3596
29473W        W46320  17.550   8.838  12.493 -0.2916 -0.2096 -0.1026
29474W        W46321   3.838   9.770   3.554  0.2441  0.0401 -0.0235
29475W        W46322  17.747   2.090   3.470  0.0019 -0.1752 -0.0133
29476W        W46323  10.478   6.836   2.063 -0.2208  0.0301  0.0023
29477W        W46324   1.247  13.921   3.844 -0.2490  0.1215  0.2928
29478W        W46325   8.863   4.537   0.414  0.2576 -0.0209 -0.1169
29479W        W46326   8.956  11.516   2.886 -0.0006 -0.0425 -0.1261
29480W        W46327   4.255   5.133  13.585 -0.0589  0.1984  0.0103
29481W        W46328   8.661  13.831   1.591 -0.0984 -0.4029 -0.0857
29482W        W46329   9.871  12.225  10.275 -0.2897 -0.0960  0.2683
29483W        W46330   5.728   3.466  12.495  0.2602  0.1661  0.1986
29484W        W46331  15.165  11.949  14.953 -0.1280 -0.0188  0.1688
29485W        W46332  13.681  12.810  12.982 -0.0198  0.2754  0.1340
29486W        W46333   5.098   6.978   3.344 -0.1081  0.0833  0.0274
29487W        W46334  11.372  17.556   0.225 -0.2500 -0.1346 -0.0160
29488W        W46335   2.158   5.572  14.858 -0.1013 -0.0912  0.0446
29489W        W46336  18.547  10.388   5.245  0.1465 -0.0726 -0.2556
29490W        W46337   5.071  16.699  14.465  0.3934 -0.2845  0.2795
29491W        W46338  15.586   9.514   5.030 -0.3679 -0.1105 -0.0135
29492W        W46339  13.706   6.471   6.110  0.1038  0.0453  0.0625
29493W        W46340   7.331  13.462   1.888  0.4195  0.1160  0.3975
29494W        W46341   9.188   5.857  13.953 -0.3523 -0.0240 -0.1128
29495W        W46342   1.995   5.808   0.289 -0.0045  0.1937 -0.0434
29496W        W46343   3.845  18.356  13.255  0.0768  0.0138  0.0167
29497W        W46344   2.093  15.989  12.398 -0.0127  0.1795  0.2544
29498W        W46345  13.245   7.593   0.918 -0.0976 -0.2070 -0.1759
29499W        W46346  10.358  14.898   3.600  0.2116 -0.1183 -0.0666
29500W        W46347  18.377   7.199  12.853 -0.1610  0.0729  0.3524
29501W        W46348   8.201  13.163   5.386  0.3547  0.1297  0.1729
29502W        W46349   4.139  16.269   0.049 -0.2621  0.0595 -0.0542
29503W        W46350   8.743  13.596  15.205  0.1393 -0.2700 -0.1623
29504W        W46351   7.607   1.232  15.358  0.1583  0.1506  0.0914
29505W        W46352   8.711   5.510   2.735  0.1635 -0.0818 -0.3029
29506W        W46353  14.324  12.161  14.200  0.0645 -0.2948  0.1746
29507W        W46354  17.454  10.232  13.067 -0.1726 -0.2541  0.1731
29508W        W46355  13.327  18.166   0.448  0.0597 -0.1980 -0.3075
29509W        W46356  11.477  17.678  10.860  0.1154 -0.1433 -0.1559
29510W        W46357   9.930   6.138  14.101 -0.2467 -0.0553 -0.0535
29511W        W46358   2.063  12.694   0.282 -0.5560 -0.0184 -0.0563
29512W        W46359  10.547  16.547  13.940  0.1388 -0.0475  0.2531
29513W        W46360  10.437   5.023  15.451  0.4037 -0.2116 -0.0811
29514W        W46361  17.612  11.922  11.887 -0.0980 -0.0304  0.2546
29515W        W46362   1.723   1.619  10.803 -0.2253  0.1578  0.0316
29516W        W46363  10.289  13.483   1.191 -0.3582  0.0393 -0.0056
29517W        W46364  13.228   2.967   5.607  0.0439  0.1016 -0.0975
29518W        W46365   9.101   3.729   0.625 -0.1789 -0.3027  0.2420
29519W        W46366   1.976   1.972   1.377  0.0995 -0.0306  0.2792
29520W        W46367  18.298  14.075   0.066  0.1576  0.1430 -0.1938
29521W        W46368   9.385   1.762   2.495  0.1042 -0.1718  0.3267
29522W        W46369   0.039  11.590   0.060 -0.2794 -0.4510 -0.1342
29523W        W46370   6.503  15.640   1.564 -0.2716 -0.1171 -0.0452
29524W        W46371   9.552  10.232  12.622  0.1444  0.1238  0.0865
29525W        W46372   8.500   9.684   4.422  0.0445 -0.0033  0.1498
29526W        W46373  12.339   0.729   4.246  0.0512  0.4535 -0.1318
29527W        W46374   0.846   7.000  12.073  0.2595 -0.3278 -0.0643
29528W        W46375  15.943  12.569  14.272 -0.0227 -0.0671 -0.1041
29529W        W46376  14.884  17.055   3.430  0.1120 -0.0597  0.0328
29530W        W46377   0.503  15.024   0.094  0.0633  0.3456  0.0221
29531W        W46378   7.481   0.494   1.926 -0.0446  0.0236  0.2520
29532W        W46379   0.000   7.247   1.007 -0.1552 -0.2476 -0.1858
29533W        W46380   8.972  18.062   1.742  0.2362  0.2160  0.0640
29534W        W46381   4.915  15.424   4.070 -0.0312 -0.1921  0.2178
29535W        W46382  17.196  15.993   4.401 -0.3413  0.0146  0.2566
29536W        W46383  11.881  10.509   3.759 -0.1057  0.0698 -0.1578
29537W        W46384   3.050   0.267  13.510 -0.3691 -0.1218  0.2323
29538W        W46385  14.785  13.209   1.071 -0.0039 -0.3356 -0.0707
29539W        W46386  14.509  10.571  11.247 -0.1187  0.1329  0.0267
29540W        W46387   2.655  13.198   0.200 -0.3689 -0.0995 -0.0140
29541W        W46388   5.229  15.894   4.163 -0.0134  0.4018 -0.3313
29542W        W46389   7.853  11.275  13.326 -0.2577 -0.0797  0.1799
29543W        W46390   8.021   5.114   0.248  0.1264  0.6202  0.0198
29544W        W46391  15.367  14.496  14.543 -0.1222 -0.6214 -0.0136
29545W        W46392   9.138  15.970  12.657  0.1231 -0.0482 -0.4203
29546W        W46393  11.510   6.190   1.441 -0.0343  0.0126  0.4040
29547W        W46394  15.319   9.131   2.827  0.0233  0.1149  0.3217
29548W        W46395   3.315   3.925  12.400  0.0105 -0.0743 -0.3162
29549W        W46396  10.546  12.874  12.630 -0.0720 -0.2511 -0.1523
29550W        W46397   4.049  18.704  14.177  0.1790  0.1542 -0.1331
29551W        W46398   4.544  17.556  14.699  0.1325  0.0211 -0.2064
29552W        W46399   3.981  11.324   2.838 -0.3801 -0.1596 -0.0882
29553W        W46400   3.192  11.928  11.503  0.0673  0.2870  0.3707
29554W        W46401  18.600   9.665  15.288  0.1632  0.0760  0.0937
29555W        W46402   9.011  13.954  13.372 -0.0450  0.0776 -0.1422
29556W        W46403  18.193   4.262   2.277 -0.1653  0.0081  0.2114
29557W        W46404  16.274  12.041   1.281 -0.1434 -0.0823 -0.2726
29558W        W46405  18.835   1.984  14.526 -0.1541  0.3415  0.1791
29559W        W46406   3.849   1.559  14.406 -0.2035  0.0528 -0.2691
29560W        W46407   8.489   7.027  13.062  0.1114  0.0688 -0.1470
29561W        W46408   7.330  15.674  15.352  0.4100  0.0944 -0.2922
29562W        W46409  16.351   1.740  14.557 -0.2234 -0.0245 -0.1707
29563W        W46410   5.844  13.074  13.916  0.0700 -0.2028  0.1653
29564W        W46411  11.439   4.981  13.803 -0.0554  0.1793 -0.3095
29565W        W46412  17.433   0.635   1.932 -0.2583  0.1695  0.1490
29566W        W46413  13.106   9.192  15.186 -0.0786 -0.1529 -0.4685
29567W        W46414  10.861  12.827  13.365  0.1914  0.0548 -0.0644
29568W        W46415  14.024  18.644  13.273  0.2584 -0.1484  0.1070
29569W        W46416   9.455  16.548   3.806  0.1909  0.1935 -0.1346
29570W        W46417   9.456   1.194   2.008  0.1196  0.2657 -0.2253
29571W        W46418   0.280   5.469   2.860 -0.1244  0.2415 -0.3261
29572W        W46419   9.613  18.502  14.380 -0.3235 -0.1844  0.1933
29573W        W46420  18.629   0.993   2.667  0.0679 -0.1041 -0.0972
29574W        W46421   6.562   3.006   5.189 -0.1269 -0.1323  0.3246
29575W        W46422   8.570  15.481   0.741  0.1168 -0.1824 -0.0593
29576W        W46423   6.156   5.494  12.309  0.1531  0.1534  0.0170
29577W        W46424  16.211   6.052  13.054  0.2267  0.2597  0.0031
29578W        W46425  10.577   6.065  11.532  0.1459 -0.0798 -0.0487
29579W        W46426   2.588   5.570   3.255 -0.1852  0.1875  0.0413
29580W        W46427  12.786   7.757  15.098  0.0026 -0.2251 -0.0335
29581W        W46428  15.313  10.733  10.993  0.0650  0.2094 -0.0276
29582W        W46429   6.028   6.515  13.973  0.0489  0.2599  0.0577
29583W        W46430  14.701  17.513   4.825  0.1537 -0.2260  0.1712
29584W        W46431  15.248  10.141  13.322  0.1019 -0.0277 -0.0775
29585W        W46432   7.024  14.792   2.890  0.1547  0.2387 -0.1312
29586W        W46433   3.949  16.491   5.662 -0.0740 -0.0264 -0.1099
29587W        W46434  18.429   3.150  12.967 -0.4013  0.0214  0.4875
29588W        W46435   6.077  18.522  13.285  0.0564  0.1911 -0.1197
29589W        W46436   4.402  15.911  14.750  0.0302  0.1325  0.1953
29590W        W46437   9.249   3.290  13.924 -0.3003 -0.0339 -0.2804
29591W        W46438  18.484   2.443   4.999  0.0675  0.2489  0.2554
29592W        W46439  10.689   3.895  13.546 -0.1457  0.0101 -0.3219
29593W        W46440  16.269  13.131  10.733 -0.0026 -0.1115  0.1858
29594W        W46441   9.048  11.693   3.993  0.0207  0.1769 -0.3180
29595W        W46442   1.341  16.963  12.494  0.0358  0.1529  0.2612
29596W        W46443   5.111   6.451  13.020 -0.0160  0.2975 -0.1334
29597W        W46444   7.283  17.104  15.219  0.2403 -0.0123  0.1351
29598W        W46445   6.533  15.797  14.128 -0.2659 -0.0913 -0.2919
29599W        W46446   5.022   3.908  14.830 -0.3929  0.1377 -0.0656
29600W        W46447   4.247   3.892  14.153  0.3774  0.4510  0.1320
29601W        W46448   9.352  12.516   2.227  0.0673  0.0874 -0.1474
29602W        W46449  13.419   0.453  12.784 -0.0776 -0.0978 -0.0021
29603W        W46450   2.583   9.997  15.330  0.0500 -0.1245 -0.0366
29604W        W46451   9.659   8.003   1.697  0.1040  0.0667  0.3580
29605W        W46452  17.825   7.572   2.774 -0.0546 -0.0062 -0.1946
29606W        W46453  13.133  15.883  15.413  0.1073  0.1710 -0.0702
29607W        W46454   5.296  13.914   0.565  0.1539  0.2362 -0.0585
29608W        W46455   9.831  13.958  12.182 -0.1644 -0.0446  0.1428
29609W        W46456  13.124   6.947  11.156 -0.1753 -0.2073 -0.2991
29610W        W46457   3.564  16.307  11.177 -0.2217 -0.1527  0.2044
29611W        W46458   4.938  17.160  14.567 -0.1742 -0.0164  0.0891
29612W        W46459   4.629   8.724   4.210 -0.1252 -0.2524  0.0413
29613W        W46460  12.006  14.329  10.950 -0.1278 -0.2648 -0.1793
29614W        W46461  17.321  13.974   4.574 -0.0534  0.0771  0.1207
29615W        W46462   7.897  10.181  13.330  0.2294  0.0742 -0.2416
29616W        W46463   4.597  18.710   4.050 -0.2022 -0.1159  0.0998
29617W        W46464   4.690  17.043   0.901 -0.3526  0.3251  0.0501
29618W        W46465  18.816  18.545   3.454 -0.1250  0.1313 -0.0401
29619W        W46466   9.399  16.476  14.684  0.1513 -0.0203  0.1668
29620W        W46467  11.385  17.440   2.242 -0.1227  0.1615 -0.0017
29621W        W46468   7.777   1.072   3.520 -0.0537 -0.0275 -0.1340
29622W        W46469   1.609   6.491  13.260 -0.0185 -0.1017  0.1085
29623W        W46470   4.952  14.862  14.482 -0.3475 -0.2506  0.0782
29624W        W46471   9.614  10.634   0.694 -0.1130  0.1601 -0.1906
29625W        W46472  13.630  10.678  11.249  0.2021 -0.1971  0.1435
29626W        W46473  11.089  17.124   4.957 -0.1370 -0.0345 -0.2588
29627W        W46474   4.303   1.651  13.656 -0.2158 -0.1810 -0.2350
29628W        W46475   0.893   6.749   5.125 -0.2535  0.1829  0.1579
29629W        W46476  17.456   0.962   3.455  0.1550 -0.3749  0.1120
29630W        W46477   1.805   5.819  14.043  0.0425  0.0443  0.2895
29631W        W46478  12.797  12.924  14.489  0.3311 -0.0191 -0.2755
29632W        W46479   8.688  13.399  13.340 -0.2406 -0.0665 -0.1471
29633W        W46480   0.308  17.160   3.592 -0.0486  0.0459 -0.1575
29634W        W46481   7.548   9.557   4.874  0.1968  0.1030  0.0283
29635W        W46482   8.193   4.766   1.148  0.2832 -0.0133  0.3162
29636W        W46483  18.164  16.842   2.167 -0.4299  0.0304 -0.4056
29637W        W46484  13.771   5.885  12.947  0.2003  0.0628 -0.0156
29638W        W46485  17.641  16.405   2.842  0.2687 -0.1759 -0.3556
29639W        W46486  10.924   6.835   4.182 -0.1876 -0.0573 -0.3455
29640W        W46487   3.869   0.744   2.752  0.0445 -0.1039  0.0707
29641W        W46488   7.046   9.842   1.559 -0.1241  0.1261  0.0673
29642W        W46489  14.767   0.361   3.966  0.0365 -0.1601  0.1232
29643W        W46490   6.606   5.768   0.916 -0.3195  0.0262 -0.0545
29644W        W46491   6.401   2.235  13.869  0.1898  0.0627  0.1113
29645W        W46492   5.060   3.820   2.373  0.0335  0.0376 -0.2482
29646W        W46493  11.131  17.738  14.159 -0.0260 -0.2458  0.0503
29647W        W46494  12.509   8.013   4.659  0.0644 -0.2826 -0.0185
29648W        W46495  13.260   6.877  13.608  0.1390  0.3810 -0.2486
29649W        W46496  13.203  11.925   3.211 -0.0346  0.0250  0.0357
29650W        W46497  13.190   6.580   5.124 -0.2782  0.1260 -0.1002
29651W        W46498   0.815  14.561  13.296  0.0585 -0.0035  0.1453
29652W        W46499   6.846   6.089  13.832  0.2764 -0.0615  0.0289
29653W        W46500   0.075  10.469  15.114 -0.0532 -0.0196  0.0430
29654W        W46501  13.346   8.045   3.089  0.3406  0.0230 -0.2184
29655W        W46502   1.087   6.106  10.100 -0.1673 -0.0355 -0.2307
29656W        W46503   9.034  10.658  14.000 -0.1348 -0.0111 -0.1115
29657W        W46504  11.424  11.352  13.140 -0.0306  0.3064  0.3024
29658W        W46505  18.574   9.307   1.924  0.1429  0.0985  0.1323
29659W        W46506   5.995  11.612   0.758  0.0220 -0.0899  0.1087
29660W        W46507   7.305  10.545  10.722 -0.0869 -0.1763 -0.1422
29661W        W46508   8.659  17.426  11.107 -0.1464 -0.2992  0.0910
29662W        W46509   9.711  10.410   2.912 -0.2239  0.4204 -0.2057
29663W        W46510   1.407   9.359   3.190  0.2930  0.1850  0.1946
29664W        W46511  11.388   0.158   4.711  0.0998  0.2021  0.2769
29665W        W46512   2.714   6.896  15.256 -0.0176  0.1546  0.0303
29666W        W46513  10.619   5.584  10.748  0.1105  0.0061 -0.1878
29667W        W46514   6.659   5.823   3.179 -0.0012  0.1809 -0.0839
29668W        W46515   2.888   8.432   0.889  0.1516  0.0948  0.0206
29669W        W46516  13.498  17.623  12.101  0.1318 -0.1851 -0.2317
29670W        W46517  10.798  10.961  10.542 -0.1838  0.4203 -0.0599
29671W        W46518  17.031  14.834  11.040  0.0062  0.1299 -0.2477
29672W        W46519  15.090   1.510  13.921  0.4650 -0.0213 -0.3111
29673W        W46520   7.537  11.942   1.417 -0.3303 -0.0137  0.1714
29674W        W46521  10.405   3.976   5.247  0.0558 -0.1817  0.0506
29675W        W46522   1.137  16.591  10.964  0.1213 -0.1643  0.1117
29676W        W46523  11.886  15.893   1.233  0.1238  0.3835 -0.2082
29677W        W46524   2.910   1.200  13.802 -0.1983  0.0075  0.0791
29678W        W46525  11.492   0.069  12.790  0.1777  0.3562 -0.1258
29679W        W46526  18.312  15.889   5.008 -0.0658  0.1518 -0.2181
29680W        W46527  11.166   9.880  10.565 -0.1622 -0.0038 -0.1912
29681W        W46528   6.114  14.914  10.426 -0.1630  0.1310  0.2909
29682W        W46529  17.914   4.826  12.093 -0.3782 -0.3504  0.0389
29683W        W46530  14.412   2.093  12.269  0.0234  0.0399  0.0634
29684W        W46531  10.078   9.591   1.902 -0.2651 -0.1735  0.2654
29685W        W46532  11.195   8.914   1.848 -0.0300  0.2207 -0.0990
29686W        W46533  17.303   4.522   4.633  0.0518  0.1902 -0.1098
29687W        W46534   8.968  18.736  11.124  0.2465 -0.0842 -0.0684
29688W        W46535   2.868  14.925  12.557  0.0846  0.1537  0.2497
29689W        W46536   5.358   2.376  12.274  0.0602 -0.1563  0.4047
29690W        W46537  18.623  10.099   1.997  0.0073  0.1191 -0.0132
29691W        W46538  14.429  16.962   2.153 -0.1570  0.1522 -0.0778
29692W        W46539   4.337   1.397   5.143  0.0872  0.0170  0.0880
29693W        W46540   6.894   6.971  10.702  0.2242 -0.0038 -0.5123
29694W        W46541   0.587   2.775   3.147 -0.0775  0.1117  0.0829
29695W        W46542   9.949  11.464  11.084 -0.2164 -0.0536  0.0929
29696W        W46543  16.052   7.782  10.408 -0.1282  0.0176  0.0245
29697W        W46544  10.011   6.305   5.432 -0.1401  0.3829  0.0635
29698W        W46545   9.575  12.137   1.710  0.1322  0.0599  0.0894
29699W        W46546   5.556   1.299  14.853 -0.2343 -0.2234 -0.3195
29700W        W46547  12.882  10.745   1.741  0.2007 -0.0938  0.0030
29701W        W46548  10.112   6.575   1.780  0.0885 -0.1099 -0.0097
29702W        W46549   9.848   1.026   2.929 -0.0276  0.4051 -0.0960
29703W        W46550  15.516   2.548   3.444  0.0226  0.1167  0.2775
29704W        W46551  11.146   5.905  14.955  0.1761  0.1888  0.2477
29705W        W46552   2.832   8.772  12.099  0.1577  0.0899  0.1172
29706W        W46553  18.629  17.502  11.214  0.1784 -0.1582 -0.0549
29707W        W46554   2.072   0.888   1.776 -0.0806 -0.0969 -0.0889
29708W        W46555   6.078   4.589   4.460  0.2351  0.0326  0.2812
29709W        W46556  14.423   2.583  15.104 -0.2639 -0.0238 -0.2557
29710W        W46557   4.359  18.340  14.009  0.3093  0.1253  0.1122
29711W        W46558  13.927   4.864  14.063  0.0409  0.1749  0.1149
29712W        W46559  13.972   1.321  15.228  0.0800 -0.0560 -0.1991
29713W        W46560   3.443   4.549  14.525  0.0118 -0.1850 -0.1248
29714W        W46561  12.996  11.000   4.439  0.0766  0.1112  0.0060
29715W        W46562   3.146   4.919  12.459  0.2504  0.4734 -0.2930
29716W        W46563   9.806  11.313   2.425 -0.3042 -0.0277 -0.4223
29717W        W46564  10.522   4.216  12.564  0.0784  0.1423  0.2297
29718W        W46565   0.031   0.225   4.228 -0.0233  0.2180 -0.2186
29719W        W46566  14.819  14.342  10.649 -0.0619  0.1288  0.1245
29720W        W46567   6.562  15.646  14.754  0.1332  0.0695 -0.2196
29721W        W46568  13.754   0.633   4.293 -0.1842  0.1235 -0.2703
29722W        W46569  17.350  13.845  15.200  0.0686 -0.0459  0.0685
29723W        W46570  18.431  17.143  12.145  0.0502 -0.4109  0.0853
29724W        W46571   6.743  11.486   5.234 -0.1516 -0.1002  0.2329
29725W        W46572   5.381  10.593   3.442 -0.2722 -0.0160 -0.0655
29726W        W46573   1.122  11.598  13.313 -0.1184 -0.0721  0.0583
29727W        W46574   4.772   4.756   3.152 -0.0967 -0.2817  0.1707
29728W        W46575   3.660   5.031   1.414 -0.1841  0.1790  0.2178
29729W        W46576   3.950   7.278   2.493 -0.0617  0.0633 -0.1372
29730W        W46577  16.778   1.662   3.770  0.1470  0.3194 -0.2222
29731W        W46578   3.996  16.581  15.213 -0.1547  0.0529  0.1245
29732W        W46579   8.916  12.302   4.371 -0.1528 -0.1730 -0.1146
29733W        W46580  18.477  18.464   2.974 -0.1842 -0.1057 -0.2903
29734W        W46581  17.968   1.628   3.190  0.2200  0.2438  0.0886
29735W        W46582  10.237   7.837  14.168 -0.1072  0.0741  0.0237
29736W        W46583  14.864   5.226   4.833 -0.0156  0.5086  0.1596
29737W        W46584   9.149   7.281   4.206 -0.1540  0.1344 -0.1817
29738W        W46585  18.361  17.787   0.574  0.0736  0.0696 -0.0164
29739W        W46586   2.391   2.925   3.542  0.2007  0.4318 -0.0608
29740W        W46587  16.840  16.264   4.587  0.0087  0.2377  0.1612
29741W        W46588   4.655   4.290  14.717 -0.2729 -0.4614 -0.0303
29742W        W46589  10.102   7.869   1.404  0.0646  0.0456  0.2138
29743W        W46590  13.331   4.531  14.291 -0.2731  0.0301 -0.0814
29744W        W46591   8.655   2.500  14.933  0.0563  0.2586 -0.0488
29745W        W46592  14.346  10.306   1.217  0.1581  0.2629 -0.1584
29746W        W46593  13.175  13.596  14.270  0.2751 -0.0429  0.0052
29747W        W46594  16.363  16.605   0.562 -0.0727  0.1187 -0.0518
29748W        W46595  16.362  10.417   3.596 -0.3341  0.1611 -0.1839
29749W        W46596   0.116   3.797   1.318 -0.2288 -0.2873 -0.2256
29750W        W46597  11.629   0.798   4.868  0.2590  0.1383 -0.0744
29751W        W46598   9.958  13.827  13.354  0.1061 -0.0146 -0.2226
29752W        W46599  18.533  16.909   1.796 -0.2607 -0.1418 -0.1371
29753W        W46600   5.978   6.726   1.398 -0.1273 -0.3939  0.0756
29754W        W46601  11.810  11.426   0.989 -0.1140 -0.2769 -0.0672
29755W        W46602  16.799   5.865   4.189  0.1344  0.1448 -0.0893
29756W        W46603  13.027  16.630   2.141 -0.1544 -0.1777  0.1328
29757W        W46604   2.607   5.874   1.023 -0.0889 -0.2073 -0.0444
29758W        W46605  13.709   4.684   4.554  0.2518 -0.1611  0.1072
29759W        W46606  15.076   6.763  11.572 -0.1723  0.2152 -0.1448
29760W        W46607   5.246   9.278   5.354  0.3290 -0.1805 -0.2365
29761W        W46608   9.275  10.368   1.622 -0.0308  0.0156  0.1227
29762W        W46609  18.405   4.368   1.834 -0.1317 -0.1874 -0.0074
29763W        W46610  10.331   9.590   2.747  0.1018  0.3908 -0.1798
29764W        W46611   9.911   2.615  12.444  0.0695  0.1772  0.1144
29765W        W46612  10.938  14.678  10.692  0.0044  0.3676  0.2189
29766W        W46613   1.939  14.493   1.689 -0.0538  0.3773  0.1143
29767W        W46614  13.593   3.371   0.677  0.2247 -0.2530 -0.0489
29768W        W46615  10.736   3.377   2.097 -0.0632  0.0602 -0.3496
29769W        W46616  10.074  14.666  14.106  0.0931  0.0440 -0.0236
29770W        W46617  17.482   7.919   0.068  0.0266 -0.3570  0.1637
29771W        W46618   2.588  14.967   4.731  0.0033  0.2229 -0.3038
29772W        W46619   0.333  13.690   0.928 -0.0037  0.2321  0.0243
29773W        W46620  17.232   0.049   5.317  0.0530 -0.0553  0.3580
29774W        W46621   5.169  11.416  12.830 -0.0015 -0.0944 -0.1018
29775W        W46622   8.626   5.461   0.759 -0.2429  0.1243 -0.1189
29776W        W46623   5.711  17.598   2.363 -0.0824  0.1546  0.0637
29777W        W46624  15.563   6.368   0.149  0.0861 -0.1091 -0.0179
29778W        W46625   7.283  16.408   5.625 -0.0800 -0.2550  0.1256
29779W        W46626   8.130  12.182   1.663  0.2589  0.3409 -0.1484
29780W        W46627   9.850  13.927   3.179 -0.1899  0.0555 -0.4812
29781W        W46628   7.770  11.461   4.287  0.0223 -0.1082 -0.2081
29782W        W46629  13.077  10.264  10.519  0.2110 -0.2323 -0.0891
29783W        W46630  16.833   8.557   0.268  0.2033  0.0989  0.1104
29784W        W46631   0.430  15.000   3.620  0.3196  0.1468  0.2033
29785W        W46632  15.826   2.307   0.900  0.0642  0.0452 -0.1370
29786W        W46633   2.499  18.277  12.857  0.1924  0.1221 -0.0539
29787W        W46634   1.666   3.141  15.070  0.0598 -0.0165  0.0101
29788W        W46635  17.829   3.894   4.204  0.1307 -0.0842 -0.3500
29789W        W46636  12.913   3.012  13.330  0.0909 -0.1382  0.3074
29790W        W46637   4.645  12.601   2.952 -0.1113  0.0770  0.0236
29791W        W46638  13.956   8.363   4.315 -0.2855  0.0047  0.0607
29792W        W46639  12.201  14.858  12.285 -0.0994  0.0515 -0.1294
29793W        W46640  11.786  12.549   1.535 -0.2349 -0.0213 -0.4255
29794W        W46641  17.611   2.548  11.938  0.0861  0.2047  0.0221
29795W        W46642   1.359  11.032  15.075  0.2166  0.2662  0.0842
29796W        W46643  17.456   1.751   3.999  0.2414  0.0039  0.1793
29797W        W46644   5.579  10.145  11.827 -0.2137 -0.1615  0.0894
29798W        W46645  11.514   2.305   5.026  0.1267 -0.1316  0.0991
29799W        W46646  17.025  12.538  11.341 -0.2302  0.1407 -0.0721
29800W        W46647   7.775  12.931   0.997  0.0266  0.3595  0.0284
29801W        W46648  17.175   7.069  13.130  0.0126  0.0200  0.1213
29802W        W46649   0.112  17.069   9.935 -0.3544 -0.0912 -0.0348
29803W        W46650  15.884   5.598  13.232 -0.1894  0.0367 -0.0878
29804W        W46651  10.801   9.646   0.650 -0.0909  0.1340 -0.0159
29805W        W46652   6.008  13.930  14.915  0.1807 -0.0090  0.0561
29806W        W46653  11.746  16.229  13.574  0.1469  0.2059  0.0444
29807W        W46654   5.053   9.930   2.445 -0.2125  0.0539 -0.0576
29808W        W46655  14.511   6.750  12.045 -0.2495  0.3717 -0.3418
29809W        W46656   9.842  10.075   1.075  0.0939  0.0523  0.0531
29810W        W46657   9.057  10.329   4.657  0.2319  0.3009  0.1433
29811W        W46658  16.166  12.875   3.176 -0.1736  0.3045  0.0424
29812W        W46659   6.713   2.467  14.770  0.4404 -0.2637 -0.1992
29813W        W46660  12.406  13.812   5.085 -0.0365  0.1761  0.2320
29814W        W46661  15.755   3.587   4.365  0.1072  0.0694  0.1169
29815W        W46662   1.547   0.551   0.331  0.1402 -0.2953  0.1049
29816W        W46663  11.644   8.299   4.440  0.2312 -0.0477  0.3618
29817W        W46664   8.340  18.731   1.656  0.0747  0.1187  0.0013
29818W        W46665   4.266  10.326   5.013  0.0752 -0.1904  0.0240
29819W        W46666   1.599   9.120   1.479  0.1394 -0.1096  0.3129
29820W        W46667   9.871  12.275  11.499  0.1222 -0.2337 -0.3777
29821W        W46668   0.041   9.018  15.047  0.0790  0.0815 -0.3595
29822W        W46669   9.566  10.350  13.977 -0.1190  0.1245  0.1667
29823W        W46670  18.001   0.782   1.063 -0.1809 -0.1871  0.0769
29824W        W46671   3.358   6.776   0.438 -0.2136 -0.3968 -0.2336
29825W        W46672   6.221   0.616   5.074  0.3412  0.2816  0.0848
29826W        W46673  15.517  10.483   0.379  0.1542 -0.2738 -0.2166
29827W        W46674   7.425  14.224   2.026  0.1287  0.0283 -0.2941
29828W        W46675  16.130  17.819   5.231  0.1156  0.2253  0.1903
29829W        W46676  12.506  13.301   0.395 -0.0697 -0.0440  0.1901
29830W        W46677   1.782   7.005   3.367 -0.1332  0.0309 -0.2621
29831W        W46678  14.940  14.686  12.627  0.0566  0.0190  0.1253
29832W        W46679  17.046  14.561  13.527 -0.0740  0.0082 -0.0240
29833W        W46680   5.762  16.045   4.665 -0.0253  0.3333  0.4461
29834W        W46681  14.328  10.204   3.561 -0.1395 -0.0440  0.1240
29835W        W46682   3.926  12.635  15.251 -0.2509 -0.0940  0.3263
29836W        W46683  10.574  14.300   1.878  0.1866 -0.2100 -0.0942
29837W        W46684  10.287  17.980   0.958 -0.0128 -0.1679 -0.1705
29838W        W46685   9.817  11.341   0.244 -0.1441 -0.0254 -0.0053
29839W        W46686  13.949  16.821   3.015  0.3753 -0.0695 -0.2399
29840W        W46687  11.077   1.293   3.127 -0.0002  0.2399 -0.0286
29841W        W46688  13.566   8.256  15.104  0.2915 -0.1410  0.0078
29842W        W46689   9.767  16.063  13.743 -0.0534 -0.1837 -0.1172
29843W        W46690   8.107   5.040  10.242 -0.1173  0.2293 -0.1986
29844W        W46691  17.467  14.847   1.717  0.1295 -0.0178 -0.0027
29845W        W46692  13.892   8.343  12.729 -0.4422 -0.5958  0.0184
29846W        W46693  12.219   3.429  13.846  0.1132  0.0191 -0.1247
29847W        W46694   7.387   1.010  12.657  0.0845  0.1274  0.1097
29848W        W46695   4.385  16.812   2.889  0.0947 -0.0516 -0.1534
29849W        W46696  16.159   2.914   0.213 -0.0550  0.1773 -0.0129
29850W        W46697   8.892   5.252  12.422 -0.2141  0.1989 -0.0736
29851W        W46698  11.784   1.450  15.130  0.0223  0.1344 -0.3536
29852W        W46699  14.316   9.457   1.770 -0.2699  0.3196  0.1351
29853W        W46700   0.183   9.919  11.702  0.0964  0.2741  0.0536
29854W        W46701   0.752  16.112   1.284 -0.1303 -0.0006  0.0133
29855W        W46702  12.945  18.512   2.007 -0.0096  0.0929 -0.1164
29856W        W46703   4.574  17.221  15.034 -0.0583  0.3625  0.1116
29857W        W46704   5.664  14.612   1.577  0.1133  0.1274 -0.2952
29858W        W46705  10.201   9.606   3.800  0.2701  0.1186 -0.3063
29859W        W46706  14.395   3.383  12.597 -0.3505 -0.1594 -0.0883
29860W        W46707  13.138   8.197  11.924  0.0707  0.3320  0.0399
29861W        W46708   7.130   5.007   2.503  0.0672 -0.1054 -0.1677
29862W        W46709  17.724   7.381  10.815  0.1854  0.0326  0.3160
29863W        W46710  15.420   3.631   2.423  0.2585  0.0212  0.2354
29864W        W46711  12.938  16.879   4.895 -0.1013  0.2091 -0.0732
29865W        W46712   8.217  11.343   1.024 -0.0741 -0.1235 -0.1124
29866W        W46713   8.497  17.088   0.365 -0.4591  0.1730  0.2129
29867W        W46714  11.687   3.179   1.674  0.1929  0.1015 -0.2979
29868W        W46715   3.976   0.835  13.826 -0.2503  0.0336 -0.1003
29869W        W46716   3.021  11.342  14.918 -0.1080 -0.0410 -0.1862
29870W        W46717  13.568   1.844  15.462 -0.0882  0.1752  0.2338
29871W        W46718  18.320   4.241  10.862  0.3924 -0.0347  0.0066
29872W        W46719  17.826   0.001  11.193 -0.2878  0.0230 -0.1677
29873W        W46720   2.686  17.306  14.651 -0.2062  0.2519  0.0799
29874W        W46721   3.759   8.832  14.898 -0.1703  0.2652  0.1282
29875W        W46722   7.872  10.877   3.592  0.3809  0.0718  0.0950
29876W        W46723  12.575  13.176  12.297 -0.0951 -0.1195 -0.0375
29877W        W46724  15.443  13.281  11.732  0.0295  0.1764 -0.3351
29878W        W46725   7.313   3.426  10.784 -0.0414 -0.0095 -0.1010
29879W        W46726  11.711  12.869  13.505 -0.1819 -0.2403 -0.0554
29880W        W46727  14.067   6.381  12.135 -0.2513  0.0207 -0.1020
29881W        W46728  17.519   7.199   0.218  0.1480 -0.1087  0.0857
29882W        W46729   1.864  15.662  14.577 -0.1836  0.1519 -0.1070
29883W        W46730   3.146   6.236   5.388  0.0298  0.0072 -0.2695
29884W        W46731   1.713  13.240  13.495  0.0007  0.4860 -0.0247
29885W        W46732  18.229  15.614   0.759  0.1532 -0.1012  0.1727
29886W        W46733   6.451   3.593   0.499 -0.1070  0.2899 -0.4008
29887W        W46734  17.645  18.332  11.671 -0.3481 -0.1385  0.1380
29888W        W46735   0.858  10.833   4.019  0.0996 -0.1937  0.1120
29889W        W46736   1.159  13.776   1.081  0.0050 -0.1107  0.2016
29890W        W46737   6.576  13.108  15.250 -0.4638  0.1029 -0.2487
29891W        W46738  17.059   8.695  12.326  0.1343  0.3194 -0.1456
29892W        W46739   0.384   9.648   4.141 -0.1248 -0.1859  0.0181
29893W        W46740   0.940  10.802  13.324 -0.0625 -0.2549 -0.0576
29894W        W46741   5.331   9.853  12.896 -0.0064  0.0077  0.0824
29895W        W46742   8.432  10.208  12.850 -0.2000  0.1053 -0.2531
29896W        W46743  15.295   9.900  14.662  0.2742 -0.2729 -0.0010
29897W        W46744  14.932   4.584   2.703 -0.1464  0.3338  0.0721
29898W        W46745  15.110   5.347  14.834 -0.0321 -0.2566 -0.1699
29899W        W46746  17.047   9.550   3.508 -0.0307 -0.0045  0.1185
29900W        W46747   5.957   0.787  15.483 -0.1482  0.1106 -0.1495
29901W        W46748   8.231   5.244   4.804  0.1718 -0.1211  0.0207
29902W        W46749  13.579   0.416  14.016 -0.1123  0.0104  0.0337
29903W        W46750  12.415   8.979  11.796  0.2214 -0.0360 -0.0731
29904W        W46751   4.445   9.847   2.937  0.1972  0.1431  0.1018
29905W        W46752   6.487   4.567  12.192  0.1298  0.1756 -0.1967
29906W        W46753  15.743   9.423  11.809 -0.2871 -0.1142 -0.1266
29907W        W46754   0.036  16.739   4.319 -0.0453 -0.2631  0.2024
29908W        W46755   6.114   7.386  13.780 -0.0618 -0.2684  0.1423
29909W        W46756   2.191   5.158   5.005 -0.1101  0.1366  0.2080
29910W        W46757  18.525   0.666  12.009  0.2559 -0.0751  0.2978
29911W        W46758  12.999  18.461  11.378  0.0466 -0.0577 -0.1213
29912W        W46759  14.792  15.209   1.248  0.1912  0.1270 -0.1017
29913W        W46760  16.943   4.871  14.334 -0.1943  0.1953  0.1687
29914W        W46761   9.487   8.264  13.756  0.3232 -0.3199 -0.0884
29915W        W46762  12.104   5.439   1.679 -0.1752  0.0667  0.1432
29916W        W46763   6.568  10.673   1.631 -0.0939  0.4799 -0.1051
29917W        W46764  13.963  14.341   2.286  0.2406  0.2195 -0.0332
29918W        W46765  13.792   3.747  14.739 -0.0775 -0.4781  0.1077
29919W        W46766  10.070   5.902   2.706 -0.0815  0.0724  0.0397
29920W        W46767   6.262   1.121   0.641  0.2578  0.0689 -0.1967
29921W        W46768   8.688   0.567  14.600 -0.2558  0.0635 -0.0265
29922W        W46769  14.039   9.801   3.026 -0.0083 -0.1272  0.0171
29923W        W46770   3.170  11.139  12.374  0.2668  0.3708  0.1515
29924W        W46771   3.749   8.716   3.632 -0.2039 -0.4068 -0.0599
29925W        W46772  18.592   2.149   4.621  0.0304  0.1737 -0.0034
29926W        W46773  12.837  13.778  11.820  0.0243  0.0683  0.1422
29927W        W46774  14.924  13.017   3.812 -0.2612  0.2529 -0.0406
29928W        W46775   5.896   0.216   1.821  0.2770  0.2391  0.1694
29929W        W46776  10.071  13.013   0.997 -0.0670 -0.1797 -0.2552
29930W        W46777  15.883  11.347   1.770  0.0324 -0.2501 -0.0453
29931W        W46778   3.911  16.096   3.743  0.1490 -0.0141 -0.3022
29932W        W46779  14.997  10.034   3.454 -0.2669  0.0937 -0.1849
29933W        W46780   0.026  13.067  12.274 -0.0385  0.1672 -0.0527
29934W        W46781  11.126  15.990   2.261 -0.0003  0.1407  0.4274
29935W        W46782   2.492   6.701   1.380 -0.1582  0.0658 -0.0122
29936W        W46783   3.815  18.197  12.155 -0.2272  0.0609  0.0756
29937W        W46784   2.035  13.008  11.186 -0.0564 -0.1902 -0.0743
29938W        W46785  17.962   4.356   1.691  0.1053 -0.0807 -0.0118
29939W        W46786  15.972   3.187   1.300  0.0357 -0.2338  0.1668
29940W        W46787  18.087   8.893  11.211 -0.2983 -0.4047  0.1245
29941W        W46788  11.009   6.487  12.616  0.2060 -0.0417 -0.1900
29942W        W46789  14.114   3.174   2.561  0.0842 -0.3393 -0.0599
29943W        W46790   3.711  16.924  14.907  0.2961  0.1679  0.2560
29944W        W46791  10.032  12.543   1.180 -0.0753 -0.1053  0.2740
29945W        W46792   5.629  11.329   4.524  0.0887  0.1707  0.0616
29946W        W46793  10.044  13.274   3.706 -0.1296  0.3112  0.0615
29947W        W46794  10.729  17.462   3.808 -0.2510  0.0516  0.0041
29948W        W46795   2.568   7.047   3.773 -0.1233  0.2663 -0.0804
29949W        W46796  16.562   0.688  12.372  0.2423 -0.1666  0.2103
29950W        W46797   3.962   8.595   2.156  0.0435  0.0280 -0.0024
29951W        W46798  17.415  10.476   2.265 -0.1402 -0.2144 -0.0019
29952W        W46799   3.677   4.400  12.632 -0.0954 -0.0361  0.1017
29953W        W46800   0.483  17.198  13.266  0.0333 -0.1644 -0.0990
29954W        W46801   3.792  18.083   1.707  0.2526 -0.0620  0.3859
29955W        W46802   7.320  10.127   0.358  0.3727 -0.1504  0.3642
29956W        W46803  15.591  12.132  14.035  0.2930 -0.3235 -0.2937
29957W        W46804   4.489  12.506  15.329 -0.0717 -0.0996 -0.0239
29958W        W46805  10.940   4.405   0.952  0.4718 -0.0955 -0.1421
29959W        W46806   2.191  17.509   0.477 -0.2987 -0.3301  0.5365
29960W        W46807  10.649  12.912   0.553 -0.1525  0.0438 -0.0976
29961W        W46808   2.365  12.616  13.877  0.0358  0.0733 -0.0739
29962W        W46809  13.464  14.842   1.366  0.1011  0.0893 -0.0279
29963W        W46810   5.704   8.605   1.920 -0.0249 -0.0836  0.1649
29964W        W46811   5.721  10.501   2.079  0.2116 -0.0815  0.1909
29965W        W46812   4.576   6.239  12.965 -0.0871  0.1711 -0.2644
29966W        W46813   1.421   8.719  13.629 -0.1940  0.2599 -0.1919
29967W        W46814  18.241   1.422   6.143 -0.1467 -0.2590 -0.1085
29968W        W46815  11.922   7.793   0.541  0.3455 -0.2696  0.2757
29969W        W46816   3.548   9.632   1.001  0.0574  0.0183 -0.1346
29970W        W46817  11.300   6.944   2.841  0.2662  0.1951 -0.1919
29971W        W46818   9.732  12.727  10.718  0.1971 -0.0191 -0.0142
29972W        W46819   7.469   7.628   4.768  0.4966 -0.4926  0.1963
29973W        W46820   8.126   8.452  11.583 -0.4956  0.0682 -0.0761
29974W        W46821  12.348  18.460  10.942 -0.2385  0.0185  0.0595
29975W        W46822   4.080  18.656   3.943 -0.2757  0.0389 -0.1101
29976W        W46823   2.786  18.779  11.513  0.1800 -0.1985  0.1068
29977W        W46824  18.097  12.320  13.886  0.0442  0.0940  0.0625
29978W        W46825  13.357   9.657   2.600 -0.0229 -0.1057  0.2099
29979W        W46826   5.290  11.860   1.976 -0.3603  0.2021 -0.0934
29980W        W46827   7.877  18.187  15.516 -0.0503 -0.2900  0.1162
29981W        W46828   6.156   0.884   1.073  0.1134  0.1152 -0.0134
29982W        W46829  12.670   2.851   1.669  0.2548  0.4641 -0.2120
29983W        W46830  18.471  10.370   5.757  0.0676 -0.0915  0.1338
29984W        W46831  16.992  12.880   0.154  0.4023 -0.2429 -0.2423
29985W        W46832  16.356  17.556  13.655  0.2045 -0.0890  0.0189
29986W        W46833  13.596  16.865  13.797  0.0119  0.3352  0.1253
29987W        W46834   9.564  15.213   1.099  0.1517 -0.1770 -0.3638
29988W        W46835   2.325   4.184  11.041 -0.0272 -0.2379  0.0415
29989W        W46836  18.599   4.486   3.706 -0.0285  0.0805 -0.0321
29990W        W46837   9.511   4.781   1.470  0.0872 -0.0344 -0.1406
29991W        W46838   8.284  15.889  15.362 -0.1327  0.0477  0.0785
29992W        W46839   1.729   8.132   4.626  0.0935 -0.3001 -0.0430
29993W        W46840   1.095  18.607   0.514 -0.0156  0.0108  0.2401
29994W        W46841   5.502   9.445  12.593 -0.0797  0.0594  0.0206
29995W        W46842  18.438  16.415  10.375  0.3233  0.1814  0.0528
29996W        W46843  14.427   4.221  15.389  0.0744  0.1168 -0.2058
29997W        W46844  15.871   2.097  13.649  0.1256 -0.1619 -0.0018
29998W        W46845   7.198  11.136   4.296  0.1484 -0.1399  0.2866
29999W        W46846   4.875   8.050   2.152  0.0903 -0.0463  0.1130
30000W        W46847   9.139   4.641  13.135  0.0840 -0.2024  0.2440
30001W        W46848   3.556   8.286   1.562 -0.0529  0.0078  0.1408
30002W        W46849   3.934   2.161  15.106  0.1576  0.0625  0.0133
30003W        W46850  10.860  11.295   0.508  0.2589  0.0671  0.0963
30004W        W46851  11.497  15.862  15.373  0.4924  0.0908 -0.2471
30005W        W46852  11.066  10.976  11.043  0.0568  0.1430  0.0186
30006W        W46853  10.660  13.006   4.633 -0.1232  0.0396 -0.2685
30007W        W46854  15.737  12.633  13.842 -0.2505  0.1283 -0.1782
30008W        W46855   6.453   3.770   3.826 -0.0405  0.0497  0.0667
30009W        W46856   6.111   8.058  10.821 -0.2601  0.3268 -0.3445
30010W        W46857   8.947   0.425  12.544  0.0120  0.1101 -0.0473
30011W        W46858  12.951   4.327   5.030 -0.1160  0.2110 -0.3278
30012W        W46859   6.575   9.856   1.791 -0.0427 -0.0085  0.3644
30013W        W46860  12.496  11.228  15.342  0.0828  0.1831  0.3552
30014W        W46861  16.012   6.442   3.995  0.1826 -0.0472  0.1892
30015W        W46862   4.275  12.162  13.938  0.4579 -0.0851 -0.0459
30016W        W46863  15.624  14.646   4.731 -0.0653 -0.2721  0.2146
30017W        W46864   2.057   7.302  13.587  0.2877 -0.1819 -0.0311
30018W        W46865   0.457  11.742   0.318 -0.0243  0.0155 -0.2000
30019W        W46866   8.141   4.921  13.080 -0.2005  0.0551 -0.0308
30020W        W46867   0.048   3.795   4.169  0.0756 -0.0082  0.0052
30021W        W46868   3.303  14.868  14.996 -0.0491 -0.1216  0.0622
30022W        W46869   8.651  18.383   1.477  0.0844 -0.1139  0.2006
30023W        W46870  18.531   0.246   0.486  0.0076 -0.3197 -0.0730
30024W        W46871   6.931   9.455  12.696  0.2322 -0.0752  0.0107
30025W        W46872  14.698   1.907   1.707 -0.3392 -0.1067  0.1424
30026W        W46873  11.425   7.933  15.390  0.0229  0.0720 -0.0510
30027W        W46874   4.563   0.191   2.215  0.0188  0.0168  0.0426
30028W        W46875  10.278   6.246  13.228 -0.1540 -0.0180 -0.3061
30029W        W46876  18.674  17.065   0.165  0.1814  0.2129  0.1104
30030W        W46877  16.017   5.715   4.741 -0.0138  0.2212 -0.2030
30031W        W46878   2.004  14.087  13.948 -0.4282 -0.4841 -0.1613
30032W        W46879   7.387   1.979   2.523  0.0029 -0.1125 -0.0021
30033W        W46880   4.701  15.498   3.551  0.0116 -0.2015 -0.4115
30034W        W46881   1.347  12.864  11.971 -0.2187 -0.1025 -0.2404
30035W        W46882   3.235   4.761   2.122 -0.0499  0.0739  0.3874
30036W        W46883  15.049  18.682  12.188 -0.1198  0.0293  0.0011
30037W        W46884  17.484  13.384  12.535 -0.1651 -0.2978 -0.1961
30038W        W46885   7.774   5.042   5.018  0.0134  0.2170 -0.1731
30039W        W46886  16.688   3.415  13.998  0.2368 -0.2721  0.0063
30040W        W46887   6.210   1.984  12.354 -0.2213  0.0781  0.1880
30041W        W46888   7.443  10.412   1.330  0.2178  0.4891  0.3352
30042W        W46889   3.791   2.224  13.156 -0.0866  0.0474  0.2547
30043W        W46890   4.704  11.153   3.137  0.2672  0.0655  0.1430
30044W        W46891  17.411  15.042  11.268  0.3668 -0.1685 -0.2959
30045W        W46892  12.518  10.127   0.717 -0.1839  0.2484 -0.2984
30046W        W46893   0.141   7.664  12.225  0.2437  0.0573  0.2069
30047W        W46894   2.341  12.825  11.572 -0.1813  0.1091  0.3331
30048W        W46895   8.830   9.807  13.086 -0.0607 -0.0751  0.1069
30049W        W46896   7.390  12.647  11.689  0.1151 -0.1479  0.0260
30050W        W46897  16.792   7.399   4.362  0.4123 -0.0682  0.0390
30051W        W46898  10.643   1.563   4.732 -0.1846 -0.0788  0.2405
30052W        W46899   0.286   9.841   1.899 -0.0623 -0.0111 -0.0039
30053W        W46900  11.908  18.474   0.585  0.0035 -0.1921  0.2594
30054W        W46901  16.323   2.105  15.292 -0.0280 -0.3764 -0.2303
30055W        W46902  17.283   0.967  14.860  0.2333  0.1861 -0.1465
30056W        W46903  10.546   0.933   1.525 -0.3239 -0.2954  0.1368
30057W        W46904   0.339  14.947   2.615  0.1333 -0.0520 -0.2553
30058W        W46905  14.102   9.469   0.893  0.3982 -0.0541 -0.4860
30059W        W46906  12.632   5.289  12.324  0.0765 -0.1554 -0.4002
30060W        W46907   5.345   1.531  12.662  0.0632  0.0522 -0.0027
30061W        W46908  17.774  18.005  14.824  0.2223  0.2758  0.0471
30062W        W46909  10.871   8.671  13.306 -0.1264 -0.0938  0.5384
30063W        W46910   5.996  16.105  13.486 -0.1204 -0.3434 -0.1485
30064W        W46911   8.463   2.447  12.411  0.3076 -0.0412 -0.2915
30065W        W46912   3.750   6.831   3.858 -0.2770  0.1933  0.1678
30066W        W46913   0.863  17.206   0.268 -0.0734  0.0319  0.1774
30067W        W46914   7.455  15.797  14.780 -0.2067  0.0248 -0.1355
30068W        W46915   2.231  16.019  11.757 -0.0319  0.2264 -0.1613
30069W        W46916   7.063  16.921   0.041 -0.1618 -0.2367 -0.1467
30070W        W46917  16.819  18.207   3.960  0.0746 -0.1179  0.2573
30071W        W46918  17.652   3.132   1.653 -0.0960 -0.0804 -0.1275
30072W        W46919   2.723  14.077   1.473  0.0413  0.2321 -0.0871
30073W        W46920   3.937  11.434  14.663  0.1852  0.1493 -0.1917
30074W        W46921  16.469   6.030   0.006  0.0793 -0.0569 -0.0757
30075W        W46922   3.659   7.099   0.803 -0.2741 -0.0348 -0.2463
30076W        W46923  14.877  11.930   2.192 -0.0664  0.2864 -0.0733
30077W        W46924   1.788   8.386   2.064  0.0307  0.0452 -0.0359
30078W        W46925  17.712  18.469   3.533 -0.2814  0.0062  0.3304
30079W        W46926  17.972  15.757  13.486  0.1956 -0.1133 -0.1795
30080W        W46927   0.489   3.860   2.939  0.1707 -0.0877 -0.0099
30081W        W46928   0.594   4.464  12.987 -0.2248 -0.1278  0.3511
30082W        W46929  16.885  15.678  15.048  0.2537 -0.0922  0.1332
30083W        W46930  17.300  12.684   4.106 -0.2017 -0.3399 -0.3126
30084W        W46931  16.396   0.788   1.230 -0.1005 -0.2613 -0.0677
30085W        W46932   9.122   8.629   0.652  0.0243  0.0039  0.0980
30086W        W46933  13.225   1.056   4.455  0.1532  0.0781 -0.3265
30087W        W46934   9.038   0.389  10.973  0.0462 -0.4098  0.2328
30088W        W46935  17.743   4.579   5.127  0.1020  0.0355 -0.0907
30089W        W46936   6.877  10.287   1.585  0.0909 -0.1407  0.1346
30090W        W46937   0.597   4.427   2.470  0.4125  0.3998 -0.2054
30091W        W46938   9.246  14.547   4.348  0.0385  0.0488 -0.3685
30092W        W46939  14.052   3.988   3.554  0.0269  0.2752 -0.0874
30093W        W46940   5.951  13.987  13.164  0.2049  0.1792 -0.1247
30094W        W46941  12.965  12.814   2.404 -0.0970 -0.1455  0.1565
30095W        W46942   8.196   4.282   5.131  0.0228  0.0563 -0.1541
30096W        W46943   6.904  12.389  13.491  0.0801  0.1105  0.2238
30097W        W46944   5.935   1.154   2.090  0.0764  0.2050  0.1511
30098W        W46945   1.382   3.355  13.047 -0.1503  0.1761 -0.0636
30099W        W46946   5.241   4.669   4.517  0.1780  0.0846 -0.2424
30100W        W46947   7.667  16.983  14.108  0.0730 -0.0717 -0.5316
30101W        W46948  15.857   8.139  10.151  0.0201  0.4230  0.1729
30102W        W46949   2.845   4.479  12.500 -0.0920 -0.1431  0.1436
30103W        W46950  16.156  13.622   5.120  0.2173  0.3385  0.0071
30104W        W46951   1.475  18.010   2.495 -0.3949  0.0242  0.4340
30105W        W46952  10.623   8.956   1.873  0.1808  0.0096 -0.0829
30106W        W46953  15.205   1.095  15.002 -0.2151 -0.2357 -0.0850
30107W        W46954   3.635   4.986  12.212  0.1904  0.0855  0.1451
30108W        W46955  10.611   1.580   0.918  0.2732 -0.4124 -0.0244
30109W        W46956   0.675  17.065   1.188 -0.0657 -0.1091 -0.0003
30110W        W46957   5.763   9.227   4.645 -0.3369  0.0861 -0.1899
30111W        W46958   1.656  17.153   2.244 -0.2012 -0.0169  0.3111
30112W        W46959   0.366  15.848  15.340 -0.0110 -0.0444  0.2801
30113W        W46960  11.167   4.078  11.421  0.1202  0.0235  0.2471
30114W        W46961   4.071  10.765  15.274 -0.2929  0.2547 -0.0827
30115W        W46962   9.901   4.383  11.683 -0.0724 -0.0094 -0.4143
30116W        W46963  14.365   9.599  13.283 -0.1213 -0.2633  0.2277
30117W        W46964  16.556  14.221  14.963  0.3193 -0.0495  0.1363
30118W        W46965  16.246  11.146  11.177  0.1507 -0.2560 -0.1575
30119W        W46966   5.457   7.769  15.140 -0.1439 -0.0970  0.0387
30120W        W46967  14.793  15.284  14.084 -0.1066  0.1171  0.1163
30121W        W46968  17.720   2.140  13.624 -0.0780  0.0144  0.1491
30122W        W46969   0.055  15.475  12.517  0.1029 -0.0663 -0.2826
30123W        W46970  17.906  11.125  14.138  0.2007 -0.0829  0.0065
30124W        W46971  11.375  13.652  14.970 -0.0918  0.2842 -0.1044
30125W        W46972  18.533  10.613  13.623 -0.1275  0.1996  0.2689
30126W        W46973  10.797  17.013  13.274 -0.0745 -0.3047  0.2144
30127W        W46974   3.585   2.919   2.046 -0.0412 -0.0543 -0.0450
30128W        W46975  13.255  15.426  15.163 -0.4804  0.2037  0.0532
30129W        W46976  13.787   7.442   4.382 -0.0110 -0.0131 -0.0278
30130W        W46977  11.701   3.855   3.817  0.0190 -0.2891  0.0978
30131W        W46978  12.179  10.347  14.276  0.0616  0.1598 -0.1459
30132W        W46979   5.620  16.694   0.172 -0.1734  0.1001  0.4676
30133W        W46980   7.647   5.491   1.154  0.0189  0.0376  0.1890
30134W        W46981  15.707   2.833   2.211 -0.1573  0.0847 -0.2142
30135W        W46982  18.285   9.991  13.131  0.0396 -0.2443  0.1884
30136W        W46983   7.550   7.521   0.965 -0.0832  0.1193 -0.1557
30137W        W46984   9.140   0.186   2.795  0.2244  0.1469  0.1064
30138W        W46985  17.024   0.085  12.766 -0.0056 -0.1842  0.0567
30139W        W46986  10.830  10.149   3.487 -0.4739  0.1145  0.1685
30140W        W46987  16.533   6.417  15.213 -0.2938 -0.0739 -0.2313
30141W        W46988  14.533  18.549  11.312  0.5466  0.0891 -0.3898
30142W        W46989  10.642  16.596  13.415 -0.3082 -0.0888 -0.1265
30143W        W46990   8.129  10.868  15.334  0.3583  0.0656  0.1306
30144W        W46991   0.165  10.977   5.437  0.2162  0.0809  0.1252
30145W        W46992  14.085  10.262  11.335  0.0904  0.1962  0.0171
30146W        W46993  13.857   1.943   3.913 -0.0572  0.0947  0.1613
30147W        W46994  11.328  16.526  14.293 -0.1369  0.1109 -0.0256
30148W        W46995  13.400  13.781  13.814  0.1224 -0.1369 -0.0274
30149W        W46996   0.382   1.641  14.262  0.2389 -0.1051  0.2093
30150W        W46997   5.185   0.888  14.988 -0.0799  0.3287  0.0544
30151W        W46998  11.158  14.050  13.215  0.1825  0.1097  0.2625
30152W        W46999   9.371  17.273  14.813  0.2426 -0.0350  0.1173
30153W        W47000   1.432   4.900   1.033 -0.0907 -0.0641 -0.2998
30154W        W47001   6.454  14.971  15.143  0.2394 -0.2338  0.2579
30155W        W47002   6.219   5.858   4.078 -0.1299 -0.1841  0.2263
30156W        W47003  17.241   8.751   3.042 -0.1145  0.2202 -0.1037
30157W        W47004   3.367  10.081  15.397 -0.1665  0.1495  0.1121
30158W        W47005  16.957   7.254  14.611 -0.3722  0.2435 -0.1013
30159W        W47006  13.890  12.875   3.942  0.0613 -0.1295 -0.1563
30160W        W47007  13.118   8.589   0.705 -0.0522  0.1311  0.2646
30161W        W47008  14.175  11.928   5.308  0.3809 -0.2704  0.0874
30162W        W47009   8.225   3.830   4.725 -0.0751 -0.0314  0.1995
30163W        W47010   5.278   9.297   4.433  0.1368 -0.0951  0.0189
30164W        W47011   9.256  12.571   0.870  0.2549 -0.0797 -0.1332
30165W        W47012   9.848   0.827  12.057  0.2102 -0.4005  0.1135
30166W        W47013  17.527  14.153   5.681  0.0667  0.1491  0.0750
30167W        W47014   8.956  17.759  11.505  0.2715  0.1870 -0.2752
30168W        W47015  17.037  15.403   5.513 -0.3913  0.1929 -0.1398
30169W        W47016  11.399  11.167   4.704  0.0092 -0.1148  0.1578
30170W        W47017  15.001   6.198  14.366  0.0338 -0.0119  0.0430
30171W        W47018  11.770  14.482   0.600  0.0250 -0.0852  0.3058
30172W        W47019   4.393   5.528   5.218  0.2335  0.0204  0.1230
30173W        W47020   8.653   5.889  13.844 -0.0535 -0.0228  0.3081
30174W        W47021   1.821   7.707  13.425 -0.2458  0.1644  0.1818
30175W        W47022   6.600   4.706   3.412  0.0218 -0.0554 -0.0193
30176W        W47023   8.812   0.823   3.302  0.0828 -0.0455 -0.2378
30177W        W47024  12.093  12.006   3.738  0.3177  0.0196 -0.0395
30178W        W47025   6.058   3.439   3.757 -0.2770 -0.1175  0.3299
30179W        W47026  11.118   9.029   4.026  0.1421  0.0011 -0.1082
30180W        W47027   8.600  11.414   0.647  0.0687  0.1054 -0.0630
30181W        W47028   6.404  15.283   4.561 -0.0344  0.0529 -0.1241
30182W        W47029   1.764   2.491   1.957 -0.3796 -0.2462 -0.1356
30183W        W47030   4.850   4.688  12.968  0.1561  0.0082 -0.1895
30184W        W47031  11.118   3.807   5.655  0.0116 -0.3127  0.2333
30185W        W47032  18.583   6.071  11.678 -0.0447 -0.0960  0.1861
30186W        W47033   8.162   4.723  12.582  0.3957  0.1362  0.0860
30187W        W47034   6.119   9.609   2.305  0.0195 -0.3153  0.0186
30188W        W47035  14.634  12.860  12.936 -0.0403 -0.2346 -0.2036
30189W        W47036   9.664  10.843  11.771 -0.2347  0.1289  0.0312
30190W        W47037  10.184   5.831  10.636  0.0046 -0.0227  0.1310
30191W        W47038   2.609   9.965   0.759 -0.0268  0.0171 -0.0343
30192W        W47039   0.207   8.577   1.302 -0.0397  0.2736  0.0659
30193W        W47040   3.177   4.822  14.850 -0.1498  0.2945  0.1255
30194W        W47041  16.348  15.478   3.654  0.2112  0.1250 -0.0189
30195W        W47042  15.962   2.102   0.104  0.1701 -0.0024 -0.2903
30196W        W47043   0.823  12.061  12.034  0.0165 -0.2850 -0.1072
30197W        W47044  18.288   1.443   4.658  0.0026  0.2232  0.2570
30198W        W47045  10.732  10.224  12.601 -0.0114  0.0558 -0.0235
30199W        W47046  11.859  16.156  14.651 -0.0604 -0.0386  0.1436
30200W        W47047   4.246  13.868  12.685 -0.2269 -0.2148 -0.0133
30201W        W47048   8.188   3.149   4.754 -0.2076 -0.0291  0.0066
30202W        W47049   3.152   1.621  14.876 -0.0741  0.0793  0.1915
30203W        W47050  13.180   7.849  13.768 -0.1001  0.0670  0.1783
30204W        W47051  11.586  15.859   2.104  0.0436  0.1820  0.0746
30205W        W47052   4.051   8.034  12.713  0.1712 -0.2856  0.0125
30206W        W47053   4.856   4.398  11.386  0.1335  0.0963 -0.3267
30207W        W47054   7.394   4.094   0.985  0.0446 -0.0089 -0.4523
30208W        W47055   7.156  10.727   4.612  0.0245  0.3615  0.0745
30209W        W47056  17.129  11.288   2.829  0.0893 -0.0203 -0.0492
30210W        W47057  10.703   6.374  14.408 -0.2549  0.0239 -0.1974
30211W        W47058   0.172  18.071  12.815 -0.0819 -0.2227 -0.1066
30212W        W47059   8.841   5.906   4.720 -0.1973 -0.1550  0.2423
30213W        W47060   0.098   0.309   3.742  0.0805 -0.2377  0.1552
30214W        W47061   6.640  16.158   4.557  0.1073 -0.1670  0.1562
30215W        W47062   2.825  12.711   2.507  0.0723 -0.0386 -0.3345
30216W        W47063   2.970   8.941   0.799 -0.0780  0.0412 -0.0962
30217W        W47064   3.531   7.436   4.598 -0.0077 -0.0174 -0.0179
30218W        W47065  15.699  17.781   3.768 -0.0832 -0.1799  0.0194
30219W        W47066  18.212   3.550   0.277  0.2264  0.2013 -0.1577
30220W        W47067  13.784   2.937   0.825  0.1807 -0.2737 -0.1497
30221W        W47068   7.888   3.081   5.323  0.1536  0.0993  0.1272
30222W        W47069   4.080  13.759  11.366  0.1333 -0.1141 -0.0070
30223W        W47070  16.209   7.515  10.943  0.0600 -0.1964  0.2171
30224W        W47071   5.829   5.972  11.064 -0.0298  0.1750 -0.0284
30225W        W47072   2.963  15.279   2.967 -0.5178 -0.2547 -0.1091
30226W        W47073  16.992   7.711  14.396 -0.2230 -0.0788 -0.1115
30227W        W47074   3.974  12.202   3.446 -0.0653  0.1852 -0.0946
30228W        W47075   4.059   9.016   3.283 -0.0625  0.2750 -0.2083
30229W        W47076  15.119  17.206   1.370 -0.0585  0.1778 -0.0057
30230W        W47077   0.321  16.852  12.314 -0.1354  0.4317 -0.1177
30231W        W47078  17.772   1.172   0.131 -0.0133 -0.1284 -0.1535
30232W        W47079   5.328   5.852   3.536 -0.3696 -0.2476  0.3847
30233W        W47080   7.751  15.460   0.795  0.1589  0.1652 -0.0503
30234W        W47081   5.145  13.233  11.283  0.2448 -0.3109  0.0525
30235W        W47082  17.719  13.056  14.934 -0.0014 -0.0228 -0.2504
30236W        W47083  12.722   1.773  14.666 -0.0238  0.0938  0.1186
30237W        W47084  17.122  12.383  14.125  0.1053 -0.1077  0.1601
30238W        W47085  18.496  11.530  11.387 -0.1712  0.0088  0.2275
30239W        W47086  18.658   9.664  14.357 -0.1564  0.2579 -0.0062
30240W        W47087   1.845   0.550   3.921  0.2165 -0.0689 -0.1920
30241W        W47088  12.026   3.928   6.036 -0.2542  0.0916 -0.1186
30242W        W47089   7.827   2.676   4.569 -0.3394 -0.1884 -0.1175
30243W        W47090   8.522  15.625  12.103 -0.2495  0.0069 -0.0744
30244W        W47091  13.534  18.120  12.141  0.2551  0.2472  0.4583
30245W        W47092   1.343   2.254   3.914  0.1391  0.1050  0.0873
30246W        W47093  16.229  18.823  15.514 -0.0373 -0.0292  0.0306
30247W        W47094   5.150  11.905  12.693  0.0047 -0.1685 -0.0205
30248W        W47095  11.483   5.349   4.931  0.1210 -0.0965  0.2497
30249W        W47096   2.617  14.350  10.852  0.0477 -0.1369 -0.0713
30250W        W47097  14.921   8.554  12.342  0.1784 -0.2143  0.4889
30251W        W47098  13.037  18.476  15.144  0.0225  0.0621 -0.0926
30252W        W47099   9.854   2.605   1.094 -0.3616 -0.1322  0.1675
30253W        W47100  15.318   6.837   4.414  0.0610  0.1714 -0.1888
30254W        W47101  14.233  12.834  15.465 -0.0419 -0.0322 -0.2871
30255W        W47102   8.372  14.072   4.429 -0.1406 -0.0666  0.0033
30256W        W47103  14.628  15.644   2.945  0.2455 -0.6797 -0.5780
30257W        W47104   1.273   6.289   1.405  0.2285  0.1320 -0.0317
30258W        W47105   0.394   2.013   2.459 -0.4896 -0.0442 -0.0656
30259W        W47106   8.290  14.358  13.523  0.1144 -0.0174 -0.0660
30260W        W47107  13.352  12.922   4.879  0.0799 -0.0076  0.1333
30261W        W47108   1.975   1.836  15.486  0.0678 -0.1842 -0.2045
30262W        W47109  15.576  17.698  15.187  0.1310  0.2985  0.2721
30263W        W47110  10.843  13.392   2.511 -0.0221  0.3987  0.3539
30264W        W47111   6.872  17.584   1.642 -0.3925 -0.2131 -0.0702
30265W        W47112   3.134   1.437   2.744 -0.0168  0.0327 -0.0929
30266W        W47113   8.224   4.272   2.579  0.0317 -0.0678  0.1440
30267W        W47114  16.262  18.576  14.513 -0.1321 -0.0230 -0.2075
30268W        W47115   7.435  15.921   3.626  0.0218  0.1192  0.0250
30269W        W47116   6.935  14.379   3.151  0.1287 -0.0430 -0.2471
30270W        W47117   7.169   0.168  12.061  0.0291  0.0152 -0.1481
30271W        W47118   1.219  17.223  12.058 -0.0221  0.0288  0.1152
30272W        W47119   0.147  11.025   3.840  0.2010 -0.0201  0.6055
30273W        W47120   2.002  18.636   3.839 -0.0382  0.1169 -0.0443
30274W        W47121  14.660   2.119  14.927  0.0936  0.1188  0.0941
30275W        W47122   4.668   8.404  11.781 -0.0009 -0.4434  0.3943
30276W        W47123   7.766  11.781  13.421  0.0452  0.0226  0.0634
30277W        W47124  17.539  13.374  15.346  0.2079  0.1775 -0.1283
30278W        W47125   4.915   7.473  13.223 -0.1472 -0.0456  0.1270
30279W        W47126  12.590  10.368   5.224 -0.3335 -0.0367 -0.1805
30280W        W47127   3.076   2.206  14.632 -0.0974 -0.2804  0.0800
30281W        W47128  15.356   6.515  14.830  0.1829 -0.3252  0.1001
30282W        W47129  14.152  16.592  14.077 -0.0313  0.0945 -0.0685
30283W        W47130  15.997   0.124  15.010  0.0329 -0.0077 -0.1105
30284W        W47131   9.700   1.609  15.019 -0.0750  0.2537  0.0117
30285W        W47132  14.655   5.092  12.217 -0.4294 -0.2802  0.1244
30286W        W47133   0.525  15.715   4.676 -0.0392  0.0779  0.1523
30287W        W47134   4.926   0.929   4.454  0.1758 -0.0477  0.1060
30288W        W47135  15.672  11.506   4.077 -0.2069 -0.0476  0.1660
30289W        W47136   5.728   7.567   1.919 -0.0852 -0.0969  0.0701
30290W        W47137   8.678  11.394  14.798  0.2138 -0.0791 -0.3532
30291W        W47138   7.657   5.417  15.441  0.0094  0.0994  0.0674
30292W        W47139  10.010   6.027   3.789  0.0115 -0.0917  0.1432
30293W        W47140   6.060  17.714   5.103 -0.0676 -0.1415 -0.1427
30294W        W47141  15.598  11.792  11.896 -0.0475  0.1513  0.2830
30295W        W47142  18.480  10.858  12.096 -0.0098  0.1399 -0.0141
30296W        W47143  11.468  10.599  11.875  0.2317 -0.0543  0.0015
30297W        W47144  15.567  15.352   5.200  0.5916  0.2517  0.0399
30298W        W47145  13.973  11.493  14.131  0.3644 -0.2065  0.1284
30299W        W47146   9.222   0.332   5.830 -0.0336 -0.0396  0.0547
30300W        W47147   6.809   1.339  11.650 -0.2892  0.0557  0.2362
30301W        W47148   9.443  17.025   2.569 -0.1183 -0.1041 -0.0695
30302W        W47149  11.854   7.936  12.883  0.1202  0.1795  0.0424
30303W        W47150   2.886   0.631   3.146  0.2221  0.1078 -0.1370
30304W        W47151   2.285  14.715   5.062 -0.0102  0.0592  0.0506
30305W        W47152  14.894   6.515   4.503 -0.2470 -0.3279  0.3376
30306W        W47153  13.591  13.370  10.212  0.1296  0.1683 -0.0678
30307W        W47154  13.448   0.458   5.581 -0.1573 -0.2804 -0.1449
30308W        W47155   8.891  17.381  15.507  0.2966 -0.1658  0.1204
30309W        W47156  16.140   5.267  14.055  0.1720 -0.0765 -0.1345
30310W        W47157   3.533   9.868   2.680 -0.0114  0.2178 -0.1969
30311W        W47158  15.324   5.168   4.062 -0.3230  0.0748 -0.0495
30312W        W47159   0.067  13.040  10.918  0.1633  0.0905  0.0310
30313W        W47160   4.640   7.995  11.305  0.3416  0.1667  0.0746
30314W        W47161   4.434  10.801  12.189 -0.2817 -0.1220  0.0332
30315W        W47162   4.218  17.535  15.193  0.1128  0.0195  0.0274
30316W        W47163   1.357  16.496  14.754 -0.1149  0.1403 -0.2685
30317W        W47164   6.871  12.030  13.152  0.2630  0.0230  0.2414
30318W        W47165  11.327  10.946  14.276  0.0930  0.3869 -0.0362
30319W        W47166  18.575   2.737  14.023  0.0432 -0.1074  0.1821
30320W        W47167  13.190  14.777   2.753  0.0401  0.2553 -0.1040
30321W        W47168  13.377  11.500  14.981  0.0210  0.2237 -0.1208
30322W        W47169   9.824   6.466  13.254 -0.1846 -0.0397  0.1661
30323W        W47170   0.669  14.197   1.707  0.2699 -0.0314 -0.0149
30324W        W47171   9.421  17.761  12.439 -0.2247  0.0301 -0.1485
30325W        W47172  16.516  15.243  12.330  0.1534 -0.4570  0.0385
30326W        W47173  14.285   9.737  13.798 -0.1914  0.1375 -0.0010
30327W        W47174   2.288   9.907  14.505  0.0899 -0.2271  0.2415
30328W        W47175   8.564   3.465   4.868  0.0407  0.1184 -0.1447
30329W        W47176  12.278   7.831  14.127 -0.2453  0.0137 -0.3738
30330W        W47177  14.234   8.334  14.729 -0.1100 -0.1313 -0.2012
30331W        W47178  17.509   4.028   4.603  0.2093  0.1665  0.1101
30332W        W47179   0.795   1.849  10.407  0.4485  0.3197  0.3423
30333W        W47180  13.512  16.504  11.213  0.1339 -0.3733 -0.0997
30334W        W47181   8.162  12.600  10.048  0.1667 -0.3774 -0.0114
30335W        W47182   4.026  14.954  10.689  0.0062  0.4011 -0.2042
30336W        W47183   8.499   1.265   4.677  0.3242 -0.3215  0.0202
30337W        W47184   8.174  15.410  15.533 -0.2607  0.0377  0.0610
30338W        W47185   7.080  10.577   0.444 -0.2052 -0.0117 -0.2965
30339W        W47186  13.776   5.482   0.607  0.5961  0.1614 -0.2607
30340W        W47187   2.131   3.965  15.273  0.2187 -0.0030 -0.0348
30341W        W47188  13.650  18.036  13.880  0.1334 -0.0047 -0.0941
30342W        W47189   7.385   3.497   2.313 -0.1316  0.4321 -0.2393
30343W        W47190   6.206  15.626  13.634  0.0239 -0.1045  0.1190
30344W        W47191  13.849   3.988  11.857  0.0194 -0.2004  0.3339
30345W        W47192  15.644   8.638  15.338  0.1043  0.1284  0.0802
30346W        W47193   2.434   1.304   3.776 -0.2553  0.1426 -0.3450
30347W        W47194   2.558   9.120  11.857  0.0469 -0.0790 -0.2319
30348W        W47195   6.939  13.036  10.692 -0.0872  0.1049 -0.0039
30349W        W47196   3.318   6.695   3.544 -0.0934 -0.4065  0.0665
30350W        W47197  12.556   6.240   1.623  0.2232  0.1588  0.1665
30351W        W47198  15.519  13.812  12.674  0.2284  0.2285  0.0170
30352W        W47199   2.442  12.091   1.529 -0.2382  0.1319 -0.0433
30353W        W47200  16.781   2.034   1.353 -0.0130  0.1403  0.1095
30354W        W47201   2.982  17.342   0.254  0.0535 -0.1077 -0.1526
30355W        W47202  11.652  14.916  13.693  0.0683 -0.0225 -0.1934
30356W        W47203   7.016   3.121  12.131  0.1142 -0.2144 -0.2837
30357W        W47204   6.987   3.780   1.097 -0.2602  0.6046  0.2720
30358W        W47205   4.328  17.419  14.179 -0.0748 -0.1653  0.5097
30359W        W47206  13.443  10.153  11.433 -0.2550  0.0464  0.1103
30360W        W47207  16.538  15.791   0.982  0.2070  0.0852 -0.0257
30361W        W47208  14.523   9.295  12.547  0.0446  0.0911  0.1637
30362W        W47209   5.315  15.638  15.039  0.3691 -0.1303  0.3039
30363W        W47210   9.421  14.766   3.285  0.2445  0.2122 -0.0565
30364W        W47211  12.554  13.611   2.814  0.0598  0.1690  0.0833
30365W        W47212   6.673  11.918  13.603 -0.0788 -0.0143  0.1100
30366W        W47213  15.723   1.404  11.712 -0.2909 -0.1332  0.1794
30367W        W47214   6.373   0.566  15.154 -0.0414  0.1559  0.2107
30368W        W47215  11.132  11.117   3.235  0.4407 -0.3105 -0.0319
30369W        W47216   4.404  16.798  14.046  0.1790  0.1934  0.1956
30370W        W47217   8.082   6.252   3.881 -0.4387  0.1145 -0.1769
30371W        W47218  18.030  13.124  10.723 -0.2628  0.2198 -0.2198
30372W        W47219   3.598   6.928  11.909 -0.0584  0.0465 -0.2569
30373W        W47220   3.000  16.799  13.992  0.4340  0.4087  0.0289
30374W        W47221   3.458   4.473  15.547  0.1522  0.2826  0.3866
30375W        W47222  11.796  12.048  13.239 -0.1040  0.0638 -0.0153
30376W        W47223  16.176  11.069   5.099 -0.2594  0.1768  0.0487
30377W        W47224  17.311   0.342   4.805  0.0087 -0.4184  0.1754
30378W        W47225  11.756   0.272   5.233  0.2114  0.0997 -0.1980
30379W        W47226  14.555  18.727   2.452 -0.3419 -0.0645 -0.1622
30380W        W47227  10.971  14.883   1.294 -0.1008 -0.1777  0.1104
30381W        W47228  13.422   7.848  13.333 -0.0092 -0.0618 -0.4105
30382W        W47229  12.714  17.760   1.697 -0.2046  0.0970  0.1740
30383W        W47230  10.791   6.255   1.436 -0.0211  0.3370  0.0087
30384W        W47231   6.223   6.008   1.100 -0.0412  0.0550  0.0047
30385W        W47232   3.499   0.457  11.422 -0.1542 -0.1916  0.2897
30386W        W47233   7.363   1.218   5.680 -0.0986  0.1441 -0.1318
30387W        W47234  12.717   8.125  12.275 -0.0026 -0.0100 -0.1243
30388W        W47235  15.697   8.884   2.906  0.0998  0.0383 -0.2034
30389W        W47236   6.448  14.313   2.328 -0.2329  0.0714  0.1695
30390W        W47237   8.234   6.967  14.797  0.0334 -0.0287 -0.0963
30391W        W47238  18.763  18.337  14.121  0.2459  0.2454 -0.2898
30392W        W47239  15.101  15.543  10.200  0.1152  0.2390 -0.0648
30393W        W47240  16.557   2.605   4.678  0.1695  0.1935 -0.0641
30394W        W47241  10.487   7.108   4.046  0.1973  0.1881  0.1389
30395W        W47242   8.544  13.762   3.064  0.0028 -0.0751  0.0060
30396W        W47243  13.420   1.313  15.233  0.0335  0.0132 -0.1210
30397W        W47244   3.487  15.532   0.282 -0.0230  0.1734 -0.0124
30398W        W47245   1.022  11.923  14.956  0.1167 -0.1086  0.0417
30399W        W47246   6.930   4.708   3.907 -0.2116  0.2310 -0.1421
30400W        W47247  17.010  10.753  15.100  0.0914  0.1071 -0.2654
30401W        W47248   5.272   3.124   5.642  0.1929 -0.0402  0.0399
30402W        W47249  15.027   0.810   4.066 -0.3564  0.0301 -0.1027
30403W        W47250   9.345  10.966   3.603  0.1492 -0.2803 -0.1020
30404W        W47251  15.025  10.013  14.210 -0.2001 -0.0733 -0.1358
30405W        W47252   9.824  18.230  11.548 -0.0669 -0.0349 -0.1849
30406W        W47253   3.841   6.627  11.507  0.1509 -0.2353 -0.1843
30407W        W47254  10.632  12.211  14.172 -0.0408 -0.0805 -0.2282
30408W        W47255  16.887   4.391   2.927 -0.0254  0.3706  0.0299
30409W        W47256  11.136  14.958   2.995  0.0688  0.1988 -0.2219
30410W        W47257   7.165   0.716   0.760  0.0911  0.0212 -0.3915
30411W        W47258   8.476   4.675  13.583  0.3839 -0.0595 -0.0638
30412W        W47259  16.200   7.066   1.409  0.0195 -0.0550  0.0061
30413W        W47260   2.620   2.470  13.352  0.0155  0.0031 -0.0459
30414W        W47261  14.097   0.693   3.115 -0.2007 -0.2952  0.1397
30415W        W47262   8.594   1.644  11.320 -0.1558  0.1226 -0.2768
30416W        W47263   8.592  18.394  14.456  0.2381 -0.1270 -0.4274
30417W        W47264   3.910   7.315   0.136  0.1221  0.0028 -0.2745
30418W        W47265  12.749   1.639   0.443 -0.2459 -0.0598 -0.1980
30419W        W47266   7.973  14.426  12.407 -0.2520  0.0073 -0.0628
30420W        W47267   3.500   1.818  13.241 -0.1938  0.0840  0.0167
30421W        W47268   0.836  12.599  13.623  0.1623 -0.0203  0.4148
30422W        W47269   9.497  12.883  13.162 -0.0504 -0.0252 -0.0639
30423W        W47270  17.300  14.739  10.393 -0.0933  0.0381 -0.0124
30424W        W47271   3.751   1.559   4.191  0.0045  0.0400  0.1696
30425W        W47272  12.044  17.140   4.086  0.1894  0.2240 -0.0424
30426W        W47273  14.149   5.625  11.974  0.1938 -0.1546  0.0960
30427W        W47274   8.929   7.747  11.367 -0.3557  0.4367  0.1576
30428W        W47275   2.398   6.891   0.929 -0.3429  0.4239  0.1160
30429W        W47276   5.716  14.429   4.726 -0.0361  0.0975 -0.2030
30430W        W47277  11.545   3.738   2.691  0.1832  0.1036 -0.2884
30431W        W47278   9.543   6.533   4.711  0.1474  0.1820 -0.0689
30432W        W47279   4.107   0.568  12.002  0.1347  0.1679 -0.3191
30433W        W47280   0.159  14.940   3.075 -0.2386  0.0127 -0.3203
30434W        W47281  12.053   4.036   0.309 -0.2745 -0.0845  0.0229
30435W        W47282  10.785  17.224  12.768 -0.3636  0.2329 -0.2002
30436W        W47283  12.317   2.131   4.070  0.2998  0.1051  0.1280
30437W        W47284  18.012  15.671  14.719 -0.0697 -0.0621 -0.2560
30438W        W47285  15.525  16.479  11.897  0.0369  0.2346  0.0729
30439W        W47286  12.160  14.799  14.308 -0.0634 -0.1069 -0.0914
30440W        W47287  15.094  14.434   3.173 -0.0299  0.0833 -0.0492
30441W        W47288   2.746   6.214   2.259  0.1286  0.1411 -0.2765
30442W        W47289  15.510   4.033   3.333  0.0368 -0.1548 -0.1317
30443W        W47290   2.285  11.544  11.832 -0.0922  0.2547 -0.0156
30444W        W47291  18.783  17.106   4.019 -0.2557 -0.0825  0.1663
30445W        W47292   6.725   9.011   0.452  0.0680 -0.0347 -0.3123
30446W        W47293  17.332  15.444  11.777 -0.2832  0.1282 -0.2390
30447W        W47294   0.019   7.995   1.826  0.3621 -0.0283 -0.0499
30448W        W47295   3.047  15.534   0.504  0.0384 -0.2199  0.0006
30449W        W47296   9.038  11.544  15.341 -0.2357 -0.0291  0.2513
30450W        W47297  10.603   4.303   0.523  0.3310  0.0281 -0.0572
30451W        W47298  17.218   0.096   0.545 -0.1352  0.2806 -0.4504
30452W        W47299  15.875   5.934   0.150  0.0737  0.1350  0.0838
30453W        W47300   8.911   2.317   2.690  0.0724 -0.3246  0.1123
30454W        W47301  16.514   6.442   4.862  0.2361 -0.0560  0.1629
30455W        W47302   9.892  15.251  10.922  0.1018 -0.0775  0.4100
30456W        W47303   0.961  11.258   4.881 -0.0862 -0.0954 -0.0429
30457W        W47304   4.756   0.936  14.753  0.0541  0.0126  0.0373
30458W        W47305   2.260  15.256  14.747 -0.1452 -0.1674 -0.3759
30459W        W47306   6.600  13.164   3.678  0.0037  0.0365 -0.0250
30460W        W47307   1.039   5.468  14.872 -0.2537 -0.0986  0.1475
30461W        W47308  14.948   4.873  14.038 -0.2683  0.0184  0.1014
30462W        W47309   1.163   1.047   0.958  0.2873 -0.1135  0.1240
30463W        W47310   0.767  15.740   2.977  0.0199  0.2154  0.2465
30464W        W47311   9.179  13.883   3.744  0.0403  0.0180 -0.0285
30465W        W47312   3.475   8.451  15.023  0.1452 -0.4157  0.3228
30466W        W47313  12.062   8.116   4.885  0.3027 -0.0959  0.0167
30467W        W47314  15.657  18.666  14.379  0.1961 -0.0714 -0.0665
30468W        W47315   9.153  12.527  12.985 -0.2921  0.2110 -0.1720
30469W        W47316   5.752   8.988  12.325 -0.1787 -0.1831 -0.2241
30470W        W47317  13.519   2.385  13.085 -0.1700 -0.0370  0.0804
30471W        W47318   0.308   7.497  13.830  0.3379  0.2606  0.3119
30472W        W47319   6.910  16.455  11.939 -0.2223  0.0757 -0.0253
30473W        W47320   2.276  11.627  12.681 -0.3529 -0.3081 -0.0648
30474W        W47321   8.919  11.868   2.159 -0.1407 -0.0849  0.2356
30475W        W47322   2.532   1.978  11.929 -0.1834 -0.1684 -0.1808
30476W        W47323   9.732  15.118   0.098  0.0941  0.0740 -0.1273
30477W        W47324   1.222  16.583  13.819 -0.3083 -0.2822 -0.1413
30478W        W47325   6.439  16.283  11.800  0.0845 -0.1282  0.1358
30479W        W47326   3.886  18.117   2.584  0.0536  0.2053 -0.0304
30480W        W47327  17.261   8.518   2.163  0.1184 -0.1458  0.0472
30481W        W47328  14.334   9.343   5.191  0.1641  0.1360 -0.1275
30482W        W47329  17.408   4.965   3.478 -0.1027  0.0150 -0.2798
30483W        W47330  10.686   3.172  12.522  0.1761  0.0720 -0.2490
30484W        W47331   5.887  11.766   4.756 -0.0850  0.1871 -0.0475
30485W        W47332  12.212   0.250   1.633  0.0792  0.2512  0.3308
30486W        W47333   7.043   1.281   0.777 -0.0869  0.1376 -0.1947
30487W        W47334  14.629   0.748   5.078  0.1532  0.1590  0.0891
30488W        W47335  11.268   7.330  11.490 -0.2083 -0.2282  0.0901
30489W        W47336  13.527  13.620  11.893 -0.2674 -0.2437  0.1354
30490W        W47337   8.298  17.795  13.271 -0.0538 -0.1568  0.1503
30491W        W47338  12.319   1.554   4.845  0.1228  0.0274  0.2737
30492W        W47339   6.868  17.057  13.684 -0.2355 -0.0104  0.3521
30493W        W47340  13.807  11.777  15.101  0.1523  0.3206  0.1109
30494W        W47341   0.511   3.527   4.459 -0.1612 -0.1794  0.2206
30495W        W47342  14.836   3.745  14.466  0.1197 -0.1867  0.1587
30496W        W47343   5.685  17.227  10.616  0.0565  0.2262 -0.0836
30497W        W47344   0.140   2.783   4.382  0.3348 -0.0225  0.0985
30498W        W47345   2.608   3.355   3.197  0.3200 -0.1261  0.1524
30499W        W47346  13.116  15.345   3.529 -0.3195 -0.0214 -0.0667
30500W        W47347   1.965   4.303  12.224  0.1789 -0.2415  0.5193
30501W        W47348   6.608  12.667   3.944 -0.0089  0.0027  0.0061
30502W        W47349  15.004  13.559   1.547 -0.1218  0.2549  0.0672
30503W        W47350   0.216   4.655   3.599  0.2662 -0.0862  0.0629
30504W        W47351   2.925  13.262   0.980 -0.1610 -0.1095  0.3271
30505W        W47352   5.060   5.251   2.756 -0.1980 -0.0961  0.0438
30506W        W47353  13.759  16.258  14.261 -0.0239  0.0956  0.0008
30507W        W47354   5.169   4.601   1.184  0.2631 -0.1385 -0.0585
30508W        W47355   9.645   9.491   1.618 -0.0411 -0.3002  0.0560
30509W        W47356  18.779   2.787   1.182 -0.2763  0.0956  0.0629
30510W        W47357  18.271  14.665  12.363 -0.0471  0.1552  0.0119
30511W        W47358  11.225  17.602   5.611  0.1744 -0.2561 -0.0526
30512W        W47359  15.475   9.624  14.214 -0.6801 -0.1056 -0.2352
30513W        W47360   3.371  14.058  14.486  0.0812  0.4097  0.1804
30514W        W47361   3.643  13.384   2.760 -0.2391  0.0185  0.2559
30515W        W47362  13.364   6.085   3.394  0.0148  0.0347 -0.0511
30516W        W47363  18.594   0.364   4.660 -0.1079  0.2603  0.1690
30517W        W47364  13.998   3.886  13.925  0.0161 -0.3286  0.1981
30518W        W47365  14.063   8.012   0.057 -0.1550 -0.0176 -0.0312
30519W        W47366  11.152   0.498  12.008  0.0588  0.2697 -0.1474
30520W        W47367  11.797  10.572  15.069  0.1194 -0.1964  0.0698
30521W        W47368  10.632   6.259   3.357 -0.0635  0.1793  0.1318
30522W        W47369  17.105  18.575  15.098  0.1293  0.1897 -0.0871
30523W        W47370   6.840   7.882   0.472 -0.0365  0.1335  0.1915
30524W        W47371   1.884  10.473   2.929  0.3653  0.0676  0.1690
30525W        W47372   2.279  11.832   4.790 -0.3016  0.0165  0.0523
30526W        W47373   5.400   4.831  12.093 -0.2539  0.1674 -0.0157
30527W        W47374  14.420   2.903   4.238 -0.1132 -0.1399 -0.0078
30528W        W47375  14.140   9.984   1.802 -0.1570  0.1883 -0.1634
30529W        W47376   6.132  11.587   1.293 -0.5461 -0.0024  0.0322
30530W        W47377  14.609  17.018  14.779 -0.0556  0.1365 -0.0681
30531W        W47378  11.526   2.082  13.682 -0.1315  0.5456  0.1526
30532W        W47379   5.294   2.192   0.244  0.0614 -0.3273  0.0107
30533W        W47380   9.319   0.713  13.473 -0.3656 -0.3175 -0.2302
30534W        W47381   7.001  14.147   1.592 -0.1875  0.1770  0.0112
30535W        W47382   6.457   2.493   0.253 -0.0923  0.0748 -0.0440
30536W        W47383  14.774   8.741   2.838 -0.0399  0.2667 -0.2501
30537W        W47384  14.667  18.241   2.554  0.0836  0.3849  0.0818
30538W        W47385  12.071   4.340   1.241 -0.0286  0.1725 -0.2473
30539W        W47386   2.110  13.322  15.112  0.0122  0.3662 -0.2466
30540W        W47387  17.753   0.405  10.485 -0.1213 -0.2031  0.2892
30541W        W47388  15.049  16.502  12.034 -0.0796  0.0747  0.1496
30542W        W47389  10.060  16.869   4.777  0.1920  0.1020 -0.1426
30543W        W47390  14.450  16.080   2.822 -0.0449 -0.2426 -0.0322
30544W        W47391  11.348  14.180  15.291 -0.1907 -0.0739  0.0063
30545W        W47392  10.859  11.839   4.131 -0.5520 -0.3541 -0.3047
30546W        W47393   7.979  16.638  13.936  0.2480 -0.2058  0.1058
30547W        W47394   6.930  13.808  14.736  0.1977 -0.0227  0.0378
30548W        W47395   8.495  14.920  13.693  0.1593 -0.2701  0.1201
30549W        W47396  16.683  17.694   1.770 -0.0759  0.1162  0.0754
30550W        W47397   9.231  14.064  11.319  0.2065  0.1100 -0.0817
30551W        W47398  12.617  13.123   2.713 -0.2210  0.0064 -0.3002
30552W        W47399   1.440   7.289  12.638  0.1240 -0.0341 -0.2154
30553W        W47400  17.320  13.205  11.877  0.0143  0.7750 -0.3204
30554W        W47401  15.348   6.702   0.514 -0.2374  0.2526 -0.0225
30555W        W47402   8.592   8.750   5.327  0.1169  0.2091 -0.1803
30556W        W47403   2.249   6.807   2.293  0.0971  0.1342  0.0659
30557W        W47404   8.650  16.091  12.503 -0.0494  0.0336  0.2229
30558W        W47405   1.287   7.724   2.567  0.0043 -0.5069  0.1330
30559W        W47406   5.235  11.314   4.193  0.1478  0.0632  0.1743
30560W        W47407   6.667  14.926  11.865 -0.1849 -0.1236 -0.0836
30561W        W47408   6.195  13.406   1.931  0.0459 -0.1257  0.1723
30562W        W47409  17.766  14.674  12.541  0.0228  0.2195 -0.1721
30563W        W47410  12.344  11.450   0.616 -0.1868 -0.0550  0.0812
30564W        W47411  15.856  11.572   3.564 -0.1839  0.4388 -0.1317
30565W        W47412  14.093  16.274  11.249  0.1896 -0.2003  0.1745
30566W        W47413   8.749  10.500   1.733 -0.1058  0.0577  0.2529
30567W        W47414   1.133   7.443   0.264  0.0172  0.4044  0.1549
30568W        W47415  13.482  12.257   4.692  0.0709  0.2322  0.0118
30569W        W47416  13.845   0.707  13.258 -0.0883 -0.1552 -0.2801
30570W        W47417  11.383   7.933   0.317  0.2138 -0.3550  0.0484
30571W        W47418   9.595  11.524   4.729 -0.0341  0.0181  0.2364
30572W        W47419  12.710   8.191  12.825 -0.1066 -0.0123  0.5066
30573W        W47420  11.183   5.705   2.824 -0.1623 -0.2909  0.0955
30574W        W47421  17.745  15.296  14.576  0.1085 -0.1852  0.0566
30575W        W47422   3.550  16.433  11.831 -0.3273  0.1416  0.1728
30576W        W47423  16.905   4.251   4.462  0.3606 -0.1518  0.1704
30577W        W47424  16.117   0.749   5.002  0.0833  0.4026 -0.2230
30578W        W47425   6.313  14.053  15.393 -0.0613 -0.1062 -0.3356
30579W        W47426   9.316   8.582   2.159 -0.0247 -0.1196 -0.1177
30580W        W47427  16.789  18.018   2.890 -0.2690  0.0814  0.0351
30581W        W47428  13.241  11.060   1.461  0.2896  0.1284 -0.3471
30582W        W47429  15.273   6.007  12.550 -0.1304 -0.0673 -0.1454
30583W        W47430  13.892  18.798  14.071 -0.1798  0.2625 -0.0154
30584W        W47431   1.303   9.205  12.515 -0.0670 -0.3558 -0.2154
30585W        W47432   1.131   7.863  13.201 -0.3113 -0.1677 -0.1113
30586W        W47433  16.481   8.428  15.444  0.1265 -0.1644 -0.0363
30587W        W47434   2.778   7.891   4.838  0.1203 -0.2133 -0.1701
30588W        W47435  12.544  18.004  14.459 -0.0783  0.3699 -0.0617
30589W        W47436  11.935   6.810  14.454 -0.0654 -0.1825 -0.4141
30590W        W47437  16.000   1.052  12.362  0.0374 -0.2126  0.3324
30591W        W47438   0.240  15.464   2.929  0.0610  0.0632 -0.2011
30592W        W47439   6.864   1.802  13.109 -0.0108  0.2968  0.3091
30593W        W47440   2.055   2.990  15.343  0.0280 -0.2709  0.2340
30594W        W47441  13.957   5.335  13.048  0.2441  0.0054 -0.2022
30595W        W47442   4.865   2.931   1.730 -0.1301  0.2267 -0.1099
30596W        W47443  18.667   5.426   3.819  0.0236 -0.2244  0.1190
30597W        W47444  17.860   8.252   3.608  0.1848 -0.2231 -0.0032
30598W        W47445   3.871  16.002  11.703  0.3378  0.0211  0.2812
30599W        W47446  12.285   2.804  11.155 -0.0207 -0.2574  0.1564
30600W        W47447   3.808  10.138   0.945  0.3454  0.1684  0.1725
30601W        W47448   8.228   4.695  15.028 -0.1655 -0.1290  0.1036
30602W        W47449  15.978   4.352  14.734  0.1087 -0.1471  0.1976
30603W        W47450  12.409  16.099   1.121  0.0020 -0.0303 -0.3501
30604W        W47451   6.302  10.002  15.034 -0.3028 -0.2766 -0.0267
30605W        W47452  18.367  15.907   2.388 -0.2883 -0.3127 -0.0727
30606W        W47453   3.001   5.713   3.577  0.1171 -0.2509 -0.0717
30607W        W47454   4.986   7.973  11.684  0.2293 -0.0399 -0.2676
30608W        W47455   9.847   5.854   1.309  0.0239 -0.2546 -0.1114
30609W        W47456  18.007   9.804   3.434  0.2880  0.0356 -0.3070
30610W        W47457   5.685   4.388   3.605  0.0193 -0.0241  0.0836
30611W        W47458   2.170   9.988   2.972  0.0444  0.1075  0.1095
30612W        W47459  17.744  10.301  15.068  0.0556  0.3044  0.0682
30613W        W47460  10.924   3.879   3.971 -0.0563 -0.0211 -0.4834
30614W        W47461  16.506  16.930  15.481  0.0723 -0.1127  0.0956
30615W        W47462   3.434   1.430   4.632  0.2731 -0.3975 -0.0021
30616W        W47463  13.353  17.966  11.686 -0.1693  0.0145 -0.0662
30617W        W47464  17.991   5.673  12.338 -0.1771 -0.1435 -0.2108
30618W        W47465  16.081  11.637  11.065  0.0262  0.1001  0.0264
30619W        W47466  14.022   8.702  12.359 -0.3935 -0.0165 -0.2857
30620W        W47467   1.938  13.337   4.620  0.1757  0.1039 -0.0776
30621W        W47468  13.210   8.756  11.154 -0.0557 -0.0373  0.1833
30622W        W47469   6.894  17.315   2.094 -0.0212  0.2389 -0.0149
30623W        W47470  13.476   4.116   1.268  0.2873  0.2606 -0.1200
30624W        W47471  13.643  13.819   5.357 -0.3665 -0.4906  0.1030
30625W        W47472  10.288   1.643   2.133 -0.0914  0.1277  0.2176
30626W        W47473   6.733   2.262   2.207  0.0803  0.2313  0.1472
30627W        W47474   0.167   0.671  14.642  0.2206  0.1505  0.0682
30628W        W47475  17.796   2.839   5.348  0.3454  0.1919  0.0116
30629W        W47476   1.256   9.318   4.812 -0.1245  0.1230 -0.0579
30630W        W47477  16.558  10.993   3.575  0.0537 -0.2159  0.0990
30631W        W47478   0.646   8.273   0.451 -0.2061  0.1179 -0.1366
30632W        W47479   5.441   1.300   4.615  0.0596 -0.2192 -0.0219
30633W        W47480   4.177  13.570   1.197  0.0234 -0.0235  0.1533
30634W        W47481  12.889  11.740   4.909  0.3054 -0.0954  0.1682
30635W        W47482   5.345  10.274  14.617 -0.0469  0.2324  0.0025
30636W        W47483  16.644   2.594   4.029  0.1703  0.0389 -0.3019
30637W        W47484   8.177   2.933   5.842 -0.3643 -0.4690 -0.0511
30638W        W47485   0.892   0.674  14.563  0.1061 -0.0442  0.0622
30639W        W47486  11.603   7.951   3.105  0.1025 -0.0337  0.2296
30640W        W47487  18.225   8.044  14.430 -0.1881 -0.1252  0.1148
30641W        W47488  14.596  15.571   1.550  0.2429 -0.1542 -0.1036
30642W        W47489  18.395  18.089   0.148  0.2541 -0.1458  0.2266
30643W        W47490   7.799  11.976  12.612 -0.0399  0.0082  0.1463
30644W        W47491   2.507   1.860  10.934  0.1683 -0.0557  0.0939
30645W        W47492   5.372  15.081  13.772 -0.1337 -0.1659 -0.0806
30646W        W47493  17.363   2.374   3.752 -0.0181 -0.1907  0.1274
30647W        W47494  16.912  17.850  12.147  0.0713 -0.1035  0.2607
30648W        W47495   8.512   6.830   3.142 -0.1996 -0.1453  0.0045
30649W        W47496   5.726   3.525   5.085 -0.1357  0.1029  0.0918
30650W        W47497   7.720  17.452   0.589  0.2921 -0.0187 -0.0115
30651W        W47498   2.670  15.276  11.223  0.1280  0.0763 -0.2430
30652W        W47499  14.947  11.882  12.323 -0.2974 -0.0338  0.0426
30653W        W47500   2.699   4.315  11.685 -0.5383 -0.1269 -0.1297
30654W        W47501  10.955   7.092   1.885  0.0808  0.1269  0.1112
30655W        W47502  17.944  11.744   1.713  0.1457  0.2415  0.0579
30656W        W47503   5.800   1.300  15.333 -0.0759 -0.1069 -0.0368
30657W        W47504  12.698  15.459   0.573  0.0152  0.0926  0.0811
30658W        W47505   3.971   0.591   4.248 -0.0955 -0.1020  0.0044
30659W        W47506  16.679   7.257  12.229  0.1812 -0.1629  0.0775
30660W        W47507   1.567   6.721  12.788 -0.0855 -0.1292 -0.0657
30661W        W47508  17.293  16.372  12.285 -0.0151  0.1768 -0.0889
30662W        W47509   9.587  18.175   2.330  0.0864  0.0116  0.1489
30663W        W47510  11.793   5.057   0.074 -0.4147  0.3049 -0.0027
30664W        W47511  12.965   0.940  14.661  0.0508 -0.1302  0.1029
30665W        W47512   2.951  11.160  10.505  0.2107  0.0038  0.1251
30666W        W47513   5.378   9.376   0.912  0.1071 -0.0129  0.1006
30667W        W47514  15.974  15.988   2.616 -0.1091 -0.3062 -0.1272
30668W        W47515  12.138  15.939   1.669 -0.0115  0.0887  0.2475
30669W        W47516  18.289  13.816   2.993 -0.0679 -0.1371  0.2772
30670W        W47517   2.204  10.802  14.388  0.0107  0.2232 -0.0895
30671W        W47518  13.751   9.046  15.531 -0.0231 -0.1912  0.0883
30672W        W47519  17.069   9.766  10.803 -0.1143 -0.1875 -0.2511
30673W        W47520   8.737   1.005  14.898  0.0657  0.2256  0.4414
30674W        W47521   3.157  17.258  11.757  0.0640 -0.0551  0.2097
30675W        W47522  18.605  10.079   4.703 -0.1147  0.0629  0.0365
30676W        W47523   3.627  17.426   4.868 -0.0427 -0.3280 -0.1320
30677W        W47524   4.685  14.729   4.913  0.0819  0.2091  0.1154
30678W        W47525  15.881  18.252   1.897 -0.3742  0.2106  0.2570
30679W        W47526  17.912  14.996  14.148 -0.2307 -0.2878  0.2483
30680W        W47527   3.814  10.024   0.048 -0.0487 -0.0763 -0.0079
30681W        W47528   3.691   1.490   0.247  0.0623 -0.0095  0.0941
30682W        W47529  14.083   2.860  11.334  0.2471  0.2637  0.3412
30683W        W47530   5.481   0.980   2.847 -0.1550  0.1181 -0.1544
30684W        W47531   8.740   7.968   1.289 -0.1666 -0.0415  0.1592
30685W        W47532   7.722   3.790   2.604 -0.0137  0.0148 -0.0818
30686W        W47533  16.464   4.497   5.128 -0.1628  0.1078  0.2027
30687W        W47534   3.983   9.650   4.038 -0.1935 -0.1888  0.2859
30688W        W47535  17.072  10.747  12.277  0.0203 -0.3436 -0.0161
30689W        W47536   8.122   4.196  13.430  0.2225  0.1717 -0.0102
30690W        W47537  18.640   1.183   4.364  0.1958  0.0135  0.2665
30691W        W47538   8.127  17.559  11.096  0.2311  0.0462  0.1773
30692W        W47539  16.735  18.100   0.196  0.1074  0.2733 -0.2303
30693W        W47540   2.139   6.335   2.039  0.0744  0.2578 -0.1749
30694W        W47541  10.708   1.458   4.270  0.1875 -0.0380  0.1521
30695W        W47542  15.722   6.938  12.261 -0.0154 -0.0995 -0.1583
30696W        W47543   6.487  13.894   0.776 -0.0468  0.0518 -0.1149
30697W        W47544   3.599   5.978  13.981 -0.1953 -0.0309  0.3397
30698W        W47545  11.854   5.583   4.478  0.1593  0.0258 -0.0910
30699W        W47546   4.077  17.374  14.730 -0.2660  0.1598  0.0909
30700W        W47547   6.406  12.911   0.555  0.1502 -0.1692 -0.0968
30701W        W47548   0.664   7.228   1.916  0.2172 -0.0701 -0.0315
30702W        W47549  17.773  17.582  14.340  0.0199 -0.1344 -0.2649
30703W        W47550   7.895   4.771  13.478 -0.1049  0.2226  0.0852
30704W        W47551  10.376  13.058  13.109 -0.0519 -0.2176 -0.0784
30705W        W47552  15.659   8.005  13.115  0.2055  0.4859 -0.2958
30706W        W47553  17.774  10.791   2.357 -0.1191  0.2300  0.1233
30707W        W47554  11.535  10.704   3.191 -0.1900  0.2652 -0.2946
30708W        W47555  12.112   5.413   3.370  0.0672 -0.0098 -0.1850
30709W        W47556   3.446  13.861  15.315 -0.1908 -0.1612  0.2649
30710W        W47557   7.467  13.579  15.420  0.1213  0.1412 -0.3242
30711W        W47558   6.459  11.330  11.401 -0.2000 -0.0508  0.0770
30712W        W47559  15.372   1.692   4.963 -0.0055  0.1009 -0.0409
30713W        W47560   1.908   3.279  13.970  0.0050  0.0009 -0.0220
30714W        W47561  17.137   4.868   1.561 -0.3474 -0.0508 -0.0591
30715W        W47562  13.135  14.776   5.344  0.0741  0.0205 -0.2478
30716W        W47563   3.168   3.748   0.229  0.2840 -0.0766  0.1956
30717W        W47564   8.869   3.745   3.191  0.0555 -0.1148 -0.0060
30718W        W47565  13.840  13.897  12.229 -0.0667 -0.2435 -0.2418
30719W        W47566   7.179  17.280   0.502  0.2842  0.1248  0.1939
30720W        W47567  15.132  18.337   4.393 -0.0785  0.0437 -0.1257
30721W        W47568   9.812  11.230   3.841  0.0464  0.0570 -0.1129
30722W        W47569   2.342  10.130   1.165  0.1340 -0.1700  0.1865
30723W        W47570  13.518  10.892  11.752  0.0319 -0.1000 -0.2462
30724W        W47571  11.405  10.052  15.422 -0.4022 -0.1905 -0.2181
30725W        W47572   5.572  13.887  15.188 -0.2456  0.2772 -0.4324
30726W        W47573   6.851  10.285   0.798  0.0539  0.2947  0.1110
30727W        W47574  10.971  16.000  14.765 -0.0688 -0.1853 -0.1571
30728W        W47575  17.558   7.935  10.784  0.1184 -0.0907  0.2374
30729W        W47576   4.769  13.401   5.137 -0.1113 -0.0802 -0.0804
30730W        W47577   2.358   2.674  13.964  0.1641 -0.2051 -0.0169
30731W        W47578   2.251   8.290   5.306 -0.4326  0.0337 -0.0843
30732W        W47579   2.468   1.232  15.260  0.0920 -0.2188 -0.1585
30733W        W47580   9.087  10.061   5.956  0.1849 -0.0523 -0.1136
30734W        W47581  15.138  11.286   3.472 -0.0495 -0.1699 -0.1334
30735W        W47582  15.488   0.448  11.172  0.2026 -0.2230  0.0158
30736W        W47583   8.076  17.698   5.097 -0.0295  0.1495  0.1460
30737W        W47584  12.236   2.043  14.202  0.1582  0.0321  0.3043
30738W        W47585  11.181   9.870  14.069 -0.1444  0.0549  0.1471
30739W        W47586  17.056   7.064   1.733 -0.0032 -0.2106  0.1362
30740W        W47587   0.159   0.101   2.666  0.1120 -0.0457 -0.1115
30741W        W47588   7.680   0.769   0.365  0.0126 -0.1787  0.2396
30742W        W47589   0.839  14.785  14.719  0.1823 -0.0255  0.0155
30743W        W47590  11.229  16.365  10.963  0.0980  0.1721 -0.1349
30744W        W47591   1.024  10.545   1.316 -0.1001 -0.1041  0.0452
30745W        W47592   1.761   5.282   1.939 -0.2146  0.2074 -0.3225
30746W        W47593  18.249   7.390  10.871  0.0276 -0.3711 -0.0023
30747W        W47594  16.784   9.887   2.332  0.1191  0.1585  0.1910
30748W        W47595   9.232   3.400   2.332  0.1619 -0.2326  0.0560
30749W        W47596   5.020   0.153  13.691 -0.2600  0.0843 -0.4785
30750W        W47597  15.119  18.489   0.713  0.3107 -0.2270 -0.0706
30751W        W47598  14.485   8.243  13.589 -0.0718  0.2874  0.0563
30752W        W47599  17.833  16.979   1.780 -0.1045 -0.2669  0.1488
30753W        W47600  17.177   8.221   0.421  0.2566  0.1043  0.0468
30754W        W47601  13.718  17.848   4.042  0.0268  0.1047  0.1963
30755W        W47602  11.179  10.229  12.057 -0.1739  0.1250 -0.1194
30756W        W47603  17.107  11.913   3.338  0.1162 -0.1663  0.0285
30757W        W47604  15.421  15.456   4.301  0.0607  0.2876 -0.0818
30758W        W47605   3.194  12.649  15.113 -0.0667 -0.2247 -0.0880
30759W        W47606   1.368   2.035  12.340  0.4445  0.2258  0.0880
30760W        W47607   1.067   1.392   3.652  0.0902 -0.0253  0.2719
30761W        W47608  11.598   0.702  11.848 -0.1433 -0.0197 -0.2176
30762W        W47609   4.488   0.142   4.479 -0.0905 -0.1093 -0.2580
30763W        W47610  15.666  11.273  14.910 -0.0684 -0.1342  0.1993
30764W        W47611   7.406  17.243   2.081 -0.2693 -0.0103  0.0616
30765W        W47612  11.034  11.510   5.036 -0.2354 -0.2760 -0.0014
30766W        W47613   6.872   2.313  12.754  0.1188 -0.1688  0.0195
30767W        W47614  16.207   9.381  11.386  0.1647  0.0659 -0.1328
30768W        W47615   9.577   8.803  13.539  0.3838 -0.3723 -0.0621
30769W        W47616  14.899   8.486  13.508 -0.1632  0.0737 -0.0264
30770W        W47617  18.316   7.564   2.728  0.2103  0.0839 -0.4093
30771W        W47618  12.032   4.493  11.346  0.1980 -0.2480 -0.0813
30772W        W47619   6.893   2.103   3.217  0.2492 -0.1831 -0.0013
30773W        W47620  13.605   8.412  14.142  0.1505  0.1473  0.2164
30774W        W47621  14.499   7.375   2.843 -0.1700 -0.4494  0.0524
30775W        W47622  15.659  16.126   3.804  0.0648  0.0055  0.0442
30776W        W47623  17.261  11.594   0.059 -0.0689  0.0331 -0.1067
30777W        W47624  12.598  17.695   4.398 -0.0114 -0.2850  0.0708
30778W        W47625  14.478  14.964   9.875  0.2581 -0.0778 -0.1998
30779W        W47626  12.409   2.927  12.448  0.1716 -0.0431 -0.2304
30780W        W47627  18.343  15.162   2.236  0.4077  0.1868  0.0428
30781W        W47628   9.450  11.712  12.955  0.1673  0.0721  0.0055
30782W        W47629   5.141   7.729  15.519  0.1661 -0.4801 -0.0359
30783W        W47630   8.639  17.635   4.112 -0.1798  0.0857  0.1052
30784W        W47631  17.577  12.377   2.623 -0.1549 -0.1667  0.0051
30785W        W47632  14.133   6.286  10.805 -0.1254 -0.0492  0.1564
30786W        W47633   1.682   0.885  13.099  0.2162  0.0110  0.3422
30787W        W47634  17.197  15.720  12.732 -0.0754  0.1305  0.0305
30788W        W47635  13.454   2.311   1.702 -0.0744  0.2052 -0.3895
30789W        W47636   1.138  10.996  14.635  0.2269  0.2767  0.4678
30790W        W47637   6.469   2.463   1.354 -0.0311 -0.1306 -0.1216
30791W        W47638  11.177  10.293  11.493 -0.3555  0.0580  0.0962
30792W        W47639   1.695  15.650   3.109 -0.0059 -0.1662 -0.1630
30793W        W47640  10.967  10.947  14.961 -0.1523  0.0880 -0.0245
30794W        W47641  14.327   4.624  13.722 -0.3096 -0.1173 -0.0561
30795W        W47642  15.131   3.251  10.288 -0.0629  0.2402 -0.0812
30796W        W47643  17.167   6.781   2.690  0.0058  0.0475 -0.0267
30797W        W47644  15.809  16.446   2.765  0.0974 -0.0152 -0.0785
30798W        W47645   4.244  15.722  11.242 -0.0887  0.0798 -0.0088
30799W        W47646  18.288   4.638   5.312  0.1690  0.1483  0.4310
30800W        W47647   3.205  14.899   3.963 -0.0349  0.1364  0.0190
30801W        W47648   9.256   1.090   3.346 -0.1180 -0.0237 -0.0294
30802W        W47649   4.081  11.896  11.988  0.3310 -0.1043 -0.3043
30803W        W47650   1.940   1.415   3.720 -0.1393 -0.4284  0.1180
30804W        W47651   9.983  16.758  14.938  0.1023 -0.0804 -0.0048
30805W        W47652   3.281  16.508  15.109 -0.3025 -0.1518 -0.0127
30806W        W47653   5.262   9.353  13.110  0.3244  0.4879 -0.0920
30807W        W47654   2.622  11.018   4.042 -0.0323  0.1128 -0.0422
30808W        W47655  11.071   1.566   1.141  0.0198 -0.0329 -0.1792
30809W        W47656   8.089  18.646  15.360  0.4254 -0.1269  0.1694
30810W        W47657   4.224  18.586  11.400  0.1631  0.0680  0.2731
30811W        W47658  11.025  14.818  13.080 -0.1429 -0.0950 -0.1686
30812W        W47659   7.683  18.121  13.204 -0.2355  0.0548  0.0240
30813W        W47660   1.093  13.410  12.511 -0.1457 -0.2236 -0.3818
30814W        W47661  10.617   8.361  12.124 -0.1075  0.0868  0.1253
30815W        W47662   2.717  11.445  15.377  0.0669 -0.3391 -0.1085
30816W        W47663   9.011   8.439   1.362 -0.2016  0.0723 -0.2147
30817W        W47664  11.054   2.625  13.003 -0.1408 -0.2888 -0.1551
30818W        W47665  11.894   8.749  13.741 -0.0871 -0.1852 -0.1277
30819W        W47666   1.194  11.030   1.647 -0.3801 -0.0063  0.0986
30820W        W47667   5.420   9.504   3.015 -0.4935  0.2348  0.1529
30821W        W47668   4.174   9.929   1.236 -0.2660 -0.2309  0.1794
30822W        W47669   1.604   3.286   4.161 -0.1727  0.0182  0.0602
30823W        W47670  17.908  15.531   2.341  0.0522 -0.0094 -0.0501
30824W        W47671   4.650  13.580   2.542  0.2084  0.0678  0.1253
30825W        W47672  16.617   0.497  11.472  0.1374  0.0890  0.0010
30826W        W47673   5.104  13.045  14.449 -0.2697  0.2199  0.0422
30827W        W47674  16.525   4.599   4.036 -0.0348 -0.1331  0.0264
30828W        W47675   7.140   7.859   3.811  0.0065  0.0394 -0.1447
30829W        W47676  16.941   2.575  13.117  0.2528 -0.1122  0.0759
30830W        W47677   8.540  17.340  13.671 -0.1347  0.2613 -0.0465
30831W        W47678   9.651   9.766   4.116 -0.2430 -0.2837 -0.0142
30832W        W47679  17.843   9.628  13.926  0.0632  0.1237  0.1065
30833W        W47680  13.045   2.711  13.643 -0.0760 -0.1952  0.1027
30834W        W47681   6.310  17.343   0.600  0.2319  0.0388  0.1305
30835W        W47682  16.631   0.862  11.875  0.2461 -0.0937 -0.2137
30836W        W47683  18.038  15.301   1.865 -0.0140 -0.1180  0.1016
30837W        W47684  17.972   9.642  11.846 -0.1594 -0.2296  0.1284
30838W        W47685   8.641   4.734  12.315  0.2047  0.1043  0.1460
30839W        W47686   5.106   3.269   3.329 -0.0231 -0.1044  0.0031
30840W        W47687   1.652  17.433   0.505 -0.0908  0.4704  0.2112
30841W        W47688  14.987   7.394   2.789 -0.1372 -0.1766 -0.1485
30842W        W47689   8.110   8.687   2.763  0.0279 -0.1466  0.0238
30843W        W47690  17.664  15.797  11.844  0.0725  0.1612  0.3959
30844W        W47691   4.918   5.897  13.896  0.2150  0.1206 -0.2058
30845W        W47692   3.343   6.572  11.634 -0.0160 -0.0642 -0.1689
30846W        W47693   0.432  10.475   5.183  0.2018  0.1059  0.5711
30847W        W47694  15.760  11.060   1.309 -0.0472 -0.3133  0.0420
30848W        W47695   1.394  17.793   1.099 -0.2650  0.1667  0.0350
30849W        W47696  12.240  16.737   3.801 -0.4019 -0.0321  0.0399
30850W        W47697  11.427   9.363   2.463 -0.0792 -0.2092  0.1854
30851W        W47698   6.556   5.621   3.620  0.0637 -0.1121 -0.0778
30852W        W47699   9.783  16.878   3.620 -0.3056  0.2672  0.0491
30853W        W47700   1.020   3.508   2.834  0.1779 -0.0160  0.2008
30854W        W47701   8.958   7.649  10.832  0.0161 -0.2334  0.0046
30855W        W47702  10.662  12.072   0.038  0.3661 -0.2262 -0.0428
30856W        W47703   8.204   2.591  12.882  0.0341 -0.0937  0.2062
30857W        W47704  12.387  10.410  13.787 -0.0584  0.1845 -0.0194
30858W        W47705  10.858  10.793  13.738 -0.0829 -0.1364 -0.1627
30859W        W47706   6.244   1.405  14.907  0.0816  0.0256  0.3038
30860W        W47707  17.592  11.607   3.554  0.1084  0.0253  0.1456
30861W        W47708  11.128  16.668  13.800 -0.2794  0.0556  0.3718
30862W        W47709   7.980   8.848  13.320  0.0548 -0.2427  0.0773
30863W        W47710  12.886   3.507  13.230  0.0972  0.0039  0.0351
30864W        W47711   7.111  13.366   0.211  0.0292 -0.0817  0.0393
30865W        W47712  16.932   5.356  14.465  0.0535 -0.2681  0.1536
30866W        W47713  12.535  16.609   1.215 -0.3680  0.0831  0.3851
30867W        W47714  12.765   3.392  13.763 -0.2666  0.2070  0.2298
30868W        W47715   9.446  18.202   1.181 -0.4876  0.2187 -0.0655
30869W        W47716   1.956   9.028   2.241  0.4151 -0.2827  0.2393
30870W        W47717  17.691  12.983  14.462 -0.0830 -0.0952 -0.2269
30871W        W47718   1.407  16.652   2.502  0.3035 -0.1210 -0.3237
30872W        W47719  13.457   8.581  12.605 -0.0752  0.0246  0.1054
30873W        W47720   8.462   6.680  15.136  0.2026  0.2070 -0.2330
30874W        W47721   9.952  15.193   1.851  0.1487 -0.2063  0.0344
30875W        W47722  15.964  18.186   1.211 -0.1204  0.1698  0.3143
30876W        W47723  13.059   7.094   5.244 -0.1808 -0.2142  0.0925
30877W        W47724   2.497  16.163   2.218 -0.2412 -0.0768  0.0041
30878W        W47725  11.112   0.288  13.907  0.0403  0.1166  0.0209
30879W        W47726   7.961   9.512  14.626  0.1472 -0.1293 -0.3596
30880W        W47727  18.766  10.566   6.143 -0.2301  0.2594 -0.0176
30881W        W47728   1.627   7.269  12.090  0.1788 -0.1917  0.1825
30882W        W47729   2.222  14.574  13.422  0.1933 -0.3179 -0.1773
30883W        W47730  12.414  15.455   4.476  0.2337  0.0453 -0.3686
30884W        W47731  10.144  10.890   3.596  0.2687 -0.1174 -0.0912
30885W        W47732  17.215  15.458   4.439 -0.0221 -0.1237  0.1788
30886W        W47733  16.330   8.913   4.007  0.0397  0.0439  0.2185
30887W        W47734  14.817  15.614   3.419  0.1230 -0.3330  0.1015
30888W        W47735   9.281  13.491  14.300  0.0886  0.0550 -0.1477
30889W        W47736  12.660  18.027  11.691 -0.0130 -0.4382  0.2150
30890W        W47737  16.474  10.524   1.483 -0.0611 -0.1232 -0.1656
30891W        W47738   6.267   8.476   1.844  0.2010 -0.2838 -0.0265
30892W        W47739   7.148  17.222  12.327  0.0699  0.1701  0.1342
30893W        W47740  18.437  10.612   3.094  0.0530  0.1832 -0.1636
30894W        W47741   5.553   2.479   0.533  0.1511 -0.0070 -0.0173
30895W        W47742   9.721  10.707  15.315 -0.2755 -0.0394 -0.0347
30896W        W47743  17.659   2.699  15.001  0.1268 -0.1886  0.2315
30897W        W47744   6.574  10.348  13.653  0.0510  0.0586  0.0648
30898W        W47745  17.709   2.632   5.849 -0.2222 -0.5597  0.1827
30899W        W47746  10.329   0.196   0.370  0.0075 -0.1688 -0.0668
30900W        W47747   9.373  15.065   4.204  0.0210 -0.3453 -0.1235
30901W        W47748  10.949  13.037   1.471 -0.0351 -0.1165 -0.0442
30902W        W47749  14.932  11.418  13.931  0.1595 -0.0787  0.2096
30903W        W47750   2.420  18.697  12.071 -0.3150 -0.1459  0.0527
30904W        W47751  16.952   0.459  14.859  0.2000 -0.0411 -0.2644
30905W        W47752   8.908  18.578  10.482  0.2396 -0.0834 -0.1692
30906W        W47753   2.377  14.161  12.954 -0.0651  0.2023 -0.1068
30907W        W47754   1.464  17.785   4.348 -0.5749 -0.4374 -0.0790
30908W        W47755   7.496   8.027   0.887 -0.0504  0.0002 -0.3796
30909W        W47756   5.667   5.129  12.990 -0.0668 -0.3457  0.2345
30910W        W47757   8.987   7.199   1.101 -0.1286  0.0101 -0.0151
30911W        W47758   4.181   3.116  14.603  0.1697  0.2314 -0.0142
30912W        W47759  14.147  16.021   1.267 -0.1632  0.2581 -0.0939
30913W        W47760   0.784  12.678  11.908  0.1797 -0.1728  0.0631
30914W        W47761  17.776  12.769  15.381 -0.0995  0.3433 -0.3030
30915W        W47762   6.359  17.618   4.294 -0.2014  0.0805  0.0026
30916W        W47763  14.792   5.619  12.742 -0.1096 -0.1686  0.4110
30917W        W47764  11.094   0.759  13.762 -0.0137 -0.1994  0.1862
30918W        W47765  13.002   1.462   4.276  0.0754 -0.0294  0.2890
30919W        W47766   7.678  15.989  11.751 -0.3329  0.0366 -0.2650
30920W        W47767  13.229   3.198  13.631 -0.1468 -0.2391 -0.5074
30921W        W47768  16.074   9.892   4.149  0.1383  0.0872  0.0617
30922W        W47769   0.062  10.751   1.364 -0.1780  0.0912 -0.2825
30923W        W47770   9.736   6.261   4.182  0.0344  0.1456  0.2661
30924W        W47771   4.605  16.810   4.118 -0.0419 -0.1661 -0.1569
30925W        W47772   6.477   4.434   2.615 -0.0120 -0.4076 -0.2600
30926W        W47773   9.292  12.136  12.640  0.0220 -0.4182  0.1167
30927W        W47774   1.163   1.273   2.354 -0.0374 -0.2007  0.0630
30928W        W47775   7.504  17.604   2.977 -0.3886  0.1865 -0.2318
30929W        W47776  13.156  14.676   0.879 -0.0311  0.1670  0.1472
30930W        W47777  18.330   6.143   0.326  0.2535 -0.1666 -0.3636
30931W        W47778   0.830   6.313  15.514  0.1082 -0.3400 -0.3775
30932W        W47779   3.185  11.585  12.044 -0.0871 -0.1998 -0.1669
30933W        W47780   8.940   7.666   5.402  0.1162 -0.2925  0.3707
30934W        W47781  17.960  11.853  13.735 -0.0186  0.1316 -0.1967
30935W        W47782   6.856  16.852  11.157  0.0377 -0.1836  0.1021
30936W        W47783  15.993  18.170  14.237  0.1216  0.0047  0.0155
30937W        W47784   1.608  14.776  13.930  0.0628  0.2692  0.1341
30938W        W47785   6.777  17.382   3.591  0.0341 -0.0854 -0.0600
30939W        W47786  17.622  14.352  12.893  0.2798  0.1893  0.0603
30940W        W47787  14.237  15.790  15.189 -0.0101  0.1045  0.0576
30941W        W47788   7.456  13.050  11.446  0.1328  0.2078 -0.0502
30942W        W47789  13.862   3.133  13.402  0.1061  0.0834 -0.0014
30943W        W47790  15.867  16.621   0.553 -0.0508  0.1460  0.0033
30944W        W47791   8.098   8.807  10.684 -0.0565  0.0789  0.2527
30945W        W47792  10.962   8.017   1.975 -0.1250  0.1700 -0.2174
30946W        W47793  18.491   8.742   5.226  0.0871  0.2140  0.2029
30947W        W47794  12.647   7.130   2.314 -0.4407 -0.1918  0.1752
30948W        W47795   6.120   9.942   1.958  0.1584 -0.0482 -0.0729
30949W        W47796   3.116  14.158   4.667  0.0506 -0.0167  0.0179
30950W        W47797  13.174  18.179  15.515 -0.1191  0.1181  0.3184
30951W        W47798   4.674   8.637  10.852  0.2435 -0.0462 -0.0321
30952W        W47799  15.085   3.229   1.723  0.1115 -0.0916 -0.3445
30953W        W47800  11.225  12.252  12.089  0.0670  0.0147 -0.0935
30954W        W47801   3.003   5.584   0.781 -0.0263  0.2222 -0.2275
30955W        W47802  16.221   3.934   6.114 -0.2249 -0.0246 -0.2006
30956W        W47803  11.027  18.325   0.406  0.0054 -0.3440  0.2084
30957W        W47804  16.231  18.784  10.801 -0.0104 -0.2540 -0.2451
30958W        W47805  10.826   0.040  14.997  0.1485  0.0264 -0.1871
30959W        W47806   9.802   9.711  15.265 -0.1213  0.1291 -0.1898
30960W        W47807  18.413  13.962  11.947 -0.0524 -0.0629  0.0834
30961W        W47808   2.155  15.756   1.796 -0.1821 -0.1375  0.0074
30962W        W47809   2.450   8.030   3.991  0.1631 -0.1098 -0.0964
30963W        W47810   8.918  18.219   2.719  0.1089  0.0185 -0.1677
30964W        W47811  15.044  17.337   2.128 -0.3591  0.1779  0.0059
30965W        W47812   9.391  11.185   2.773 -0.2865 -0.1339 -0.1914
30966W        W47813  13.347   3.806   0.616  0.1137  0.1992 -0.2152
30967W        W47814  14.359   1.612  14.647 -0.0120 -0.0180  0.0676
30968W        W47815  12.182   5.941  12.445  0.2321  0.2241 -0.4155
30969W        W47816   7.639   2.046   0.358  0.1408 -0.1286 -0.0818
30970W        W47817   6.075  13.997   4.988 -0.0669  0.2052  0.1336
30971W        W47818   0.299   8.405  11.571 -0.2381  0.2054  0.1033
30972W        W47819   4.627   9.305  11.201 -0.3798  0.0394  0.3431
30973W        W47820   5.801   6.034  13.524 -0.2812 -0.0287 -0.3218
30974W        W47821   8.090  16.521  10.866 -0.3069  0.1289  0.0828
30975W        W47822   3.622  13.848   4.916 -0.1518 -0.0113  0.1337
30976W        W47823  18.476   2.869  14.476 -0.0546  0.1170  0.0858
30977W        W47824  13.569  12.362   4.169 -0.0502  0.1440 -0.0995
30978W        W47825   6.857   0.666   1.211  0.1877  0.1809  0.2019
30979W        W47826  13.873  17.805   3.004 -0.1941  0.1132  0.0908
30980W        W47827   8.887   4.022  15.227  0.1143 -0.3029 -0.0207
30981W        W47828   0.983   8.038  12.221 -0.1917  0.1408 -0.2662
30982W        W47829  11.416   5.754   1.055 -0.2575 -0.0632  0.2213
30983W        W47830  15.272   9.176   4.079  0.1869 -0.1661  0.0842
30984W        W47831  11.816   1.089  13.396 -0.2350 -0.0860 -0.3449
30985W        W47832  18.349  15.353   1.509 -0.0667  0.0158  0.3040
30986W        W47833   6.620  11.641  15.038  0.1295 -0.1931  0.0530
30987W        W47834   7.266   8.420  11.765  0.2552  0.4325  0.0538
30988W        W47835  18.667  13.261  14.693  0.0261  0.1680 -0.0699
30989W        W47836  18.318   0.956   1.405 -0.2884  0.2525 -0.0416
30990W        W47837   9.287   0.059   1.837 -0.3329  0.3426  0.1570
30991W        W47838   0.073  17.781   5.315  0.1982 -0.0828  0.0701
30992W        W47839  13.204   4.111   4.210 -0.0353  0.0452 -0.1987
30993W        W47840  14.496  15.000  12.997 -0.1632 -0.3161 -0.1874
30994W        W47841   8.372   7.505  13.986 -0.0065 -0.0429  0.2450
30995W        W47842   2.204   3.223   0.335 -0.1973 -0.3580  0.0252
30996W        W47843  17.339   7.404  11.092 -0.1925  0.0913  0.2641
30997W        W47844  17.945  18.178   1.450  0.0389 -0.1822 -0.0299
30998W        W47845   3.576   5.372  13.147  0.2565 -0.0492 -0.4553
30999W        W47846   7.449  15.499  10.981 -0.0445 -0.1917  0.0027
31000W        W47847   8.724  12.035   1.699 -0.0638 -0.0584  0.2577
31001W        W47848   9.772  13.276   4.661  0.0327 -0.1066 -0.1127
31002W        W47849  10.578   9.417  14.641  0.1459 -0.0705 -0.0249
31003W        W47850  12.837  15.076   4.310  0.1287 -0.0943 -0.1752
31004W        W47851  14.224  17.448   4.719  0.0479  0.2854  0.0316
31005W        W47852  11.938  18.139   3.873  0.1779  0.1993  0.0106
31006W        W47853   7.502   4.041  14.959 -0.0979 -0.0429 -0.1729
31007W        W47854  16.217  16.655   3.233  0.1020 -0.1390 -0.3284
31008W        W47855   5.777   1.834   3.186 -0.2816  0.1739  0.2041
31009W        W47856  13.039  17.978  10.743 -0.2780  0.0998  0.1249
31010W        W47857   5.846   3.550   3.320 -0.1416  0.1240 -0.3704
31011W        W47858   2.475   9.524  15.312 -0.1220 -0.1281  0.0717
31012W        W47859  17.190   1.477   1.971 -0.0740 -0.1080 -0.0090
31013W        W47860   5.468  13.643   1.326 -0.2490 -0.0715  0.1238
31014W        W47861   4.040  11.212   3.375  0.0301  0.1015 -0.1294
31015W        W47862   5.037   4.239  13.873  0.2845 -0.0208  0.0485
31016W        W47863   5.585   4.937   2.738  0.1817 -0.0840 -0.0394
31017W        W47864   7.983  15.876   5.450 -0.1161 -0.0532 -0.0661
31018W        W47865   4.061   8.137   2.944  0.1226  0.1616 -0.2586
31019W        W47866   4.159   4.763   2.085  0.1759 -0.1368 -0.0580
31020W        W47867  15.245   3.573   4.093  0.1054 -0.1521 -0.0924
31021W        W47868  18.254  14.378   4.258 -0.1060 -0.0385  0.0429
31022W        W47869   9.527  16.511  10.725  0.1985 -0.2408 -0.0550
31023W        W47870   2.756  17.690   2.304 -0.1007 -0.0135 -0.1581
31024W        W47871  12.112   8.018  11.179 -0.0762  0.2240  0.1645
31025W        W47872  14.339  16.643   5.259 -0.0325 -0.2007 -0.1321
31026W        W47873   6.181  13.198  10.053 -0.2298 -0.2025  0.0283
31027W        W47874   2.223   2.809  13.000  0.2159 -0.2699 -0.0209
31028W        W47875  15.927   8.684  13.762  0.0397 -0.2234  0.1947
31029W        W47876  15.216   5.756  13.894  0.3420  0.1934  0.3291
31030W        W47877   8.405  16.099   3.162 -0.3372  0.3786 -0.2247
31031W        W47878  15.764   4.005  12.103 -0.1517 -0.2668  0.1168
31032W        W47879   8.930  16.610   2.561 -0.3497  0.0501  0.2179
31033W        W47880  13.516   8.070  10.981 -0.2078 -0.2094  0.0837
31034W        W47881   2.851   5.589  13.278  0.0649 -0.2172  0.2383
31035W        W47882  15.190   1.047   1.295  0.1789  0.2068  0.1016
31036W        W47883   9.410   7.362  14.071  0.1860  0.1992 -0.0395
31037W        W47884   3.181  11.638   0.527  0.0155 -0.0997 -0.0604
31038W        W47885   7.921  14.873   2.967 -0.2935 -0.0926 -0.0351
31039W        W47886  16.248  12.381   4.112 -0.0362 -0.0229  0.3008
31040W        W47887  17.791  18.592   4.391  0.0461 -0.0687  0.3643
31041W        W47888   2.791  10.580  13.851 -0.1360 -0.0238 -0.0729
31042W        W47889  10.189  12.651  13.969 -0.0968  0.0467  0.3091
31043W        W47890  14.006  14.349   0.066 -0.2079 -0.0237  0.0195
31044W        W47891  11.027   6.374  11.469  0.2731  0.0970 -0.2029
31045W        W47892  13.123   0.905  12.963  0.2016  0.2773  0.0440
31046W        W47893   1.343  10.228   0.476  0.0569 -0.2930 -0.1165
31047W        W47894  18.145  14.363  11.343  0.0556  0.1958  0.2191
31048W        W47895  16.243   7.301   4.592  0.1145 -0.1642  0.1202
31049W        W47896  12.577   7.490   0.835 -0.5782  0.0159 -0.0754
31050W        W47897   1.794   4.315  11.715  0.1159  0.0261 -0.2485
31051W        W47898  13.153   6.777  14.996  0.1011  0.0125 -0.0721
31052W        W47899   7.999  11.750   3.470 -0.0755  0.0814 -0.1391
31053W        W47900   0.666   2.881  11.319  0.2081  0.1054 -0.0880
31054W        W47901   6.700  16.965  15.223  0.0028 -0.0522  0.0279
31055W        W47902   4.300   4.561   4.055  0.1802 -0.1899 -0.2093
31056W        W47903   7.906  11.103   1.809  0.0990  0.0283 -0.3146
31057W        W47904  13.355   4.496  13.695 -0.0737  0.0052 -0.0278
31058W        W47905   0.712  17.600   4.405 -0.1694 -0.0263  0.0332
31059W        W47906   6.702  12.102  11.790  0.0752 -0.1847 -0.2924
31060W        W47907   8.998   8.224   0.898  0.1678  0.0250 -0.5853
31061W        W47908   1.279  17.151  13.544 -0.2016 -0.3624 -0.3409
31062W        W47909   8.571   3.335   3.145 -0.0286  0.0526  0.0853
31063W        W47910   3.350   1.628  11.949  0.1187 -0.1993  0.1251
31064W        W47911   3.254  11.365   3.464  0.0213  0.0914 -0.2310
31065W        W47912   5.547   9.000  12.809 -0.1217  0.0026  0.2029
31066W        W47913  11.882   5.057  10.687  0.1429 -0.0766 -0.0603
31067W        W47914  12.208   1.519  12.510 -0.1724 -0.0959  0.0178
31068W        W47915   5.856   7.800  13.806 -0.1677  0.3373  0.2876
31069W        W47916   9.736  14.477   2.005  0.0866 -0.0238 -0.2897
31070W        W47917   0.159  10.098   4.266  0.2701 -0.0881 -0.3994
31071W        W47918   4.565  13.094   2.302 -0.1836  0.0813  0.2942
31072W        W47919  14.422  10.217   2.527  0.2689 -0.0836 -0.0693
31073W        W47920   1.214   4.599   0.437  0.3610 -0.0739 -0.0899
31074W        W47921   3.265   3.601  13.814 -0.1739  0.0512 -0.4992
31075W        W47922   7.855  10.368   1.998 -0.1900 -0.3263 -0.1655
31076W        W47923  11.453  10.649  12.973 -0.0950  0.1275 -0.0760
31077W        W47924   4.699   3.342   3.614  0.0037  0.0478 -0.1426
31078W        W47925  16.247   7.542  15.145  0.1079 -0.0898 -0.0557
31079W        W47926  14.140  14.480   3.495 -0.0869  0.3724 -0.1208
31080W        W47927   6.064  14.773   0.995 -0.0181 -0.2852 -0.1225
31081W        W47928   0.974   4.022  11.963  0.0015  0.1205  0.1362
31082W        W47929   0.891  10.070   1.060  0.2734 -0.0550  0.0939
31083W        W47930  17.300  18.263   5.170 -0.2802 -0.0871  0.0283
31084W        W47931   5.154   3.084  14.671  0.2818  0.0596  0.0259
31085W        W47932   5.860  11.677  13.397 -0.0971 -0.3822 -0.1815
31086W        W47933  14.952  14.249  13.994  0.0022 -0.1484 -0.1843
31087W        W47934  13.113   4.328   0.395 -0.5167  0.2211  0.1142
31088W        W47935   4.481  10.734   0.159  0.2170 -0.0477 -0.0796
31089W        W47936   1.526  11.330   2.017 -0.0980  0.0793 -0.2502
31090W        W47937  18.397   1.451   4.010 -0.0132 -0.0504  0.3153
31091W        W47938   4.925  11.500  11.603 -0.0571 -0.1124 -0.0994
31092W        W47939  16.284  16.172  11.451  0.4161 -0.1200 -0.0540
31093W        W47940   0.305   1.059  13.326 -0.1307  0.1610  0.1980
31094W        W47941  11.256   0.435   5.106  0.0842 -0.1560  0.2026
31095W        W47942   4.845  18.652   1.421 -0.1213  0.2883 -0.1813
31096W        W47943  16.158   1.045  13.934  0.0446 -0.0437  0.0477
31097W        W47944  16.653   5.692  14.745  0.1602 -0.0566 -0.1633
31098W        W47945  14.327  16.753   1.719 -0.1042  0.2600  0.2452
31099W        W47946   0.584  12.607   1.355  0.1773 -0.2513 -0.0182
31100W        W47947   3.858  11.663   3.551  0.2576 -0.1704  0.2042
31101W        W47948   2.066  11.030  13.346  0.0553 -0.1090  0.2803
31102W        W47949  11.072  13.538  13.271 -0.1137 -0.6993  0.2847
31103W        W47950  10.069  12.398  12.745 -0.2418  0.1817 -0.0727
31104W        W47951   9.092   8.607   3.534  0.1406  0.1749 -0.0641
31105W        W47952   5.134  17.781   2.861 -0.0298 -0.0813 -0.3329
31106W        W47953   0.983   7.433   4.661 -0.0296  0.1858 -0.1289
31107W        W47954   8.995   2.281   3.670 -0.3834 -0.0321 -0.0318
31108W        W47955   6.920  11.823  12.714  0.0508  0.0813  0.1824
31109W        W47956   5.506   5.966  15.139 -0.4061  0.0164 -0.0117
31110W        W47957  17.086   9.000   4.655 -0.2422  0.0415  0.0571
31111W        W47958   1.616  10.042  15.508  0.2002  0.0907 -0.1340
31112W        W47959  11.963   7.897   2.092  0.4391 -0.2504 -0.1926
31113W        W47960   9.472  17.537   2.526  0.0707  0.2446 -0.1585
31114W        W47961   7.647   1.879  12.569 -0.0785 -0.2795 -0.0572
31115W        W47962  12.941   3.252  11.503 -0.1787 -0.2374  0.0003
31116W        W47963   9.197  13.846  12.945  0.1366  0.4143 -0.1543
31117W        W47964  16.331  10.036   4.628  0.2455  0.1975  0.2949
31118W        W47965   6.350   1.611   2.029 -0.0005  0.0374 -0.0250
31119W        W47966  13.691   6.267  12.608  0.0267 -0.1366  0.1493
31120W        W47967   8.495  17.549   2.754 -0.2811 -0.0188  0.2221
31121W        W47968   0.552   6.893   2.708 -0.0866 -0.0470  0.4027
31122W        W47969   7.200   5.063   4.102 -0.3979 -0.1213  0.0519
31123W        W47970  12.893   8.998  13.934 -0.0766  0.0868  0.3613
31124W        W47971  14.752   4.404  14.090 -0.1133  0.1790  0.3539
31125W        W47972   3.706   7.305   3.844 -0.2749 -0.0356  0.0198
31126W        W47973   3.001   3.532  11.331 -0.0964  0.3381  0.1154
31127W        W47974   3.491   2.301  12.710  0.3428 -0.0649  0.0957
31128W        W47975   3.346   6.926   3.004 -0.0621 -0.0535 -0.1773
31129W        W47976  13.472   7.617   2.659 -0.0192  0.3815  0.1377
31130W        W47977   7.242   5.017   5.006 -0.0842  0.5385  0.2502
31131W        W47978   6.844   9.038   1.031  0.1361  0.2350 -0.0362
31132W        W47979  16.587  12.591  12.383  0.1918  0.0941  0.1490
31133W        W47980   3.931  15.271   4.872  0.1563  0.1428 -0.1594
31134W        W47981   9.708   1.372   2.555 -0.0418 -0.4228 -0.2051
31135W        W47982   6.211   3.188  12.786  0.1976  0.0611  0.1245
31136W        W47983  11.782  16.189   4.322  0.0674  0.1698  0.2219
31137W        W47984  13.977   0.187   3.407  0.0153 -0.1250 -0.1601
31138W        W47985  15.555  10.703   0.973  0.2471 -0.3106 -0.0704
31139W        W47986  13.007  11.360  15.314  0.1325 -0.2381 -0.2708
31140W        W47987  14.583   0.578  14.225 -0.1023 -0.0142 -0.1286
31141W        W47988   9.549   1.406  14.600 -0.0531 -0.0774  0.1066
31142W        W47989   8.828  17.598   3.621  0.0623 -0.1475 -0.1837
31143W        W47990   0.648   6.428  12.794 -0.3330 -0.1372  0.0172
31144W        W47991   9.833  12.341   2.178  0.3030 -0.0261 -0.1825
31145W        W47992   9.744  13.415   5.483  0.1140  0.2300 -0.0824
31146W        W47993   2.283   6.281   3.695 -0.0018  0.1108  0.1021
31147W        W47994   9.374   3.916   2.140  0.0605  0.0713  0.2148
31148W        W47995   2.449  13.725   1.924 -0.2088 -0.1643 -0.0572
31149W        W47996   4.080   5.706   2.334  0.0668  0.0644 -0.0511
31150W        W47997  12.311   2.609   5.006 -0.0042 -0.2882  0.0887
31151W        W47998   0.975  15.092  15.313 -0.1201 -0.1160 -0.0899
31152W        W47999   8.128  12.965   3.536  0.1093 -0.2180  0.0436
31153W        W48000   3.693   3.043   2.537 -0.1057 -0.0030 -0.1608
31154W        W48001  15.687  17.750   4.946  0.2529 -0.3289 -0.3888
31155W        W48002   3.350   4.162  11.247  0.0255  0.0617  0.0446
31156W        W48003  10.012   3.086   4.110 -0.0516 -0.1628  0.1364
31157W        W48004  14.674   3.195   1.411 -0.2515  0.0717  0.1123
31158W        W48005  13.669   9.255   4.608 -0.0644  0.3469 -0.0560
31159W        W48006   6.964  16.827   2.299  0.1912  0.3108  0.0397
31160W        W48007  13.630  18.086  13.352  0.0871 -0.2551  0.0231
31161W        W48008  16.447  17.506  14.291  0.1925  0.1072 -0.0596
31162W        W48009  11.731  13.998  14.047  0.2621  0.1043 -0.1140
31163W        W48010   4.718  12.949  14.130 -0.1596 -0.3228 -0.2786
31164W        W48011  16.025   3.848  11.132  0.0230 -0.2356 -0.1419
31165W        W48012   4.380   7.127  12.375 -0.2945 -0.3406 -0.2978
31166W        W48013   2.227  10.442   3.279  0.3071  0.4186 -0.2802
31167W        W48014   5.202  11.037   0.702 -0.0459 -0.0319  0.0129
31168W        W48015   2.994  12.138  13.255 -0.0030  0.0443 -0.2279
31169W        W48016   1.492   2.066  13.539  0.0160 -0.6065  0.1546
31170W        W48017   6.036  10.000  11.526  0.2027  0.0267  0.1445
31171W        W48018  18.548   0.678  12.689 -0.3602 -0.0562 -0.0253
31172W        W48019  14.679   3.472   1.849  0.3605 -0.0226  0.1353
31173W        W48020   5.139   7.910  13.557 -0.0079 -0.0423 -0.2518
31174W        W48021  10.080  15.010  15.287 -0.1072 -0.2964  0.1721
31175W        W48022  10.274  10.612  15.234 -0.1003 -0.0195  0.0993
31176W        W48023   9.091   0.917  12.349  0.1929 -0.0455  0.0348
31177W        W48024  12.732   0.878   3.807 -0.1876  0.0564  0.1725
31178W        W48025   1.970   9.207  15.396 -0.1746 -0.0003  0.3263
31179W        W48026   9.427  14.937   1.919 -0.1307 -0.5704  0.0719
31180W        W48027  16.732   9.583   1.428 -0.0702  0.1583  0.0458
31181W        W48028  13.252   5.751  11.511  0.0794 -0.0706 -0.2659
31182W        W48029   8.096  16.932   0.689  0.1425  0.0616 -0.0159
31183W        W48030   8.594  11.398  10.752  0.0509  0.0516 -0.1801
31184W        W48031  15.860   5.122  13.036 -0.3996 -0.0820 -0.2848
31185W        W48032   4.273  12.740   2.654 -0.0854  0.0545  0.0615
31186W        W48033  16.780   9.192  13.019  0.0815  0.2733  0.3078
31187W        W48034   9.009   1.721   1.133  0.0372  0.0109 -0.2017
31188W        W48035  10.459  18.129  13.107  0.1420 -0.1925  0.0893
31189W        W48036   5.945  12.100  10.756 -0.0191  0.1352  0.1162
31190W        W48037   2.661  10.140  12.585 -0.5086  0.0147  0.0769
31191W        W48038   4.439  12.516   1.484  0.0214  0.0209  0.1924
31192W        W48039   6.422  18.707   2.585  0.0831 -0.0585  0.2293
31193W        W48040   0.257  17.883  10.464 -0.0210 -0.1598 -0.0592
31194W        W48041   0.468   4.946  11.961  0.0279  0.3136 -0.0867
31195W        W48042   1.665  11.770   5.450 -0.1211 -0.3951  0.2283
31196W        W48043  18.678  15.046  13.729  0.1325  0.1005  0.0186
31197W        W48044  13.437  11.751  14.085 -0.0184  0.1833  0.3755
31198W        W48045  13.942   5.620  13.569  0.1284  0.3972  0.2129
31199W        W48046   7.535  15.928   4.929  0.2090  0.1820 -0.0101
31200W        W48047   0.156  14.223  14.008  0.1212 -0.1624 -0.0228
31201W        W48048   9.349  18.420  12.355  0.1639  0.0357 -0.2776
31202W        W48049  14.387   3.697  10.876 -0.0590  0.1077  0.0405
31203W        W48050   7.193  12.511   2.627  0.1453  0.0223 -0.2747
31204W        W48051  17.281  15.078   0.292  0.0561 -0.1487 -0.0067
31205W        W48052  15.341   6.642   5.273 -0.0884 -0.1189  0.2519
31206W        W48053  13.052  10.809  15.181  0.2914  0.1501 -0.0022
31207W        W48054   4.412   7.723   3.047  0.0595  0.4831  0.0582
31208W        W48055   3.062  16.359  12.862 -0.0626 -0.1821  0.0023
31209W        W48056  17.975  12.232   1.829  0.2343  0.1340  0.0881
31210W        W48057  14.164   4.901  13.292 -0.0624  0.3622 -0.1631
31211W        W48058  18.476   0.630   0.982 -0.2004  0.3040  0.2114
31212W        W48059  17.228  17.711  14.179  0.1341 -0.0722 -0.0278
31213W        W48060  18.843  15.435   9.938 -0.0898  0.2168  0.1852
31214W        W48061  10.236  16.926  13.833 -0.0216 -0.0574 -0.1893
31215W        W48062   4.930   4.624  11.897 -0.1348  0.1319  0.2212
31216W        W48063  15.219  17.626  12.591  0.0233 -0.4108 -0.0627
31217W        W48064   2.715  12.030  11.267 -0.4620  0.1258 -0.1070
31218W        W48065   0.127  13.953   1.348  0.3324 -0.0441 -0.2225
31219W        W48066   2.999  10.081  15.081  0.2314 -0.1255  0.1921
31220W        W48067   2.946   2.010   0.030 -0.0632  0.1206  0.1337
31221W        W48068  18.266  15.232  12.224  0.3891 -0.1457  0.4502
31222W        W48069  11.982  18.133  11.207 -0.0902 -0.0836 -0.1220
31223W        W48070   5.234  15.194   0.993  0.0217 -0.2202 -0.1573
31224W        W48071  13.174  15.149   4.969 -0.1987  0.1607 -0.2153
31225W        W48072  13.343   0.801  11.862 -0.0817 -0.0370 -0.1638
31226W        W48073   3.571  14.212   4.445  0.1683 -0.1557  0.0608
31227W        W48074  10.192   2.502  14.959 -0.0788 -0.1269  0.2209
31228W        W48075  10.628  15.984   0.406 -0.0953  0.1094  0.0144
31229W        W48076   2.082   9.766   0.016 -0.1381 -0.1939  0.1546
31230W        W48077   9.889   1.280  15.372 -0.2442 -0.0879  0.1970
31231W        W48078   1.621  15.283  11.587 -0.2184  0.1575 -0.2246
31232W        W48079  15.669   6.832   2.705 -0.3609  0.1406 -0.2735
31233W        W48080  15.334  10.072  12.532 -0.2123  0.0280  0.0155
31234W        W48081  18.389  14.783   4.491 -0.0388 -0.0001  0.3631
31235W        W48082  12.619  14.409  14.450 -0.1253  0.0061 -0.4067
31236W        W48083  14.339   2.026   3.928 -0.0519 -0.0291 -0.1275
31237W        W48084   9.611  15.687  14.838  0.0953  0.0615 -0.0344
31238W        W48085   6.429  15.445   0.175 -0.3420 -0.1021  0.3996
31239W        W48086  12.318  15.561   1.389  0.1598  0.2106 -0.0727
31240W        W48087   9.741  14.259  14.262 -0.1464  0.1256  0.4110
31241W        W48088  10.768   9.963   1.113 -0.1728  0.1643  0.3048
31242W        W48089  15.798   4.457   1.062 -0.0880  0.1921 -0.4145
31243W        W48090  13.779  15.360   0.849 -0.0851  0.0135  0.1622
31244W        W48091  18.068  13.512  13.292 -0.0914  0.0354  0.1884
31245W        W48092   1.008  15.244  11.600  0.2624  0.2072  0.0264
31246W        W48093  12.653   4.290   0.551  0.2400  0.4012  0.1101
31247W        W48094   5.015  10.996  11.501  0.0391 -0.0651  0.1077
31248W        W48095   4.901   5.529   5.044 -0.1090  0.1232  0.1093
31249W        W48096   2.386   6.893   0.085  0.2323  0.0973  0.1470
31250W        W48097  15.901   7.250   4.972 -0.1079  0.0547  0.0320
31251W        W48098  12.444  10.499  13.155 -0.0987 -0.0737 -0.1533
31252W        W48099  17.733   0.905  10.324  0.1945  0.2173 -0.1522
31253W        W48100  17.587   1.768  11.753 -0.2642 -0.2212 -0.0842
31254W        W48101   8.179  11.259   2.591  0.1478  0.3140 -0.1207
31255W        W48102  17.760  15.096   3.675  0.2450  0.0991  0.0803
31256W        W48103  17.880  18.499  10.768 -0.0622  0.0872  0.0645
31257W        W48104  16.930   5.224   1.872 -0.2102  0.1198  0.0431
31258W        W48105   3.669   0.084   0.920 -0.0262  0.1100 -0.2437
31259W        W48106   5.006  14.239  12.339  0.1116 -0.1118  0.0582
31260W        W48107  11.291  10.446  15.015  0.1440  0.0182  0.0090
31261W        W48108  11.333  11.842   3.670  0.1640 -0.1391 -0.3558
31262W        W48109  14.368   4.008  11.761 -0.1806  0.3054 -0.0454
31263W        W48110  17.405  11.492   4.399  0.1093  0.1902  0.3450
31264W        W48111   3.315  18.639  15.159 -0.0257 -0.3671  0.0407
31265W        W48112   5.525   7.996  12.496  0.1611 -0.1474  0.3277
31266W        W48113  12.880   3.268   3.827 -0.1954  0.0360  0.3493
31267W        W48114  11.760  15.840   0.700  0.2524  0.0123 -0.1835
31268W        W48115  15.539   6.165  12.999  0.1223  0.0390  0.0825
31269W        W48116  11.654   2.285  12.095  0.0183 -0.2484 -0.0025
31270W        W48117   7.322  18.082  11.033  0.1156 -0.2225 -0.0282
31271W        W48118   0.158  11.538  12.183 -0.2456 -0.0447  0.0726
31272W        W48119  11.639   0.042   3.347 -0.3234 -0.0133  0.1710
31273W        W48120  17.877   3.956  11.917 -0.1590  0.0656  0.0252
31274W        W48121   6.568   4.335  13.914 -0.0452  0.1640 -0.0907
31275W        W48122  16.739   3.254   4.206  0.0182  0.1134  0.1932
31276W        W48123   9.751   0.379   3.561  0.0352  0.1452 -0.0500
31277W        W48124   7.116  10.215  14.930  0.1434 -0.0291  0.0646
31278W        W48125   8.853  13.952  14.758  0.0171 -0.0755  0.1880
31279W        W48126   9.896   9.561   2.571  0.0288  0.1727 -0.2150
31280W        W48127  12.496  13.039  14.982  0.1586  0.1488  0.3097
31281W        W48128   8.408  12.888   0.307 -0.2365 -0.0212  0.2920
31282W        W48129  14.672  16.859  11.476  0.2744 -0.0761 -0.0983
31283W        W48130   9.863  13.155   0.470 -0.0631  0.0093 -0.1516
31284W        W48131  17.099   3.369   2.286  0.1194  0.0807  0.2136
31285W        W48132  10.694   8.369  11.516  0.0749 -0.1037  0.0532
31286W        W48133  16.357  13.166   0.411 -0.1831 -0.1332  0.3174
31287W        W48134   4.250   0.537   1.546  0.1575  0.5713 -0.0798
31288W        W48135   0.938  18.014   4.352  0.1836 -0.1070  0.2914
31289W        W48136   3.778  10.164  11.839 -0.5037 -0.2935  0.3190
31290W        W48137  15.155  13.043  11.282 -0.0526 -0.0109 -0.3616
31291W        W48138  14.089   3.710  11.502 -0.0701 -0.0001 -0.1084
31292W        W48139   8.760   0.424   2.988  0.0652  0.0979 -0.0807
31293W        W48140   7.280  18.660   3.577  0.2098 -0.1440 -0.1165
31294W        W48141  11.052  11.962  15.292  0.3246  0.1361  0.0136
31295W        W48142   0.896   0.747   4.245  0.0189  0.0447 -0.1596
31296W        W48143  18.164  10.866  13.303 -0.0385  0.1220  0.1714
31297W        W48144  12.196  16.224  15.513 -0.2488 -0.3149  0.2491
31298W        W48145   2.150   2.840  11.913  0.0777  0.1139  0.0470
31299W        W48146  12.223   8.137   0.316 -0.0419 -0.1798 -0.1120
31300W        W48147   1.153   0.759  13.147  0.2230 -0.0863  0.0659
31301W        W48148  15.720   4.093   4.409 -0.1840  0.0284 -0.0973
31302W        W48149  18.548  11.891   3.235  0.0846  0.1618 -0.0825
31303W        W48150   8.386  13.563  11.038  0.0266  0.2445  0.3113
31304W        W48151  16.034   0.652  11.221 -0.0804  0.0544  0.0025
31305W        W48152  14.293  11.557   5.650 -0.2314  0.1182 -0.0936
31306W        W48153   5.245  14.184   5.077  0.0488  0.0877 -0.1497
31307W        W48154  16.887  14.308  11.192 -0.2321 -0.3288 -0.0680
31308W        W48155  10.809   9.499  14.132 -0.0941 -0.1833 -0.1320
31309W        W48156  14.136  13.280  15.284 -0.2111  0.2088  0.2422
31310W        W48157   7.194  15.460   3.283 -0.1486  0.1183 -0.1561
31311W        W48158  18.682  17.815  14.090 -0.1031 -0.0496 -0.0015
31312W        W48159   6.405   7.407  10.787  0.0697 -0.0225 -0.1786
31313W        W48160  17.044  11.292  11.600  0.0368  0.2073  0.4071
31314W        W48161  11.645  11.323  14.502 -0.0764  0.2449 -0.0215
31315W        W48162   5.014   7.527   0.479 -0.1936 -0.3288 -0.1422
31316W        W48163  10.536   4.302   3.414  0.3609  0.0286 -0.2130
31317W        W48164   2.388  13.275   1.029  0.0175 -0.3726 -0.0842
31318W        W48165   4.382   5.158  11.582  0.0408 -0.0305 -0.1534
31319W        W48166  16.463   0.466  15.075 -0.1682 -0.2185 -0.0365
31320W        W48167   2.489   3.354  13.107 -0.1215 -0.1310 -0.0317
31321W        W48168   0.564   8.246   2.119  0.0730  0.3676  0.0958
31322W        W48169   3.493  17.539  12.629  0.1435  0.2712  0.1400
31323W        W48170  15.129   8.504  14.139  0.2009 -0.0253 -0.0900
31324W        W48171   4.758   9.430  13.912  0.0729 -0.0497 -0.1455
31325W        W48172  17.229  12.223   3.846  0.4358 -0.0704 -0.0212
31326W        W48173  15.532   5.529  14.555  0.1723  0.0609  0.0199
31327W        W48174   2.205   4.774   3.551  0.1679  0.0670  0.0592
31328W        W48175  12.603   2.920   0.710 -0.0012 -0.0706  0.1131
31329W        W48176   7.808  10.570  12.005  0.0875 -0.3481  0.1055
31330W        W48177   0.620   4.401   2.946 -0.0293 -0.1530 -0.0070
31331W        W48178   2.483   5.269   1.522 -0.0115 -0.1945  0.1314
31332W        W48179  13.289  13.634  12.369 -0.1786  0.0779 -0.1141
31333W        W48180  12.741  14.979  15.261  0.1060 -0.1487 -0.2845
31334W        W48181  12.764   2.647  12.701 -0.1620  0.0910 -0.1421
31335W        W48182   8.616   5.946   2.519 -0.2282  0.1463  0.1188
31336W        W48183  17.119   2.684   0.831  0.0881  0.0378  0.0318
31337W        W48184  14.583   6.122   4.190 -0.1689 -0.3060  0.3157
31338W        W48185   3.287   6.283  12.585 -0.0345 -0.2935  0.3228
31339W        W48186   1.471  18.423  10.501  0.2403  0.1093 -0.0627
31340W        W48187   2.837  11.978  15.286 -0.1910  0.0708 -0.0659
31341W        W48188  18.158   2.971  10.765  0.0359 -0.3976 -0.0949
31342W        W48189   1.422   1.760  11.278 -0.0895  0.2107 -0.2045
31343W        W48190   7.153  12.642  13.874  0.2893  0.0420  0.4395
31344W        W48191   2.378  17.848  11.203 -0.3033 -0.1899  0.0531
31345W        W48192   4.193  17.754   2.732 -0.1025 -0.0404  0.2874
31346W        W48193  16.682  17.293   3.964 -0.0077  0.2148 -0.0243
31347W        W48194   4.957   0.693  13.785  0.1078 -0.0444  0.1741
31348W        W48195  15.550  17.189   2.701  0.0369 -0.3044  0.0035
31349W        W48196  12.150   5.973   1.375 -0.1119  0.0660  0.1920
31350W        W48197  14.190  15.692  11.260  0.0957 -0.1215  0.2899
31351W        W48198   4.107  18.136   5.063  0.0753  0.1719 -0.1084
31352W        W48199   6.120   0.452   1.385 -0.3283 -0.1589 -0.2319
31353W        W48200   4.306   2.184  14.772  0.0573 -0.0659 -0.0875
31354W        W48201   2.194  15.115  10.884  0.3156  0.0733 -0.1025
31355W        W48202   6.424   7.498   3.716 -0.0393 -0.0025  0.2046
31356W        W48203  11.515   5.719  15.286 -0.0508 -0.2099  0.0441
31357W        W48204  14.407  15.232   3.227  0.2568  0.1493  0.0060
31358W        W48205  10.274   1.424  10.472 -0.0807  0.0062  0.1670
31359W        W48206  14.900  16.088  15.191 -0.2898  0.0191 -0.0549
31360W        W48207  14.181   4.248   0.297  0.1294  0.0072  0.1732
31361W        W48208  13.621  11.039  13.440 -0.1517 -0.1122  0.1101
31362W        W48209   4.198   3.662  11.149 -0.0879 -0.0484  0.1176
31363W        W48210  17.007  13.869   0.126  0.0838 -0.1938  0.4015
31364W        W48211   3.103   9.006   2.471 -0.2345  0.2233 -0.1777
31365W        W48212  18.141   6.912   5.316  0.0261 -0.0069  0.1764
31366W        W48213   8.829  17.846  13.424 -0.0119 -0.1387 -0.0786
31367W        W48214   7.915   4.399  14.825  0.0558  0.1042  0.0609
31368W        W48215  10.651  16.541  15.179 -0.2881 -0.1784 -0.1715
31369W        W48216  11.369   1.194   1.111  0.0029  0.0459 -0.0761
31370W        W48217  17.613  13.955   1.807 -0.0339  0.3768  0.0439
31371W        W48218   7.694   6.286   2.297  0.0376 -0.1732  0.2290
31372W        W48219   4.846   9.900   0.172 -0.0801 -0.1298  0.0706
31373W        W48220   6.780  12.453  12.852 -0.0943 -0.2841 -0.1043
31374W        W48221  15.332   6.744  13.636  0.1120  0.1890  0.2802
31375W        W48222  14.560  11.383   3.056  0.0830 -0.0839  0.2397
31376W        W48223  10.665  12.201  13.288 -0.0671 -0.1154 -0.1935
31377W        W48224   1.595   7.604  11.513 -0.0354  0.1461 -0.0293
31378W        W48225   1.363  13.399   0.880  0.1060  0.2772  0.1674
31379W        W48226   0.897   0.825   2.503 -0.1028 -0.2013  0.2857
31380W        W48227   8.243   4.276   3.415  0.2626 -0.0933 -0.0163
31381W        W48228  14.564  15.999   3.996  0.1659  0.0843 -0.0258
31382W        W48229  10.759   9.324  12.555  0.1809 -0.3143  0.2293
31383W        W48230  13.092   8.603  12.983 -0.1868 -0.2504 -0.0364
31384W        W48231  14.603  10.668   2.838  0.0728 -0.1376 -0.4819
31385W        W48232  17.437  13.060   0.140 -0.0602 -0.2810  0.1437
31386W        W48233  13.043   3.410   4.808 -0.3528 -0.0651 -0.1140
31387W        W48234   9.219   9.051   0.372 -0.0037  0.2269  0.1933
31388W        W48235  15.290   1.073   3.247  0.1310  0.1711 -0.2419
31389W        W48236   5.843  18.260   3.653 -0.4747  0.0400 -0.0040
31390W        W48237  10.192   5.675  12.843 -0.1717 -0.3286 -0.3670
31391W        W48238  12.565  12.664  14.096 -0.2069  0.5140 -0.1204
31392W        W48239   6.515  12.930  11.412  0.2189 -0.3941 -0.0539
31393W        W48240  16.263   2.818  14.776  0.0508  0.0827 -0.0428
31394W        W48241   7.906  17.208   1.084 -0.1779  0.0609  0.1862
31395W        W48242   0.672  15.660   1.620  0.1230 -0.0132 -0.0676
31396W        W48243  11.511   4.536  14.637  0.0630  0.0876  0.2292
31397W        W48244   6.624   1.312  13.811 -0.0403 -0.0034 -0.1497
31398W        W48245  12.880  16.840   0.762  0.1556 -0.1536 -0.1355
31399W        W48246   5.057   0.063  15.153  0.2339 -0.1995  0.0673
31400W        W48247   7.229   4.188   2.007  0.0795  0.3816  0.0457
31401W        W48248   0.280   8.332   3.550  0.1131 -0.3392  0.1929
31402W        W48249  17.794  17.464   5.627  0.1716 -0.1012 -0.0681
31403W        W48250  16.475   6.152   3.271  0.1521 -0.0766  0.0444
31404W        W48251  12.673  12.998  10.901 -0.1089  0.3127  0.2488
31405W        W48252  16.339  11.082   4.309  0.0559  0.1165 -0.2062
31406W        W48253   7.184  13.689   5.323  0.1290 -0.0424 -0.0896
31407W        W48254  18.348   8.937  14.767 -0.0295  0.0313 -0.3571
31408W        W48255  14.337  10.311   4.192 -0.0194  0.1515 -0.3088
31409W        W48256   6.202  14.994   2.836  0.0537 -0.0289  0.2869
31410W        W48257  14.255  10.094  14.698  0.1188  0.3179 -0.0083
31411W        W48258   6.450   0.369   1.026 -0.0690 -0.0962 -0.0461
31412W        W48259  14.609   3.707   2.696  0.0802  0.0956  0.0755
31413W        W48260  18.805   2.337  12.740  0.4081  0.3902  0.1271
31414W        W48261  17.597  16.586  15.479 -0.3519  0.0685  0.1466
31415W        W48262   9.107  16.410  12.268  0.0930  0.2241 -0.0980
31416W        W48263   0.425   8.728  10.645 -0.0577  0.0529  0.1387
31417W        W48264   7.137   5.539  11.034  0.2128 -0.2097 -0.0033
31418W        W48265   3.660  14.174  11.893  0.1033 -0.1014 -0.1500
31419W        W48266   4.456   5.698  12.875  0.0287 -0.1421 -0.0517
31420W        W48267   2.187  16.845  15.341  0.1079 -0.1099 -0.2842
31421W        W48268  18.115   4.912   3.267  0.1317 -0.0069  0.0857
31422W        W48269  17.774  14.407   0.650  0.2986 -0.1582 -0.1492
31423W        W48270   1.329   0.698   2.622  0.1642  0.1228 -0.0859
31424W        W48271  17.988   0.303   2.593  0.1910 -0.1846 -0.1868
31425W        W48272  18.036   6.743   0.907 -0.0779 -0.1559 -0.0949
31426W        W48273   6.270   8.160  11.862 -0.0421 -0.1873  0.1829
31427W        W48274  14.570   8.426   4.840 -0.0671  0.0998 -0.1999
31428W        W48275   9.948  10.507   2.485  0.2287  0.3349 -0.1264
31429W        W48276   8.883   5.555  12.005 -0.0073  0.0751 -0.0433
31430W        W48277   3.269  17.552  11.390 -0.4141  0.0132  0.1240
31431W        W48278   2.884  14.569  13.232 -0.2809 -0.1329 -0.0620
31432W        W48279   7.370   2.736   0.856 -0.3075 -0.2240 -0.0094
31433W        W48280   0.803  17.297   3.775 -0.3394  0.3231  0.0666
31434W        W48281  18.110  15.712   3.879  0.1850 -0.1139  0.1573
31435W        W48282   1.675   6.424  12.205 -0.1441 -0.0017  0.0544
31436W        W48283  14.072  17.826  10.719  0.0145  0.2743  0.4415
31437W        W48284   3.277  11.924  14.048 -0.0033  0.0969 -0.0079
31438W        W48285   7.787  17.680   4.647  0.0274  0.0237  0.0702
31439W        W48286  10.640  18.166   3.202 -0.2455  0.2643  0.1241
31440W        W48287  14.009  14.004   0.972  0.1446 -0.0875 -0.2087
31441W        W48288   5.437   7.236   2.195  0.3713 -0.1584 -0.0368
31442W        W48289   1.866   9.771  10.726 -0.1022 -0.1008 -0.0293
31443W        W48290  14.777  14.417  11.141 -0.0372 -0.2071  0.0169
31444W        W48291   9.978  12.928   2.916 -0.1301  0.0048 -0.2709
31445W        W48292  10.100   5.457   1.300  0.1061  0.0227  0.0372
31446W        W48293   9.165  12.872  12.023  0.3929  0.1740 -0.0954
31447W        W48294   7.981   2.337  14.178 -0.0846 -0.0678 -0.1861
31448W        W48295  17.679   8.205   6.475  0.2642 -0.0457  0.1232
31449W        W48296   0.885   6.367   2.307 -0.3650 -0.3632  0.1444
31450W        W48297  13.477  11.650   2.421  0.0477  0.0933  0.1924
31451W        W48298  15.575   6.205   3.831 -0.0317 -0.1784  0.1018
31452W        W48299  11.427   1.600  11.539  0.1407 -0.0490  0.1548
31453W        W48300   4.353   9.550  14.593  0.0996 -0.1619  0.0051
31454W        W48301   0.288  16.646  10.610 -0.1092  0.1182  0.2212
31455W        W48302   4.848  13.428  14.080 -0.2281  0.0276  0.0269
31456W        W48303   8.255  10.801   1.168 -0.0637  0.2551 -0.1815
31457W        W48304  13.053  13.190  13.043 -0.1833 -0.0464  0.1274
31458W        W48305  18.583  11.031  13.390 -0.0778  0.0302 -0.2894
31459W        W48306  12.196  15.465   3.989 -0.0272 -0.0655 -0.0200
31460W        W48307   7.722  11.954  11.756 -0.0501  0.1422  0.3098
31461W        W48308  10.497   1.267  13.685  0.2232 -0.0525  0.2888
31462W        W48309  13.114   8.149   1.444 -0.0769 -0.1077  0.0369
31463W        W48310   5.559  18.244  11.519 -0.2056  0.4492 -0.0390
31464W        W48311  16.494  18.260   3.251  0.0557 -0.1692  0.3992
31465W        W48312  15.634  15.080   3.445  0.0056  0.1891  0.2300
31466W        W48313   5.253  18.458  12.571  0.0846 -0.2000 -0.1962
31467W        W48314  13.102  13.212  10.290 -0.1655  0.3228 -0.2317
31468W        W48315  18.686  18.520   2.523  0.1275 -0.0740  0.0967
31469W        W48316  15.695   2.059   4.888 -0.4051 -0.1158  0.1351
31470W        W48317   4.389  16.195   0.564  0.2212 -0.0136  0.2081
31471W        W48318   2.037  17.713  10.750 -0.0227 -0.2539 -0.0679
31472W        W48319   5.067  10.370  12.754  0.3860 -0.0491 -0.0228
31473W        W48320   3.036   7.828   1.642 -0.0769  0.0465 -0.1386
31474W        W48321   7.680   8.117  11.582 -0.0176 -0.4229  0.1239
31475W        W48322   7.110   2.371  11.327 -0.0397  0.0549 -0.0558
31476W        W48323  11.470  12.250   4.932  0.2204 -0.2465 -0.1073
31477W        W48324   8.304  13.490   1.639  0.0904 -0.3842 -0.1084
31478W        W48325   0.639   3.285   4.898  0.0623 -0.0624 -0.0164
31479W        W48326   1.619   4.815  13.894 -0.0221 -0.2745  0.0500
31480W        W48327   8.506   8.817  11.724 -0.1346  0.1538 -0.0141
31481W        W48328  16.232  13.955  15.217 -0.2947  0.2903 -0.3154
31482W        W48329  13.096  14.062  12.955 -0.0496  0.0856  0.0607
31483W        W48330   2.572  11.790  14.127 -0.2004  0.0922 -0.1400
31484W        W48331   3.928   6.961   2.027 -0.2143 -0.1925  0.0955
31485W        W48332   6.705   0.751   4.686  0.2620 -0.0621  0.0830
31486W        W48333  12.760  17.564  12.467 -0.2263  0.1245  0.0031
31487W        W48334   2.009   5.416   2.330 -0.1814 -0.0990 -0.0756
31488W        W48335   0.196   1.773   3.934  0.0731  0.0763 -0.2320
31489W        W48336   8.714   2.663   4.176 -0.0486 -0.2397 -0.3576
31490W        W48337  15.928   1.541  12.595 -0.1796 -0.2222  0.0023
31491W        W48338   7.666  13.297  11.805 -0.2554  0.1485  0.0316
31492W        W48339   8.219   4.643   2.075  0.0429 -0.0112  0.1467
31493W        W48340   1.742   2.291  12.556  0.0934  0.2314  0.1668
31494W        W48341  18.639  14.111  11.438  0.1555  0.1455 -0.1175
31495W        W48342  18.807  18.105   5.675 -0.0049  0.1116  0.0017
31496W        W48343   3.422   0.409  13.172 -0.2714 -0.2207  0.1761
31497W        W48344  18.409   4.420  15.235  0.1691  0.0264  0.0763
31498W        W48345   4.034  13.316  11.613  0.0166  0.1526  0.2292
31499W        W48346   7.318  14.238   2.502  0.2349 -0.2348  0.1864
31500W        W48347   3.452  11.459   4.376  0.0948 -0.0721 -0.1188
31501W        W48348  13.694  10.422  11.744 -0.1094  0.2641 -0.0640
31502W        W48349   2.134   7.408   3.189 -0.2710 -0.2331  0.1368
31503W        W48350  11.661  18.809   2.005 -0.0349 -0.1151 -0.1681
31504W        W48351   0.216  17.744  14.978 -0.1840  0.1607  0.0517
31505W        W48352   6.792  12.805   1.567  0.1828 -0.1943 -0.0517
31506W        W48353   6.068   8.297  13.133 -0.1054 -0.2383  0.0632
31507W        W48354   7.403   5.457   2.671 -0.2132 -0.0938  0.1228
31508W        W48355  10.878   7.055   3.665 -0.2885 -0.0569  0.0438
31509W        W48356  16.610   6.228  13.842 -0.0183 -0.2315 -0.1505
31510W        W48357  13.412   5.735  12.547  0.2331  0.0064  0.1415
31511W        W48358  13.082  11.650   0.253 -0.1618  0.1494  0.1554
31512W        W48359  17.939  12.618  14.774  0.0637 -0.0976  0.1546
31513W        W48360   3.459   6.931   4.708  0.0008 -0.0394  0.1700
31514W        W48361  13.593   3.841   2.282 -0.0559  0.2369  0.1702
31515W        W48362  13.395  16.525   5.468  0.0125  0.2296  0.1039
31516W        W48363  10.619  16.190  12.782  0.0077  0.0731 -0.0897
31517W        W48364   4.578   2.727  12.144 -0.0487 -0.0538  0.2400
31518W        W48365  13.543  14.648  13.469 -0.4351 -0.3474  0.0552
31519W        W48366  18.420  11.932  13.860  0.1299 -0.2742 -0.3292
31520W        W48367  12.998  11.277  11.078 -0.4000  0.1778 -0.0224
31521W        W48368   0.964   1.663  11.687  0.0603  0.0549  0.1530
31522W        W48369   8.488   7.245   2.398 -0.1421 -0.0406 -0.3211
31523W        W48370  11.924  13.837  13.409 -0.0371 -0.1882  0.0972
31524W        W48371   9.193  17.637   4.913  0.0378  0.0828 -0.0868
31525W        W48372   3.270   8.825   4.756  0.2895 -0.0669 -0.0518
31526W        W48373  12.472   8.304   5.108 -0.0238  0.2259  0.2160
31527W        W48374  17.963  11.887   4.185 -0.3891 -0.1413 -0.0390
31528W        W48375   5.082   0.756  11.118 -0.1187 -0.2840 -0.1894
31529W        W48376  12.270   1.370  13.384 -0.0634 -0.0156 -0.0061
31530W        W48377   6.270  11.632  14.095  0.0361  0.0380  0.2757
31531W        W48378   9.489   2.096  15.186  0.1114 -0.0349 -0.2506
31532W        W48379   7.507  13.749  11.881 -0.3039 -0.1652 -0.1550
31533W        W48380   1.164  10.300  13.428  0.4686  0.3992  0.1671
31534W        W48381  12.632   7.949   2.819 -0.2055  0.0874 -0.0356
31535W        W48382   0.196   4.011  10.906 -0.0080 -0.2931 -0.0230
31536W        W48383   4.118   7.318   0.644  0.0011 -0.0759 -0.0788
31537W        W48384  12.503   8.973  14.290 -0.1799  0.0979  0.0668
31538W        W48385  15.012  17.148   3.934 -0.2003  0.0667 -0.2060
31539W        W48386   1.272   6.984   0.165  0.1443  0.0456 -0.4025
31540W        W48387   9.333   4.396  13.979 -0.1838 -0.1831  0.2022
31541W        W48388   5.696   7.882   2.394  0.2063  0.1378 -0.0672
31542W        W48389   8.484   9.741  11.604  0.1076 -0.2591  0.1547
31543W        W48390  10.795   9.915  12.168 -0.0386 -0.0811 -0.1445
31544W        W48391   9.395   8.501   1.026 -0.1830  0.0485  0.0245
31545W        W48392  12.959   4.624  11.704  0.0444 -0.0085  0.0035
31546W        W48393   1.812   7.855  11.105 -0.4105 -0.4136  0.0224
31547W        W48394   3.398  13.043  11.185 -0.0655 -0.1024  0.2009
31548W        W48395   6.136   1.217   4.085 -0.1771  0.1178 -0.1473
31549W        W48396  10.885  11.622   3.055  0.1355  0.4521  0.0395
31550W        W48397  13.527  18.727   1.401 -0.0064 -0.2648  0.1643
31551W        W48398   0.397   2.034  12.641  0.1184 -0.1915  0.2400
31552W        W48399  17.090   2.297  14.599 -0.1473 -0.1634 -0.2367
31553W        W48400   4.737  11.680  15.460  0.4478  0.0368 -0.1843
31554W        W48401   1.284   3.159   0.533 -0.0400  0.0970  0.0103
31555W        W48402  11.478  18.477   0.200 -0.0462 -0.1408 -0.0214
31556W        W48403   9.180  18.649   4.145  0.0188  0.2790  0.1506
31557W        W48404   3.156   0.274  14.507  0.1609 -0.0257 -0.0451
31558W        W48405   2.650   1.412   0.844  0.0099 -0.2420  0.0229
31559W        W48406  14.057   5.437   3.211 -0.0102  0.0833 -0.1532
31560W        W48407   4.826  17.417  12.816  0.0172 -0.1960  0.0693
31561W        W48408   0.857   7.035   0.429 -0.0876 -0.1021  0.0933
31562W        W48409   4.766  17.262  13.962  0.0514 -0.1018 -0.3355
31563W        W48410  14.717  14.368  13.124  0.0308 -0.3191 -0.0818
31564W        W48411  10.024  16.327   4.997 -0.3580 -0.0072 -0.0261
31565W        W48412  17.838  17.528  15.224  0.0132  0.0081  0.0620
31566W        W48413  12.245   0.241   3.368 -0.2302 -0.0899  0.3227
31567W        W48414   5.040  11.725   5.106 -0.1875 -0.3100 -0.1839
31568W        W48415   2.170  18.381  11.202  0.1344 -0.0240  0.1876
31569W        W48416   7.479  12.629  15.299 -0.2943 -0.1184  0.0335
31570W        W48417  11.470  10.224  12.660  0.1963  0.0767 -0.1141
31571W        W48418  11.618  16.348   2.139 -0.0121  0.0023  0.1655
31572W        W48419   5.624  11.920   2.368 -0.0214 -0.3497  0.0291
31573W        W48420  14.237   0.901  11.641  0.2076 -0.1226  0.3476
31574W        W48421  14.135   6.769   3.031 -0.1564  0.0815 -0.0054
31575W        W48422  11.507   9.081  11.560 -0.1770 -0.0433 -0.1480
31576W        W48423   6.739  15.134   3.906 -0.1695 -0.1431  0.1488
31577W        W48424   5.462  10.959  13.519  0.2066  0.1007  0.1446
31578W        W48425  13.059   2.600  15.338 -0.1179 -0.0189 -0.2760
31579W        W48426  11.019   4.591  14.486 -0.3453  0.1663  0.2239
31580W        W48427   9.981  13.844   3.660  0.0885 -0.3069  0.0292
31581W        W48428   2.306  17.545   1.344  0.0674 -0.1895 -0.0120
31582W        W48429   3.058   9.636   1.741  0.2260 -0.0972  0.1461
31583W        W48430  10.420   0.049   1.416 -0.0480  0.1856  0.1882
31584W        W48431   7.630   0.258  11.967 -0.2668 -0.1323 -0.0839
31585W        W48432  14.978   9.411   2.022  0.1491  0.0035 -0.0623
31586W        W48433   3.397   9.527   5.198  0.3451  0.0250  0.2272
31587W        W48434   1.265   3.184   5.715  0.0772 -0.1683 -0.1675
31588W        W48435   3.212  13.969  11.469 -0.0270 -0.2163 -0.1547
31589W        W48436   6.951  16.502  13.528 -0.1492  0.0919 -0.0728
31590W        W48437   0.587  10.985  11.579  0.3194 -0.0282 -0.0491
31591W        W48438   1.748   4.274  13.960  0.0046 -0.1123 -0.2714
31592W        W48439   9.825  17.652  13.702  0.4300 -0.4357 -0.0114
31593W        W48440  14.659   8.827  12.683  0.0894  0.0423  0.1139
31594W        W48441  15.500   0.270  14.649 -0.1356 -0.2627 -0.0283
31595W        W48442   7.664  14.984  14.761 -0.3012 -0.3058  0.0407
31596W        W48443   4.385  16.567  11.279  0.0569  0.0436 -0.1444
31597W        W48444   6.319   1.446  14.403  0.0943  0.0129 -0.0035
31598W        W48445   2.429   8.462  14.967 -0.2121 -0.1310  0.0282
31599W        W48446  12.518   5.380   3.656 -0.0672  0.2738 -0.0075
31600W        W48447   5.965   7.381  13.355 -0.0798 -0.2997  0.4027
31601W        W48448  16.470   0.626   2.491  0.1717 -0.1849 -0.0328
31602W        W48449  18.406   2.193   2.122  0.1133 -0.0590 -0.1306
31603W        W48450   2.924  14.775  11.624 -0.1316  0.0602 -0.1335
31604W        W48451   1.105   5.021   3.217 -0.0496 -0.3043 -0.1846
31605W        W48452   8.292   6.376  12.577 -0.0535 -0.3078  0.1742
31606W        W48453  10.628   9.013  14.281  0.1383 -0.2366 -0.1044
31607W        W48454   8.659  17.742  11.971  0.2891 -0.1481  0.1537
31608W        W48455  12.707  16.191  15.315 -0.1470  0.3610 -0.1022
31609W        W48456  10.160   1.429   1.685  0.0852  0.2807  0.2458
31610W        W48457  15.641   9.187  10.020  0.0795  0.3176 -0.0838
31611W        W48458  10.407   0.788  13.510  0.0322 -0.1244  0.2170
31612W        W48459   4.215  10.631  11.317  0.2597 -0.1520 -0.3823
31613W        W48460   1.391   0.719  14.306 -0.0875 -0.0418 -0.2574
31614W        W48461   2.552  13.370  15.294  0.3085  0.2019 -0.0214
31615W        W48462   8.719  17.030  15.054  0.0027 -0.2264 -0.0620
31616W        W48463  15.400   7.772   3.907 -0.2099 -0.1815  0.0925
31617W        W48464   3.971   4.638   0.016 -0.2234  0.0126 -0.0127
31618W        W48465   1.397  12.342   3.835  0.0309  0.0821  0.0820
31619W        W48466   6.817   8.831  15.493  0.1482  0.2623 -0.1107
31620W        W48467   3.535   1.308  13.189  0.0509  0.3516 -0.0161
31621W        W48468  15.395  18.386  11.323  0.1792  0.0700  0.1147
31622W        W48469   3.899  16.509   2.177 -0.1283  0.1039 -0.3068
31623W        W48470   1.816   6.876  12.401 -0.0386  0.0211  0.1792
31624W        W48471  15.533   7.346   2.887  0.0814 -0.0341  0.0941
31625W        W48472  16.352   7.249  11.786 -0.1183  0.2888  0.2746
31626W        W48473   7.254   9.115   0.002 -0.0301  0.1042 -0.0726
31627W        W48474   9.306   0.753  11.328 -0.3852 -0.1707  0.0093
31628W        W48475   8.684   2.857  14.582 -0.0331 -0.1479 -0.4397
31629W        W48476  11.288   1.476  12.091  0.3372 -0.4548  0.1243
31630W        W48477   9.210   5.745   3.291  0.1438 -0.2036  0.3336
31631W        W48478   0.477  16.055  14.398  0.1427  0.2014  0.0273
31632W        W48479  17.834   6.579  13.895  0.0887 -0.2231  0.1359
31633W        W48480   2.476   5.888  15.221  0.0386 -0.1462  0.3809
31634W        W48481  10.990  18.161   1.758 -0.1592 -0.1853 -0.1655
31635W        W48482   2.928  17.559   3.883 -0.1636  0.3189  0.1132
31636W        W48483   8.360  18.309   4.685  0.0337  0.1374  0.0985
31637W        W48484  15.209  11.206  10.949 -0.2561  0.0596 -0.0234
31638W        W48485  17.282  17.463  11.263 -0.0605 -0.0300 -0.2632
31639W        W48486  10.765  15.637  11.170  0.0553  0.0896 -0.0808
31640W        W48487   7.280   2.210   0.813  0.1080 -0.1447 -0.0667
31641W        W48488   4.054   2.634  13.727 -0.0008 -0.0961 -0.1260
31642W        W48489   8.015   1.648   2.992 -0.1761  0.2199  0.0943
31643W        W48490  16.717  11.583   1.710 -0.1560  0.1615  0.0709
31644W        W48491  18.314   2.642  11.754 -0.1206  0.1753  0.1105
31645W        W48492  16.593   6.731  12.433  0.5934 -0.0772 -0.1955
31646W        W48493   9.887  13.518  14.729 -0.1426 -0.1986 -0.1207
31647W        W48494   3.587   2.637   2.822 -0.2518  0.2982 -0.0080
31648W        W48495   8.378   2.691  11.944  0.2130  0.0073 -0.0007
31649W        W48496  13.466  10.560  13.664  0.0412 -0.0017  0.0667
31650W        W48497  13.102   0.052   2.811  0.2607 -0.0675 -0.1007
31651W        W48498   5.391   2.915  15.133 -0.1784  0.0356 -0.0655
31652W        W48499  16.975   9.555   2.676  0.0485  0.2625 -0.2178
31653W        W48500   0.194   9.758   1.347 -0.1090 -0.1493  0.2646
31654W        W48501   5.948   8.309  11.275  0.2647  0.3521  0.1156
31655W        W48502  14.145  13.004   3.514  0.0188  0.0800 -0.0105
31656W        W48503   6.882   6.315  12.261 -0.0396  0.0209 -0.0445
31657W        W48504   7.181   3.007  13.644  0.1545 -0.1811 -0.1337
31658W        W48505   2.336  15.934   9.442  0.0160  0.3887  0.1161
31659W        W48506   9.710   9.461   6.025 -0.0947 -0.1186  0.4087
31660W        W48507   0.543   1.066   4.450 -0.2282 -0.0000 -0.0694
31661W        W48508   5.739  12.252   0.304  0.0903  0.2589  0.2621
31662W        W48509  18.251  17.194  10.384  0.4058 -0.0135  0.1581
31663W        W48510   3.939  17.051   0.725  0.3034  0.1083  0.0721
31664W        W48511   9.948   5.235  14.086  0.0352 -0.3615 -0.2727
31665W        W48512   9.363  17.684   5.532 -0.0142 -0.0959 -0.1399
31666W        W48513   1.632   7.779  12.808  0.1400 -0.2338 -0.0838
31667W        W48514   8.338  13.162  15.145 -0.0651  0.2155  0.0063
31668W        W48515  17.676  14.201  15.003  0.2291  0.0692 -0.1987
31669W        W48516   6.653   6.900   2.561  0.0257 -0.1679 -0.0910
31670W        W48517  12.715  11.910   3.155 -0.2352 -0.2892 -0.3115
31671W        W48518  13.223   2.562  14.615 -0.0606 -0.2795  0.1041
31672W        W48519  12.489   7.037   0.976 -0.1235 -0.0966  0.4262
31673W        W48520  12.394   2.966   3.972  0.1609 -0.2539  0.0564
31674W        W48521   9.616   3.490   0.584  0.1445 -0.0438 -0.0393
31675W        W48522  12.623  14.051   0.091  0.0567  0.0199  0.2783
31676W        W48523   2.634   0.867   0.884 -0.0799 -0.0828 -0.0304
31677W        W48524   6.938  17.076  11.820  0.0595 -0.1045 -0.0284
31678W        W48525   2.936  17.344  10.784 -0.3239  0.0383 -0.1409
31679W        W48526   1.430   7.686  12.321  0.2217 -0.1384  0.1219
31680W        W48527  10.596   6.125   3.826 -0.2126  0.0653 -0.0274
31681W        W48528   0.590  12.708   3.461  0.1319  0.1283  0.0218
31682W        W48529   0.049   5.361   5.811  0.0615 -0.2892  0.0831
31683W        W48530  15.708   1.791   3.788 -0.0837  0.0596 -0.0337
31684W        W48531   6.552  18.279   1.588 -0.0160  0.4115 -0.0317
31685W        W48532   8.035  17.224  14.935  0.2878  0.2027 -0.5193
31686W        W48533   7.314   6.649  12.265  0.0437 -0.3362 -0.0139
31687W        W48534  11.732   7.860  10.851 -0.3198 -0.1994 -0.1522
31688W        W48535   7.902   3.393   0.477 -0.1726 -0.1259  0.2727
31689W        W48536   6.882  17.801   2.160  0.3169 -0.2083 -0.2302
31690W        W48537  17.464  14.687  15.334 -0.1956 -0.0493 -0.3811
31691W        W48538   6.203  11.849  15.231 -0.1204 -0.0324 -0.3022
31692W        W48539  14.883   0.420  12.856  0.0340  0.0434  0.2580
31693W        W48540  14.809   6.438  15.409  0.3218  0.0992  0.1385
31694W        W48541  17.271  13.702   2.425 -0.2764  0.1371 -0.0248
31695W        W48542   3.768  13.727  14.492  0.0463  0.0161 -0.0490
31696W        W48543  12.740   5.938   2.527  0.0947 -0.2836 -0.1079
31697W        W48544  15.151  10.532   3.603  0.0518  0.0421 -0.0112
31698W        W48545  13.064  11.801  11.838 -0.1264  0.2905 -0.1823
31699W        W48546   0.737   8.964   5.693 -0.2217  0.4554  0.1513
31700W        W48547  11.157   6.543   0.675  0.0090 -0.2616  0.0125
31701W        W48548  12.086   0.279   2.137 -0.0673  0.0483 -0.2138
31702W        W48549   8.760   8.379   5.622 -0.4313  0.3081  0.1044
31703W        W48550  10.672   2.893   3.082  0.0278  0.4470  0.0329
31704W        W48551  16.192  10.786   5.599 -0.0311 -0.2363  0.0155
31705W        W48552  17.251  17.417   4.107  0.1067  0.1900  0.1293
31706W        W48553  15.014  11.999   3.858  0.1146  0.2274  0.0869
31707W        W48554   0.671  10.037   4.968 -0.0255 -0.2114  0.2282
31708W        W48555  17.010  10.475  14.591  0.2087  0.0268  0.2824
31709W        W48556   3.960   0.413   3.114 -0.1360  0.2025 -0.0667
31710W        W48557   1.261   9.789  11.805 -0.1545 -0.0142  0.1819
31711W        W48558  12.216   0.700  11.280  0.2059  0.0312  0.0667
31712W        W48559   0.443  12.664   2.694 -0.1700  0.0525 -0.0656
31713W        W48560   3.921   0.069   4.436 -0.2138  0.3075 -0.1670
31714W        W48561  17.530  16.300  14.535  0.0713 -0.1296  0.0757
31715W        W48562   0.589   2.372   2.824 -0.0532  0.0558 -0.1881
31716W        W48563   3.369  14.991  11.556 -0.1198 -0.0889 -0.0380
31717W        W48564  18.410   4.311  12.735  0.0027 -0.1775 -0.0639
31718W        W48565  16.737   3.477   3.516 -0.1183  0.0761  0.2349
31719W        W48566  15.696   2.354  12.411 -0.2776  0.1919  0.2365
31720W        W48567   0.277  13.718   3.900 -0.2290  0.1235 -0.4936
31721W        W48568   7.236   1.992  12.187 -0.1098 -0.3278 -0.2709
31722W        W48569   7.289   3.846  14.566 -0.1204  0.3377 -0.1162
31723W        W48570   6.701   1.434  15.173 -0.0757 -0.1547  0.0405
31724W        W48571  16.076  14.402   2.965 -0.0535  0.0810  0.0645
31725W        W48572   1.615  14.185  13.147  0.1035  0.0211  0.1478
31726W        W48573   7.710  15.916   0.600 -0.0261  0.1457  0.0969
31727W        W48574  11.115  11.260  14.586  0.1266 -0.1685  0.0182
31728W        W48575   0.960   4.929  10.828  0.0757 -0.0257  0.2241
31729W        W48576   3.786   8.832   4.726 -0.0398  0.1438  0.2880
31730W        W48577   6.380  16.154   1.840  0.1172  0.2387  0.1133
31731W        W48578   9.402   3.400   0.064 -0.1673 -0.2929 -0.0898
31732W        W48579   8.959  14.586   2.686 -0.3392 -0.0498 -0.0119
31733W        W48580  17.765  12.234  12.948  0.0464 -0.1578  0.1627
31734W        W48581   9.649   1.194  12.728  0.2369  0.0210 -0.2019
31735W        W48582  18.096  18.433  11.320 -0.3381  0.1131 -0.3680
31736W        W48583   7.757  11.502  10.373  0.2875 -0.0736  0.3046
31737W        W48584   0.256  13.445  12.543 -0.1718  0.2075 -0.3350
31738W        W48585  12.786  11.841  13.335 -0.2808  0.1812  0.1047
31739W        W48586  15.046   2.212   2.606  0.0736  0.2450 -0.0004
31740W        W48587  15.735   2.861   3.130  0.0478  0.2996  0.0111
31741W        W48588   3.442  17.257  12.162 -0.0079  0.2630  0.1733
31742W        W48589   4.511   5.300  14.665 -0.0917  0.0063  0.0912
31743W        W48590  11.277   3.544   0.452 -0.1992 -0.2941 -0.0893
31744W        W48591  14.008  10.340   2.257 -0.1022  0.0723  0.1264
31745W        W48592   8.202   1.683  12.300  0.4249  0.0603 -0.0571
31746W        W48593  10.847  15.178   2.301 -0.0286 -0.0565 -0.2403
31747W        W48594  10.477  15.639  13.029  0.0902 -0.0709  0.0357
31748W        W48595   8.704  11.692   4.377 -0.0322  0.0861  0.1879
31749W        W48596  10.666  16.101   3.395 -0.0007  0.1213  0.3131
31750W        W48597   8.785   3.326  12.235  0.0992  0.1547 -0.1303
31751W        W48598  10.943   4.977   2.652  0.0077  0.2314 -0.1620
31752W        W48599  11.621   8.681  15.382 -0.2188 -0.1247 -0.1008
31753W        W48600  13.004  15.807   3.823 -0.0838 -0.1352 -0.1573
31754W        W48601  16.671   7.162   1.420  0.1695 -0.1572 -0.0076
31755W        W48602  10.425  14.579   3.231  0.3158 -0.0403 -0.2504
31756W        W48603  15.508   9.741  13.701 -0.0727 -0.1980  0.0472
31757W        W48604   6.484   6.928  14.993 -0.0880  0.0180  0.1493
31758W        W48605  13.722   4.588  10.781  0.0090 -0.1728 -0.1932
31759W        W48606  13.621   6.832   1.860  0.4724 -0.1192 -0.0180
31760W        W48607  18.263   6.409   4.480  0.1303 -0.0362 -0.1617
31761W        W48608   7.314  12.080   2.399 -0.0018 -0.1145 -0.5425
31762W        W48609   2.223  11.103  12.731 -0.0792  0.1931  0.1705
31763W        W48610   6.704   8.528  14.058 -0.2961  0.0872  0.0332
31764W        W48611   2.030   2.654  13.497  0.0652  0.0674 -0.1082
31765W        W48612  10.193  11.637   2.534 -0.1585 -0.2677  0.0817
31766W        W48613  10.320   2.454   4.866  0.0770  0.0768 -0.0694
31767W        W48614   9.576  13.265   0.918  0.4172 -0.2306  0.0522
31768W        W48615   5.031  15.058   4.696  0.2086 -0.0054 -0.0123
31769W        W48616   7.045   6.780  13.120  0.0376 -0.3186 -0.2912
31770W        W48617   6.269   8.722  14.823  0.2342 -0.1060  0.3550
31771W        W48618  10.261   7.757   3.447  0.0949  0.1918 -0.0546
31772W        W48619   3.137  10.286  12.612 -0.2690  0.1384 -0.3035
31773W        W48620  14.181   3.567  15.121 -0.1982 -0.0326 -0.2929
31774W        W48621  18.568  11.966   1.063  0.5605  0.2235 -0.3369
31775W        W48622  12.210   1.619   5.980 -0.0908  0.1066 -0.1095
31776W        W48623  12.313  10.442  10.851  0.1921  0.2295  0.1173
31777W        W48624  10.558   2.806  14.765 -0.1991 -0.0463 -0.0787
31778W        W48625   4.262   7.702  11.580  0.2996  0.3506 -0.0590
31779W        W48626   4.496   4.672  11.620  0.2660 -0.1982  0.0884
31780W        W48627   8.360   4.341   4.529 -0.0399 -0.1062  0.0020
31781W        W48628   1.963   8.826   1.663  0.1731 -0.1236  0.1351
31782W        W48629  17.962  17.011  14.956 -0.0798  0.1283  0.1778
31783W        W48630   3.319  16.263  10.532  0.2406 -0.1416  0.2449
31784W        W48631  15.890  13.970   1.407  0.1211 -0.1076 -0.1027
31785W        W48632   2.785   6.334  13.897  0.0043  0.2063 -0.0766
31786W        W48633   7.789  16.312   5.750  0.1412 -0.0303  0.1459
31787W        W48634   7.759   2.395   0.754 -0.1544  0.3949 -0.3239
31788W        W48635  16.910  18.412   4.418  0.1609 -0.1208 -0.0421
31789W        W48636  17.420  11.676  13.677  0.1832 -0.3648 -0.3001
31790W        W48637   9.916  18.785  14.036 -0.1028 -0.0509 -0.0384
31791W        W48638   8.475   5.586  12.437  0.1884  0.0083  0.3106
31792W        W48639  18.508   2.892   5.183  0.0356  0.1552 -0.0225
31793W        W48640  12.294  14.967   4.125 -0.0062 -0.0593  0.1667
31794W        W48641   3.001  10.730   4.291  0.0275 -0.0900 -0.0630
31795W        W48642   7.384   6.223  12.469 -0.0915 -0.3701 -0.2345
31796W        W48643  18.680  15.855  14.986 -0.1819  0.0302  0.2551
31797W        W48644  17.253   5.267  12.825 -0.3674 -0.6412 -0.1854
31798W        W48645  13.808   8.182   0.474 -0.2400 -0.0142 -0.0314
31799W        W48646  16.280   0.313   2.910 -0.0673 -0.0353  0.1664
31800W        W48647  12.655  11.022  12.531  0.0765 -0.0240 -0.0976
31801W        W48648  12.588  16.990  12.471 -0.1145  0.0767  0.0082
31802W        W48649  12.934   6.406  15.198  0.0107  0.1469 -0.0074
31803W        W48650   9.113   0.639   4.958  0.0505  0.0322 -0.2097
31804W        W48651  18.665  13.753  10.545 -0.0269  0.1075  0.1203
31805W        W48652   3.995  13.701   2.579  0.1164  0.0692  0.1367
31806W        W48653  15.789   3.826   2.733  0.0964 -0.0839 -0.0047
31807W        W48654  13.614   7.196  15.489  0.1196  0.1639  0.1253
31808W        W48655  15.582  14.920   6.040  0.1199 -0.1025 -0.0769
31809W        W48656   8.001   9.525  11.458  0.0074  0.1135  0.2017
31810W        W48657  11.880  17.610   0.522  0.2196  0.0806 -0.0321
31811W        W48658  18.092   8.958  12.768 -0.0024  0.2302 -0.0207
31812W        W48659  11.146   3.895  12.718  0.2421  0.1526  0.1798
31813W        W48660   0.921  10.117  14.463  0.1879 -0.0392  0.1362
31814W        W48661   4.792   9.534   2.274 -0.1815 -0.0091 -0.0589
31815W        W48662  16.372   8.726   0.353  0.1445  0.1918 -0.0778
31816W        W48663   6.907  10.383  13.194  0.1165 -0.0840  0.0407
31817W        W48664  10.411   9.481   5.177  0.1074  0.1083 -0.1635
31818W        W48665  13.069  18.211  13.176  0.0430  0.1270 -0.1817
31819W        W48666   7.237   8.946  11.723 -0.0901 -0.1224  0.0530
31820W        W48667  11.942   7.880  13.404 -0.1495  0.1473 -0.1195
31821W        W48668  18.841   8.112  11.382  0.2041 -0.1169  0.0192
31822W        W48669   8.403   1.258   1.657  0.0596  0.0479 -0.0543
31823W        W48670   8.897   1.789  12.936 -0.1696  0.1347 -0.0097
31824W        W48671   2.685   2.596   2.241  0.0595  0.0586 -0.1849
31825W        W48672  13.796   2.510  12.134 -0.1277 -0.0133  0.0788
31826W        W48673  16.526   4.612  12.858 -0.3261 -0.1334  0.0090
31827W        W48674  11.547  14.487  14.879 -0.1571  0.0478 -0.0630
31828W        W48675   3.686   6.326   3.722 -0.0656  0.1482  0.0173
31829W        W48676   4.615   8.669   4.729  0.3497  0.0118  0.3866
31830W        W48677  10.618   3.018   1.538 -0.0319 -0.1914 -0.0912
31831W        W48678  17.225   4.739   0.611  0.2271 -0.0898 -0.1860
31832W        W48679  13.386  16.086   3.853  0.1370  0.0544  0.2212
31833W        W48680   0.511   2.044   4.290  0.0399  0.1029  0.1581
31834W        W48681  12.071   4.269   2.549 -0.2121 -0.0163 -0.0755
31835W        W48682   9.141   9.760   0.907 -0.1028  0.1614  0.2269
31836W        W48683   3.631  16.725   5.348 -0.0084 -0.0009 -0.3311
31837W        W48684   7.946   9.001   1.659  0.2062 -0.0503 -0.0822
31838W        W48685  16.930   3.480   0.252 -0.0882 -0.4203 -0.1908
31839W        W48686  13.075  15.333   3.008  0.3496  0.0408  0.0588
31840W        W48687   2.238   4.814  15.171  0.1783  0.1014 -0.2936
31841W        W48688   8.858  13.437  11.961  0.3285 -0.0807  0.1641
31842W        W48689   1.754  14.953   0.240 -0.0837 -0.1289  0.3433
31843W        W48690  14.560   2.006   2.345 -0.1541 -0.2164  0.1047
31844W        W48691   2.334  17.918  14.213 -0.1469 -0.0016  0.0861
31845W        W48692   9.252   3.124  12.054  0.1516 -0.0337 -0.0980
31846W        W48693  13.228  13.109  15.434  0.1518  0.4477  0.2209
31847W        W48694   1.929   3.164  12.279  0.2000  0.3449  0.3811
31848W        W48695   0.305   6.495   4.044  0.2278 -0.0076  0.1394
31849W        W48696  10.816  15.231   4.413 -0.2253  0.3485 -0.2365
31850W        W48697  12.797   2.753   4.224 -0.1345 -0.1410 -0.0362
31851W        W48698   2.423  17.838   0.914  0.0387  0.0575 -0.1068
31852W        W48699   5.368   2.803   4.693 -0.1362 -0.1500 -0.0537
31853W        W48700   9.671   9.357  10.896 -0.2989 -0.1494 -0.0528
31854W        W48701  16.123   5.065  11.119 -0.0475 -0.0214  0.1146
31855W        W48702   0.218   7.984   3.843  0.2463  0.0998 -0.1785
31856W        W48703  11.908   7.626  15.097 -0.1309  0.4237  0.1981
31857W        W48704   5.161  15.646  10.760 -0.0730  0.3887  0.2636
31858W        W48705  10.614   3.664  15.458  0.1448 -0.0076 -0.0370
31859W        W48706   2.158   0.568  14.230  0.2203 -0.0014 -0.0191
31860W        W48707   3.347  15.152  12.518  0.0650 -0.0015  0.0575
31861W        W48708  18.092   2.628   2.180  0.0303  0.1272  0.0682
31862W        W48709   0.971   8.169   2.401  0.1560  0.3870  0.0924
31863W        W48710  17.044  16.844   1.450 -0.0416  0.2135 -0.0959
31864W        W48711   9.297   5.932   5.403 -0.2397  0.1721  0.0468
31865W        W48712  10.802   7.269  11.826 -0.1030 -0.2847 -0.0882
31866W        W48713   5.194   1.396   1.404  0.1562 -0.0677  0.2404
31867W        W48714   9.723  12.839  11.201  0.0424  0.0025 -0.1022
31868W        W48715   9.067  16.150   4.578  0.1958 -0.1135 -0.1802
31869W        W48716   6.284   4.841   3.011  0.2218  0.2428  0.0845
31870W        W48717   8.080   0.217  11.278 -0.1529 -0.2389 -0.1948
31871W        W48718  17.003  11.272   1.323  0.1522 -0.1121 -0.0902
31872W        W48719   3.681   9.160   0.168 -0.3526  0.0023 -0.2200
31873W        W48720   5.581   6.881  11.695 -0.0157  0.0039 -0.1221
31874W        W48721  12.503  10.867   2.485  0.1255  0.1358  0.2178
31875W        W48722  18.559  17.999  11.784 -0.2328  0.3373  0.1267
31876W        W48723   9.871   1.119  14.860  0.0305 -0.1831 -0.1710
31877W        W48724  11.376   8.624  13.394  0.1936 -0.0956 -0.1177
31878W        W48725  16.388  14.996  13.958 -0.1284  0.1831 -0.0683
31879W        W48726  10.724  18.287   2.201 -0.0923 -0.1604 -0.1427
31880W        W48727  16.894   5.620   5.152  0.1902 -0.0815 -0.2295
31881W        W48728   7.132   1.907  14.472  0.3181 -0.2458  0.1236
31882W        W48729  17.251   5.235   2.648 -0.0004 -0.0306  0.2490
31883W        W48730  15.553   2.105   1.245  0.2269  0.1473  0.1333
31884W        W48731  10.276   5.512   5.938 -0.1495  0.2825 -0.1911
31885W        W48732   4.592  17.208   3.349  0.1628 -0.1472 -0.1356
31886W        W48733  10.810   9.543  13.586  0.3453  0.0832 -0.0950
31887W        W48734  18.090  15.035  11.829 -0.2562 -0.0838  0.1742
31888W        W48735  18.334   6.317   2.785  0.2718  0.0324  0.4038
31889W        W48736   8.992  14.785   4.017  0.1952  0.0055  0.1552
31890W        W48737  12.502   2.403  13.433 -0.2497  0.2056 -0.1563
31891W        W48738   3.584  12.126   5.290 -0.6546  0.0718 -0.2815
31892W        W48739   5.614   2.051  15.416 -0.0474 -0.0227  0.0259
31893W        W48740   6.392  16.222  11.290 -0.2008 -0.0726 -0.0691
31894W        W48741  14.633  15.896  11.426  0.0931 -0.0059 -0.1004
31895W        W48742   5.438   7.836   2.866 -0.0441  0.2602  0.0411
31896W        W48743  14.229   7.748  15.205 -0.0348  0.0203  0.1042
31897W        W48744  10.781   9.983  13.795  0.3145 -0.1879 -0.1974
31898W        W48745  15.740  11.435   2.259  0.0944 -0.1029 -0.0552
31899W        W48746   5.827   0.465   0.961  0.1376  0.2421 -0.0282
31900W        W48747  16.031  18.755  13.053  0.0378  0.3079 -0.0609
31901W        W48748   9.553  18.698   3.372  0.1991  0.0428 -0.1612
31902W        W48749  16.381   2.611   3.580 -0.1623  0.3314 -0.3690
31903W        W48750   3.816  16.696   0.306  0.4404  0.1652  0.0160
31904W        W48751  17.358   8.739  14.981 -0.2221  0.1374 -0.1162
31905W        W48752   4.034   4.139   3.250 -0.0935  0.0460 -0.1382
31906W        W48753   6.943   2.192   0.445 -0.1889  0.6005 -0.1842
31907W        W48754  10.443   1.953   0.144  0.1903 -0.1199 -0.1119
31908W        W48755  18.086   4.252   4.995  0.3058 -0.1079  0.1217
31909W        W48756   1.522   4.564   1.428 -0.2261 -0.0000  0.0773
31910W        W48757  16.957   1.871  10.910 -0.1413 -0.0191  0.1356
31911W        W48758  15.346  11.069  13.243  0.0056  0.1152 -0.0280
31912W        W48759  18.231   6.490   5.617  0.0160 -0.0115  0.3231
31913W        W48760   8.963   3.550  15.403 -0.2012 -0.1388 -0.0541
31914W        W48761  15.558   8.135  15.418  0.2212  0.0434 -0.2684
31915W        W48762   1.353   0.526   0.856 -0.0907 -0.1398 -0.0832
31916W        W48763  10.257  17.210  14.790  0.2077 -0.3406  0.0139
31917W        W48764  16.849  18.013   3.399  0.1170  0.1319 -0.2198
31918W        W48765   8.488   6.932  11.225  0.0766  0.0159 -0.2363
31919W        W48766  17.050  15.683  13.519  0.3728  0.0001 -0.3341
31920W        W48767   5.141   9.071  12.503 -0.1357 -0.0170 -0.0929
31921W        W48768   4.175  10.534  11.808 -0.3515  0.2794  0.1170
31922W        W48769  12.604  12.736  13.609 -0.0750 -0.0619  0.0399
31923W        W48770  14.053   4.151  13.475 -0.2755 -0.1480 -0.2180
31924W        W48771   7.060   6.211   4.346  0.3760  0.0772 -0.3816
31925W        W48772   6.411  15.493  12.386 -0.0102  0.2952 -0.0801
31926W        W48773  18.402   2.703  13.233  0.3477  0.2072 -0.3450
31927W        W48774   5.638   0.296   3.513  0.1010 -0.4737  0.0569
31928W        W48775  10.838  13.968  13.614  0.1344  0.1097 -0.0137
31929W        W48776   9.740   3.780   5.539  0.0431  0.2025 -0.2973
31930W        W48777  17.855   9.664   4.441  0.0204  0.0884 -0.0025
31931W        W48778   4.721   3.797   4.639 -0.1098  0.0980  0.0864
31932W        W48779  16.224  17.600  10.666  0.0460 -0.1979 -0.2696
31933W        W48780   9.908   3.491  11.543 -0.0566 -0.1248 -0.0132
31934W        W48781  12.841   1.909   3.501 -0.0056  0.1323  0.1033
31935W        W48782   5.702   3.885   3.700 -0.4510 -0.0847 -0.2924
31936W        W48783   4.650  18.557  13.611  0.1764  0.0819 -0.0721
31937W        W48784   3.729   9.216  12.176 -0.2839  0.0282  0.3095
31938W        W48785   5.708   7.828   3.318 -0.0605  0.1474  0.0827
31939W        W48786   0.657   3.837  12.359 -0.0444  0.1130  0.1226
31940W        W48787   5.301   5.923   1.594  0.1133  0.0516 -0.1617
31941W        W48788  11.358  12.101  11.521 -0.3749 -0.1489 -0.0805
31942W        W48789   8.849   7.399  13.066  0.3661  0.0899 -0.0858
31943W        W48790   0.536   7.448   1.199 -0.1879 -0.1088  0.0925
31944W        W48791  18.344   2.699   1.299 -0.4161  0.1290 -0.0152
31945W        W48792  14.068  18.484  14.441  0.0127 -0.0180 -0.0705
31946W        W48793  15.741  12.698   5.294  0.0077 -0.2377  0.0939
31947W        W48794   0.883  10.274  10.705  0.1218 -0.3566  0.2514
31948W        W48795  17.510   6.467   3.743  0.1490 -0.0153 -0.1044
31949W        W48796  10.657   9.563   0.200  0.0776  0.0416 -0.0630
31950W        W48797   0.549   5.680  11.221  0.5138 -0.1488 -0.1663
31951W        W48798  17.763   2.014   1.347  0.0216  0.2197 -0.0195
31952W        W48799  15.398  15.463   5.770 -0.3062 -0.2453 -0.1980
31953W        W48800  11.949   3.520  15.299  0.1841  0.2095  0.2666
31954W        W48801   4.457   9.763  12.348  0.1309  0.1327 -0.0499
31955W        W48802  18.572  14.582  12.770 -0.0806 -0.1411  0.3899
31956W        W48803   9.426   5.727  13.328  0.1641  0.2230  0.1988
31957W        W48804   2.792  13.915  11.054 -0.0812  0.2638  0.0155
31958W        W48805  18.016  16.570   5.458  0.0899  0.2426  0.0664
31959W        W48806   0.813   8.358  14.832 -0.0345  0.0156  0.2594
31960W        W48807  15.710  13.777   4.263  0.1304 -0.0255 -0.0384
31961W        W48808  10.246  14.698   0.603 -0.0132 -0.4179 -0.0596
31962W        W48809  11.002   7.902   3.886  0.2237  0.2459 -0.0692
31963W        W48810  15.114   9.848  15.468  0.1426  0.1177 -0.0361
31964W        W48811  14.316   0.201   3.055  0.1536  0.0445  0.1813
31965W        W48812  18.219   3.914  13.517  0.4101  0.1347  0.1155
31966W        W48813   6.654   6.510  13.310 -0.3027 -0.1419  0.1111
31967W        W48814   0.444   2.741   1.352 -0.0533 -0.2666 -0.1846
31968W        W48815  13.213   6.739  15.475 -0.0838  0.2802  0.3311
31969W        W48816  17.050  10.993   3.649 -0.0943 -0.0295  0.0178
31970W        W48817  15.795  11.602   9.837  0.0125  0.0933  0.0824
31971W        W48818   3.678  13.295   3.343 -0.2061 -0.1453 -0.0865
31972W        W48819   6.411  14.004  14.103  0.2717 -0.0622 -0.2100
31973W        W48820  10.061  14.408   5.607  0.1762  0.0678 -0.2975
31974W        W48821  15.740   6.039  15.165  0.1402 -0.2605  0.0002
31975W        W48822  15.690   0.965  11.944 -0.0988  0.1304 -0.1719
31976W        W48823  10.784   6.733   1.122 -0.1457  0.0060  0.0670
31977W        W48824   7.256   0.713  14.807 -0.0658  0.1616  0.2634
31978W        W48825   0.439  18.826   3.703  0.2268 -0.1582 -0.0160
31979W        W48826   4.701  15.659  11.034 -0.2781  0.2306  0.1067
31980W        W48827   8.801   6.902   0.373  0.1434  0.0934  0.1939
31981W        W48828   8.279   3.563   3.844  0.2762 -0.0776  0.1984
31982W        W48829   2.731   4.352  14.035  0.1585  0.0237  0.3560
31983W        W48830   1.055   7.532   1.013 -0.0908 -0.1505  0.1698
31984W        W48831  11.522  13.285  12.066 -0.3218  0.0052 -0.0844
31985W        W48832   6.672   7.961   3.869 -0.0707 -0.2217 -0.0783
31986W        W48833   7.974   6.138   1.853  0.1700  0.2621 -0.0677
31987W        W48834  13.534  13.285  11.189  0.0240 -0.3295 -0.0158
31988W        W48835   5.103   0.408   4.992  0.0605 -0.2296 -0.2031
31989W        W48836  11.064  15.796   3.654 -0.1969 -0.3635  0.0553
31990W        W48837  17.638   0.466  12.508 -0.1202  0.0144 -0.1113
31991W        W48838   7.597   4.966   2.704  0.2954  0.0268 -0.1026
31992W        W48839   8.241  15.783  13.510 -0.0746  0.2718  0.1043
31993W        W48840   8.165  18.188  14.174  0.0205  0.1939  0.2104
31994W        W48841   3.306   6.089  15.278 -0.0862  0.0453  0.4699
31995W        W48842   7.514   3.382  13.500 -0.1993  0.2524 -0.0725
31996W        W48843  14.555  18.610   3.000  0.1456 -0.0423 -0.1915
31997W        W48844  16.303   6.556  14.468 -0.1613  0.4033  0.0143
31998W        W48845   5.656  14.388   3.471 -0.4130 -0.3201 -0.2350
31999W        W48846   0.767   4.406  11.676  0.3192  0.4156  0.3888
32000W        W48847  10.675   5.972   4.746  0.2247  0.2163  0.1170
32001W        W48848  14.773   1.737  12.291  0.1851  0.2091 -0.1745
32002W        W48849   0.429   7.948  11.413 -0.3017  0.1040 -0.1561
32003W        W48850  14.594  11.085   3.424 -0.0059 -0.3671 -0.1937
32004W        W48851   7.152   9.490  14.203  0.0796  0.0844  0.0433
32005W        W48852  13.917  15.010   1.227  0.2840 -0.0459  0.1488
32006W        W48853  12.099  14.973   2.722 -0.1653  0.0065 -0.1075
32007W        W48854  11.951   4.766   0.988  0.1056  0.0938 -0.1757
32008W        W48855  17.091  16.445   1.991 -0.1520  0.0185  0.1050
32009W        W48856   5.403  17.137  14.640  0.0626 -0.0332  0.1508
32010W        W48857   4.492  15.096  14.626 -0.4013  0.0956 -0.1033
32011W        W48858   9.425   3.080  15.162  0.0059  0.1040 -0.2964
32012W        W48859  15.220  12.621   5.113 -0.0265  0.1081  0.0758
32013W        W48860   0.978   0.790  14.014  0.1736 -0.0088  0.1045
32014W        W48861   6.973   3.054   3.140  0.1999  0.0840 -0.1196
32015W        W48862   3.926   6.477  14.675  0.0946  0.0818 -0.0407
32016W        W48863  11.936  18.265   2.138  0.0184 -0.0631 -0.0940
32017W        W48864  11.603  13.692  11.072  0.0288  0.2044 -0.1589
32018W        W48865   7.691  16.994   3.186  0.1222 -0.0338 -0.1747
32019W        W48866   0.788  17.864  13.435 -0.0361 -0.2229 -0.0051
32020W        W48867  14.588  15.068   1.675  0.0923 -0.0977 -0.0850
32021W        W48868  16.067  13.560   2.982  0.1145 -0.0802 -0.1258
32022W        W48869  15.061   7.792   4.374 -0.1060 -0.0514  0.1513
32023W        W48870  18.050  13.390  11.250  0.3105  0.0977 -0.2051
32024W        W48871  17.964   1.646   0.125 -0.0331 -0.1149 -0.0974
32025W        W48872  14.450   2.378  13.706  0.0248 -0.0694 -0.0976
32026W        W48873   8.789  13.094  12.369 -0.0545 -0.1276  0.1408
32027W        W48874  15.739  13.095  12.108 -0.0075  0.2031 -0.0447
32028W        W48875   0.700  18.689   1.958  0.1133  0.1678  0.1949
32029W        W48876   0.563  10.446   4.437  0.1011  0.2838 -0.2079
32030W        W48877   4.564  15.113  13.581 -0.0968  0.1930  0.2009
32031W        W48878  15.197  14.857  15.462 -0.0591 -0.1853 -0.1670
32032W        W48879  17.411   2.875   1.247 -0.0758 -0.1797 -0.2005
32033W        W48880  14.518  18.774   3.971  0.1395 -0.1493  0.1532
32034W        W48881  18.107  13.885   0.836 -0.1141  0.1453 -0.1609
32035W        W48882   3.270  16.530   4.376 -0.0159  0.0204 -0.0501
32036W        W48883   2.903   9.308  12.820  0.1184 -0.0242 -0.0045
32037W        W48884   3.053  10.980   3.211 -0.0348 -0.3888 -0.1506
32038W        W48885   0.065  11.688   4.659  0.0310 -0.0297 -0.2948
32039W        W48886  18.107   8.196   5.889  0.2511  0.0002  0.3446
32040W        W48887  17.080   5.822  12.650  0.1623 -0.1491 -0.3010
32041W        W48888   4.059   3.438   5.245  0.5473  0.2239 -0.1313
32042W        W48889   2.480  12.427   0.590  0.0433 -0.0667 -0.0392
32043W        W48890   0.637   4.272   1.994  0.1006 -0.2180 -0.1559
32044W        W48891  12.366  17.438  11.086  0.0285 -0.2768  0.2851
32045W        W48892  15.919   9.529  13.424  0.3932  0.0418 -0.2064
32046W        W48893   7.050   3.085   2.354  0.0082 -0.1493  0.0464
32047W        W48894  15.159   9.994  12.062  0.2156 -0.1437 -0.3902
32048W        W48895  17.709  11.283   2.377 -0.1727 -0.2204  0.1388
32049W        W48896  12.544  14.585   1.494 -0.0741 -0.0639 -0.0314
32050W        W48897  11.958  10.013   1.262  0.0660 -0.0580  0.1801
32051W        W48898   8.077  16.383   0.807  0.0430  0.0639  0.2104
32052W        W48899  12.428   2.177  12.054  0.3319 -0.3929 -0.2503
32053W        W48900  11.099   7.902   0.922  0.1383  0.3490 -0.3160
32054W        W48901   2.934   8.748  15.196 -0.0141  0.1236 -0.0726
32055W        W48902  11.291  14.984   3.968 -0.2556 -0.0390 -0.1243
32056W        W48903   4.375   7.764   5.016 -0.0660 -0.2217  0.2111
32057W        W48904   8.237  11.917  11.670 -0.0023 -0.1405 -0.2520
32058W        W48905   7.768  15.953   4.484 -0.1487 -0.0654 -0.1120
32059W        W48906   1.740  14.826   4.803 -0.0727 -0.2190  0.2228
32060W        W48907   9.605   5.081   3.974 -0.2844  0.1187  0.0982
32061W        W48908   8.631   3.084  13.923 -0.1667 -0.1315 -0.1392
32062W        W48909   3.294   3.194   5.097 -0.0052  0.2149 -0.0000
32063W        W48910  14.964   5.726  14.529 -0.1249 -0.3675 -0.0934
32064W        W48911  15.853   2.396  11.372  0.3035  0.2584  0.0170
32065W        W48912   9.038  13.446  10.957  0.2741  0.1086 -0.0352
32066W        W48913   7.979  17.935  11.561  0.0132 -0.1127 -0.0565
32067W        W48914   9.848   5.610  13.744  0.2713 -0.2250  0.1550
32068W        W48915  17.260   5.067  14.662 -0.1512  0.2369 -0.0121
32069W        W48916  15.199   2.051   4.570  0.0516 -0.1331 -0.3165
32070W        W48917   2.434   7.997  15.213  0.3432 -0.3175 -0.3902
32071W        W48918   0.104  13.296   0.118  0.0840 -0.1842  0.1469
32072W        W48919  15.666   0.471  14.215 -0.1352 -0.0663 -0.0497
32073W        W48920   2.020   2.822  10.985 -0.0870  0.0585  0.2864
32074W        W48921  10.268  16.302  14.940  0.0737 -0.3147 -0.1176
32075W        W48922   7.987  11.632  12.051 -0.1418  0.0261 -0.1535
32076W        W48923  13.969  15.375   2.980 -0.3258  0.0740  0.1375
32077W        W48924   5.657  12.542  13.436 -0.0531 -0.2898 -0.1499
32078W        W48925  15.631   1.715   0.373 -0.1022 -0.0290 -0.2317
32079W        W48926  17.721   6.833   3.997 -0.1024 -0.1254 -0.0822
32080W        W48927   1.289  15.445  12.648  0.2354 -0.3672  0.0100
32081W        W48928   1.761  15.670  12.547 -0.1777 -0.0917 -0.0501
32082W        W48929  10.065  18.367   3.558 -0.3440  0.2226 -0.3967
32083W        W48930  11.057   4.044  10.468 -0.0013 -0.1875 -0.2387
32084W        W48931   3.106   9.712   0.787  0.1071  0.0433  0.2958
32085W        W48932  15.945   9.917  14.554  0.0036  0.0311  0.4167
32086W        W48933   6.015  17.262   2.645 -0.1604  0.0079  0.0846
32087W        W48934  14.421   5.582   1.757  0.1766  0.1676 -0.2919
32088W        W48935   1.926   1.396  15.261 -0.0770 -0.0968  0.1030
32089W        W48936   3.280   3.358   1.528 -0.0720  0.0173 -0.2679
32090W        W48937  12.527  10.475   3.952  0.0583 -0.1235  0.0628
32091W        W48938  11.458   7.866   1.855 -0.0415  0.0294  0.2587
32092W        W48939   9.267   3.808  13.768 -0.0402 -0.0897  0.0323
32093W        W48940   4.880   5.015   4.373  0.1412 -0.2637  0.1837
32094W        W48941   9.542  15.486   4.053 -0.0504  0.1849  0.0402
32095W        W48942  15.458  14.961  10.696 -0.0122  0.0797  0.0170
32096W        W48943  13.656  18.749   2.076  0.1658 -0.3524 -0.0115
32097W        W48944   0.989  10.474   2.456 -0.1753 -0.0558 -0.2198
32098W        W48945  10.407   1.108   2.007  0.2313  0.2729  0.3774
32099W        W48946   7.928  18.593   4.643 -0.0817  0.0307  0.1512
32100W        W48947  12.528  18.408  14.932  0.0247 -0.0788  0.0899
32101W        W48948   2.383   5.734   1.432 -0.0866 -0.0800 -0.1860
32102W        W48949   0.806   5.635   0.776 -0.0879  0.0275 -0.2338
32103W        W48950  18.829  10.262   3.379 -0.2610  0.1540  0.1397
32104W        W48951   5.510  18.647  14.076  0.4090 -0.2607 -0.0417
32105W        W48952  11.638   9.764   5.486  0.3031 -0.2967 -0.1404
32106W        W48953   6.279  13.649  14.619  0.0730  0.0192 -0.2299
32107W        W48954   0.603  11.264  11.997  0.1470 -0.2844 -0.1001
32108W        W48955  14.627  13.460   5.143 -0.2483  0.1652 -0.2124
32109W        W48956  10.167   7.348   2.180  0.2521  0.0882  0.2039
32110W        W48957  15.288   6.755  15.479  0.3869  0.2268 -0.2962
32111W        W48958  16.554   2.170  10.917  0.0010  0.1775  0.1368
32112W        W48959  18.368   9.141   4.095 -0.0066 -0.0972 -0.0561
32113W        W48960  15.209   9.784   5.294  0.0221 -0.3825 -0.2857
32114W        W48961   7.484   4.875   1.571  0.0358 -0.1136 -0.1776
32115W        W48962   2.805  13.918   0.240 -0.2809 -0.0345  0.3647
32116W        W48963   0.351   0.316  12.022  0.0088 -0.2898 -0.0630
32117W        W48964   1.528   5.931  13.208  0.4160 -0.0146 -0.0920
32118W        W48965  17.930  10.271   1.451  0.3017 -0.2351  0.0827
32119W        W48966   4.861  16.558  12.896  0.1742 -0.3893 -0.2838
32120W        W48967   7.689   9.104  11.325  0.0922 -0.0834 -0.0172
32121W        W48968  11.819  10.654  10.782  0.2293 -0.2434  0.0368
32122W        W48969   9.258   4.441   2.776  0.0036  0.0872 -0.0218
32123W        W48970  10.882   3.548   0.990  0.0191  0.2973  0.4646
32124W        W48971   9.089   8.991  12.465 -0.0803 -0.0613  0.0142
32125W        W48972  13.616  15.410  13.357 -0.3073 -0.1428 -0.0248
32126W        W48973   5.142   7.935   4.212 -0.2026  0.0342  0.2837
32127W        W48974  16.513  13.269  13.205 -0.2842 -0.0614 -0.0794
32128W        W48975   8.355   6.263  11.566  0.1387 -0.0059  0.2724
32129W        W48976  10.271   4.261  13.536 -0.0884 -0.0488  0.1535
32130W        W48977  10.955   8.959  13.893  0.2571 -0.3129 -0.4693
32131W        W48978  11.626   0.146   4.221 -0.0372  0.0662  0.1292
32132W        W48979   4.209  18.844  14.623 -0.2840  0.1197  0.2829
32133W        W48980  17.188  15.004   2.173 -0.1380  0.1114  0.0767
32134W        W48981   5.767   6.855  10.768  0.0580 -0.1225  0.1410
32135W        W48982  14.609   6.892  14.294  0.2721 -0.1475  0.1830
32136W        W48983   2.553   4.754  13.611  0.2443  0.0356 -0.0850
32137W        W48984   6.975   7.110  11.478  0.0981  0.0216 -0.2269
32138W        W48985  18.135  16.248  11.210  0.1440  0.0133 -0.0092
32139W        W48986  15.578  12.981   0.798 -0.1471 -0.0796 -0.0669
32140W        W48987  15.397   2.471   2.366 -0.3023 -0.3978 -0.0393
32141W        W48988  12.620  18.378  13.601  0.0529 -0.4329  0.3394
32142W        W48989  11.674   3.277  12.851  0.3612  0.4330  0.3150
32143W        W48990   0.810   2.465  14.800 -0.2420  0.1687  0.2422
32144W        W48991   7.879   8.654  11.149  0.0173 -0.3277 -0.1142
32145W        W48992  15.336  10.391  11.747 -0.0516  0.0518 -0.0453
32146W        W48993   7.522   6.065   1.216 -0.1320 -0.1518 -0.2374
32147W        W48994   3.563  14.939   2.109  0.0194  0.1029 -0.2663
32148W        W48995  15.099  13.146  13.159 -0.1280  0.0378 -0.0107
32149W        W48996  17.729  18.550   1.863  0.3438 -0.0376  0.1030
32150W        W48997   2.947  10.294   0.598 -0.0225 -0.1023 -0.0787
32151W        W48998  17.983   5.505   2.270 -0.2501 -0.0766 -0.0131
32152W        W48999  15.024   3.552  15.170  0.2955  0.2341 -0.0401
32153W        W49000   7.068  16.563   2.685  0.2735 -0.0807  0.0695
32154W        W49001  15.275  15.253   2.618  0.0671  0.2335 -0.0602
32155W        W49002   8.414   5.171  15.415  0.3383 -0.0895 -0.1345
32156W        W49003   5.202  17.396  13.288  0.2208 -0.1040 -0.3274
32157W        W49004  17.736   7.478   1.488  0.1887  0.2954  0.2267
32158W        W49005   3.249   0.030   1.201  0.3006  0.0379  0.1793
32159W        W49006  11.654   1.415  12.432 -0.0759 -0.1429 -0.2878
32160W        W49007  15.149   2.361   4.915 -0.0099 -0.0301 -0.1030
32161W        W49008  13.100   9.427   0.407 -0.1201 -0.1640  0.3054
32162W        W49009  11.525   9.813   4.502 -0.0596  0.1713  0.0294
32163W        W49010   5.463  17.461  12.611 -0.0655  0.0693 -0.1158
32164W        W49011  13.346   5.998   5.991  0.2287  0.1556  0.1802
32165W        W49012  17.706   2.239   4.768  0.1115  0.0399  0.2176
32166W        W49013  11.956  15.720  11.965 -0.3294  0.1356 -0.0407
32167W        W49014  15.979   6.737  14.175 -0.1372 -0.1103 -0.2883
32168W        W49015   4.854  17.121   2.873 -0.1518 -0.1688 -0.0317
32169W        W49016  16.007   6.843   2.288 -0.2948  0.1668 -0.2434
32170W        W49017   1.609   6.761   5.497 -0.1156  0.1168  0.1194
32171W        W49018  10.143  13.853  13.899  0.0331 -0.0483  0.0821
32172W        W49019   6.734  17.620   4.767  0.0755  0.3332 -0.0668
32173W        W49020   2.973  14.590  15.264  0.2528 -0.1801  0.1594
32174W        W49021   8.626   6.350  14.744 -0.4449  0.1164  0.2427
32175W        W49022   1.022   4.619  12.594  0.1352  0.1060  0.1987
32176W        W49023  10.952   6.737   3.218 -0.0264  0.1074  0.4095
32177W        W49024  16.024   8.980   1.306  0.1452 -0.1385  0.1237
32178W        W49025   6.416   3.493   2.771  0.3465 -0.0752 -0.1001
32179W        W49026   8.966  15.924   3.194 -0.2982 -0.2057  0.0537
32180W        W49027  14.648   7.905   4.752 -0.3062 -0.0065 -0.0734
32181W        W49028  11.242  12.330   3.495 -0.1106  0.0444 -0.0209
32182W        W49029  17.386  13.579   0.198 -0.3011  0.0482  0.0671
32183W        W49030   8.580  15.972   1.449 -0.0119 -0.2746  0.1506
32184W        W49031  12.108  13.610   4.060 -0.0794  0.0942  0.0694
32185W        W49032   9.242   3.053  14.583 -0.3397  0.2002  0.0502
32186W        W49033   6.121   6.640   3.931  0.0911 -0.0179  0.2737
32187W        W49034  12.468  16.554   2.824 -0.1578 -0.1271 -0.2435
32188ION     NA49035  11.913   9.171  11.916 -0.0927  0.3523  0.2866
32189ION     NA49036   9.301   1.320  10.487  0.4359 -0.1894  0.1509
32190ION     NA49037   4.206   7.510  10.314  0.4309  0.0616  0.2363
32191ION     NA49038   0.484   4.519  10.656  0.2247  0.1816  0.0409
32192ION     NA49039  15.803  15.127   5.627  0.0677  0.3074  0.3002
32193ION     NA49040   9.941  18.162   1.336 -0.2116  0.2099 -0.0540
32194ION     NA49041  17.374  15.406  12.305  0.3384 -0.0133 -0.0320
32195ION     NA49042  14.107  18.685   5.332  0.3119 -0.0154 -0.0157
32196ION     NA49043   5.276   0.961   3.337 -0.1207 -0.0104 -0.2584
32197ION     NA49044  18.144   4.602  13.077  0.0605 -0.4107 -0.3322
32198ION     NA49045  18.422   1.519   1.508 -0.0850  0.1135  0.0053
32199ION     NA49046   1.686  18.407   9.567  0.0452  0.1277 -0.0563
32200ION     NA49047  16.048   9.454   4.424 -0.0545  0.0504 -0.1378
32201ION     NA49048  17.002  17.594   5.117 -0.0494 -0.0686 -0.1992
32202ION     NA49049   3.853  12.843   4.828 -0.1595  0.0612 -0.1248
32203ION     NA49050  15.882  18.324  14.719  0.1633 -0.2497  0.0906
32204ION     NA49051   6.769   7.853   2.543  0.0583  0.3157 -0.0917
32205ION     NA49052   7.610   1.553  14.784  0.1755  0.1828 -0.1693
32206ION     NA49053   4.458  16.658  15.352 -0.1544 -0.0552 -0.1571
32207ION     NA49054  14.652   5.080  13.669 -0.3614 -0.0365 -0.0304
32208ION     NA49055   7.282   0.541  10.375  0.1910  0.1678  0.0670
32209ION     NA49056   1.244   6.574   3.372  0.0922  0.1204  0.1294
32210ION     NA49057   4.348  10.999   5.457  0.0084  0.2409 -0.0069
32211ION     NA49058   7.094   7.505   1.415 -0.2607  0.3060  0.2087
32212ION     NA49059  14.933   8.244  10.053 -0.0335  0.0039 -0.0800
32213ION     NA49060  18.629  13.229  12.716 -0.1426  0.1266  0.3834
32214ION     NA49061   5.032   9.616  13.566 -0.2561  0.2901 -0.2470
32215ION     NA49062   7.785   1.632   9.862 -0.0212  0.2254 -0.2151
32216ION     NA49063  15.280   9.992  10.272 -0.2899  0.3558  0.2526
32217ION     NA49064  10.002   3.194  10.751 -0.1927 -0.2153 -0.0133
32218ION     NA49065   6.113   5.683   0.710 -0.0170 -0.0593  0.0294
32219ION     NA49066   7.306   9.499   9.863  0.0003 -0.0552 -0.1173
32220ION     NA49067  16.493   6.300   9.936  0.3440  0.0380  0.3096
32221ION     NA49068   4.434   3.576  14.674  0.1079 -0.0362  0.0507
32222ION     NA49069   9.540  16.588   9.900  0.0751 -0.0113 -0.0174
32223ION     NA49070  14.292  17.537   5.307 -0.1045  0.0245  0.3185
32224ION     NA49071   0.828  13.134   4.131 -0.0349 -0.2018 -0.3026
32225ION     NA49072  14.015   1.400  10.147 -0.0914  0.0971 -0.0174
32226ION     NA49073   4.615   1.134   4.037 -0.0815 -0.0840  0.2430
32227ION     NA49074  14.134  10.547   5.562  0.0502  0.1301  0.3009
32228ION     NA49075  15.763   3.663   0.425  0.0677 -0.2332 -0.1611
32229ION     NA49076  10.310  16.904  15.354 -0.2385 -0.0726  0.2016
32230ION     NA49077   4.173  11.657  12.633 -0.2437  0.1275  0.2250
32231ION     NA49078  13.342   6.673   1.372  0.0347  0.5083 -0.0912
32232ION     NA49079   6.550  10.050  11.862 -0.1177  0.1224  0.1815
32233ION     NA49080  16.120  17.065  10.030  0.1916  0.1002 -0.1569
32234ION     NA49081   7.021   1.694   2.340 -0.3374  0.1051  0.2840
32235ION     NA49082   9.310   3.643  10.271  0.0192 -0.2174 -0.0900
32236ION     NA49083  18.116  12.793  10.311  0.1906  0.2780  0.0054
32237ION     NA49084   6.886   6.664   1.952  0.1834  0.0332  0.0937
32238ION     NA49085   2.662   4.032   5.268  0.0398  0.3077  0.1423
32239ION     NA49086   9.525  14.348  10.824  0.2636 -0.1172 -0.0199
32240ION     NA49087   2.385  16.203   5.264  0.2636 -0.0339  0.0732
32241ION     NA49088   4.364   6.782  14.961  0.0390  0.3701  0.1829
32242ION     NA49089  17.831   3.036   9.827  0.1844 -0.0875 -0.1780
32243ION     NA49090   3.722  15.675   4.120 -0.0217  0.0199  0.0603
32244ION     NA49091   7.532  13.658   0.369  0.1883 -0.1312  0.3866
32245ION     NA49092   0.335  17.116   9.534  0.1770  0.1264  0.1676
32246ION     NA49093  14.172   6.218   9.815  0.0552  0.2130  0.4032
32247ION     NA49094  13.449  10.818   5.043  0.0612 -0.2150  0.0585
32248ION     NA49095   2.669   9.075  14.220  0.1440  0.1947  0.0661
32249ION     NA49096   4.056  15.093   3.428  0.1469  0.1780  0.0904
32250ION     NA49097  14.590  17.206   1.396  0.2276 -0.0091  0.1267
32251ION     NA49098   3.431  18.388  10.052  0.4711  0.2102  0.0104
32252ION     NA49099   2.287   3.707   2.975  0.2788 -0.1940  0.3810
32253ION     NA49100   9.351  14.817  10.073  0.0238  0.2417  0.3042
32254ION     NA49101   9.219  15.701  10.150  0.0374 -0.1257  0.0950
32255ION     NA49102   6.190   7.568  14.228 -0.1651  0.2058 -0.0677
32256ION     NA49103  16.040  17.734   9.841  0.1843  0.0000  0.2076
32257ION     NA49104  17.210  12.091  10.289  0.1670 -0.1054  0.2141
32258ION     NA49105   2.297   6.423   5.757  0.1667 -0.0030 -0.2214
32259ION     NA49106   1.181  11.763  10.212  0.1903 -0.1527 -0.0279
32260ION     NA49107  11.201  15.096  12.611  0.2263  0.0818  0.1283
32261ION     NA49108  13.731  14.409   3.196 -0.0482  0.0458 -0.0859
32262ION     NA49109   9.191  10.147  12.297  0.1681 -0.0905 -0.2915
32263ION     NA49110   8.712  15.982  14.997  0.1901 -0.2421  0.2488
32264ION     NA49111  13.763  11.097   5.905  0.1768 -0.0827 -0.0487
32265ION     NA49112   8.945  17.015   5.597  0.0756  0.4288  0.1943
32266ION     NA49113   1.293   0.532   5.483 -0.0459 -0.0591  0.1450
32267ION     NA49114   8.555  10.860  14.017 -0.1473 -0.1522 -0.0447
32268ION     NA49115   3.611  10.997   1.997  0.0496 -0.1394  0.2555
32269ION     NA49116   0.652   0.492   9.684 -0.0303 -0.0143  0.1508
32270ION     NA49117  14.254   2.832   5.703  0.1753  0.0442 -0.0429
32271ION     NA49118   7.130   3.892  10.160  0.2990 -0.0955 -0.0400
32272ION     NA49119  17.451  14.870  13.652 -0.0749 -0.1719  0.0469
32273ION     NA49120   4.197  12.305  10.316  0.2838  0.0086  0.0921
32274ION     NA49121   3.881  16.265   9.477 -0.2143  0.2056 -0.0145
32275ION     NA49122   6.524   9.995   9.920  0.2858  0.1340  0.1650
32276ION     NA49123   3.438  13.077   2.390  0.1686 -0.0327 -0.0739
32277ION     NA49124   9.405   1.777  10.234 -0.0818  0.2040  0.0389
32278ION     NA49125   1.831   5.889  12.337 -0.2635 -0.1016 -0.0671
32279ION     NA49126   3.066   0.859  12.127 -0.0750 -0.0370  0.2580
32280ION     NA49127   3.275   6.418   5.910 -0.2035  0.2671  0.1295
32281ION     NA49128   5.311   9.065  10.258 -0.2723 -0.0726 -0.1361
32282ION     NA49129   8.247   6.323  10.527  0.2827  0.3382  0.0023
32283ION     NA49130  11.621  16.797   0.909 -0.2700  0.1018  0.0224
32284ION     NA49131  15.218   1.747   3.735  0.0248 -0.0880  0.1049
32285ION     NA49132   9.275  17.091  15.377  0.2819  0.1282  0.0975
32286ION     NA49133   6.522   7.422  13.412 -0.0138  0.2518 -0.1391
32287ION     NA49134   4.507  15.809   1.778  0.2791  0.0485  0.2320
32288ION     NA49135  10.631   6.577  10.522  0.0875 -0.2421  0.0593
32289ION     NA49136   1.543  10.925  15.528 -0.1880  0.0038 -0.0207
32290ION     NA49137  16.227  13.812   5.567 -0.0450  0.1152 -0.0429
32291ION     NA49138  14.896   8.922   3.860 -0.1588 -0.1179 -0.0156
32292ION     NA49139   5.722   1.607   0.240  0.3317  0.2270  0.0805
32293ION     NA49140  13.286   0.068   4.293 -0.1475  0.1976  0.0990
32294ION     NA49141  17.578  17.940  10.107  0.2824 -0.1043  0.0716
32295ION     NA49142  11.817   7.441  10.081  0.0866 -0.0577 -0.3847
32296ION     NA49143  15.588   6.610   9.902 -0.1582 -0.2735  0.1062
32297ION     NA49144   4.000  14.555   2.333  0.1138 -0.0019  0.0725
32298ION     NA49145  10.466  18.597   5.353 -0.0928  0.3612  0.0136
32299ION     NA49146   4.185   2.562   4.068  0.0611  0.1519 -0.1870
32300ION     NA49147  14.998   3.264   5.170 -0.0552  0.0297 -0.0648
32301ION     NA49148   2.670  18.281  13.975  0.5162 -0.1596 -0.0994
32302ION     NA49149  13.003   4.433   0.935 -0.1961 -0.0776  0.2343
32303ION     NA49150   4.929  16.267   5.311  0.0158  0.1158 -0.2486
32304ION     NA49151  17.887   0.741   1.627  0.1169  0.0780 -0.0448
32305ION     NA49152   3.359  18.046  12.638  0.1183 -0.0475  0.2482
32306ION     NA49153   3.373   4.724   5.628  0.3497 -0.0052  0.1101
32307ION     NA49154   9.700   6.183  14.769 -0.1690  0.0994  0.0098
32308ION     NA49155  13.902  11.109   1.231 -0.1421  0.0543 -0.0711
32309ION     NA49156  17.697   3.867   9.985 -0.1939 -0.3098 -0.1001
32310ION     NA49157   9.091  13.502   0.885  0.0345  0.0748  0.0583
32311ION     NA49158   0.505   1.486   9.606 -0.2488  0.1994  0.0380
32312ION     NA49159  15.292  12.978  13.991 -0.0709  0.0197  0.1939
32313ION     NA49160   0.035  10.453  10.420 -0.1139 -0.1565  0.0860
32314ION     NA49161   3.068  12.654   1.337 -0.1290 -0.3826 -0.2267
32315ION     NA49162  18.661   0.858  13.278  0.0746  0.1396  0.0022
32316ION     NA49163   6.924  17.214  12.862 -0.2185 -0.2624  0.2411
32317ION     NA49164  12.750  18.791   1.599 -0.0452 -0.4647  0.1075
32318ION     NA49165   3.648  13.851  10.067  0.0000  0.2894  0.2846
32319ION     NA49166  15.941  12.923   5.723  0.0021 -0.0804 -0.0130
32320ION     NA49167   2.802   4.996   1.832  0.0863 -0.0795 -0.1249
32321ION     NA49168   1.914   4.398   5.461 -0.0141 -0.0072  0.0676
32322ION     NA49169   9.924  11.423   2.943 -0.0974 -0.1977 -0.1270
32323ION     NA49170  10.230  17.941  10.385  0.0907  0.1460  0.1694
32324ION     NA49171  15.782   9.886   1.565  0.0711 -0.0856 -0.0812
32325ION     NA49172   4.046  13.296  15.256  0.0919 -0.2700  0.0792
32326ION     NA49173   2.372  11.561  14.987 -0.2028  0.5053 -0.0454
32327ION     NA49174   2.336   9.931  10.506  0.1801 -0.2516  0.0233
32328ION     NA49175  14.559   8.101   3.535  0.0568 -0.1145  0.0473
32329ION     NA49176  12.649  15.271   1.611  0.1431 -0.0802  0.0187
32330ION     NA49177   5.918  12.606   1.622 -0.0407 -0.1288  0.2960
32331ION     NA49178  13.217  15.639  13.668  0.1249 -0.2653  0.0656
32332ION     NA49179  13.748   7.217  10.035 -0.1012  0.1671 -0.4051
32333ION     NA49180   7.517  14.547  10.947 -0.2005  0.0450 -0.0806
32334ION     NA49181  14.639  11.891  10.190  0.1058 -0.0324 -0.3693
32335ION     NA49182  16.644  14.634   5.500 -0.0657  0.3125 -0.0758
32336ION     NA49183  16.141   2.050   4.626 -0.2075 -0.2015 -0.1955
32337ION     NA49184   3.163   5.123  10.335  0.1409 -0.0543 -0.1148
32338ION     NA49185   3.123   7.615   2.078  0.0962 -0.0247 -0.3293
32339ION     NA49186   1.143  12.794   2.193 -0.0416  0.2289 -0.0663
32340ION     NA49187  15.745  10.708   1.783 -0.1884  0.0971  0.1104
32341ION     NA49188   8.080   3.523   1.422 -0.0705  0.0962 -0.0310
32342ION     NA49189   0.657   5.423  15.162 -0.1506 -0.0771  0.0065
32343ION     NA49190  14.667   9.702  12.891  0.0077  0.0878  0.0020
32344ION     NA49191  16.740   7.270   2.437  0.0619 -0.0635 -0.2791
32345ION     NA49192  17.969   8.928  11.829  0.0712 -0.0065 -0.1805
32346ION     NA49193  13.577   5.591   5.652  0.0374  0.0172 -0.2866
32347ION     NA49194   8.636   1.638   9.768 -0.2001 -0.0086  0.1876
32348ION     NA49195  12.059   2.852   2.965 -0.2665  0.1108  0.2213
32349ION     NA49196   8.650   7.927   5.738  0.2211 -0.2030  0.2380
32350ION     NA49197   7.663   9.024   9.922  0.0180 -0.1374 -0.0751
32351ION     NA49198  10.051  15.987   0.306 -0.0324 -0.3345  0.0210
32352ION     NA49199  17.597  12.413   3.614 -0.0279  0.2444 -0.0239
32353ION     NA49200  11.471   9.473   4.047  0.2255 -0.2483  0.0503
32354ION     NA49201   7.374   5.915  10.527 -0.0872 -0.0167 -0.0024
32355ION     NA49202  13.248   8.473  10.000  0.1860  0.2342  0.0411
32356ION     NA49203   2.373   7.745   5.155 -0.2436  0.0959 -0.0076
32357ION     NA49204   0.151  18.786   9.855  0.0237 -0.1895 -0.0874
32358ION     NA49205  16.892  14.922   9.554 -0.2598  0.2461  0.0464
32359ION     NA49206   5.379  13.771   5.361  0.0471 -0.1676 -0.0911
32360ION     NA49207  12.662   7.398  13.011 -0.0442  0.0756  0.1304
32361ION     NA49208   2.713  18.673   3.254  0.1617  0.3082 -0.1191
32362ION     NA49209   3.566  12.669  10.363  0.0457 -0.0909 -0.1505
32363ION     NA49210   3.611   6.037   0.985  0.3665  0.1279  0.0455
32364ION     NA49211   3.675   0.165   2.270  0.0663  0.1292  0.1038
32365ION     NA49212  15.716   1.136  10.177  0.0128 -0.3031  0.1506
32366ION     NA49213  12.992   4.899  12.977  0.3124 -0.0595 -0.0449
32367ION     NA49214  18.548   4.472   5.754  0.0006  0.2186  0.1389
32368ION     NA49215  13.489   7.032   4.908  0.0581  0.2832 -0.1000
32369ION     NA49216  17.965   1.023  13.564  0.2286 -0.0531 -0.0797
32370ION     NA49217  16.202  11.143  10.022 -0.1683 -0.1823  0.2407
32371ION     NA49218   3.483  17.417   3.963  0.2078 -0.3811  0.0863
32372ION     NA49219   7.247  13.065  10.175  0.1759  0.1604  0.0619
32373ION     NA49220   7.292   7.818  11.714  0.1707 -0.0413  0.0614
32374ION     NA49221  15.251   7.744   1.186 -0.2693 -0.0031 -0.3961
32375ION     NA49222  12.110   9.681   5.778  0.1773 -0.2224  0.3028
32376ION     NA49223  17.771  16.625  13.537 -0.3100 -0.0476 -0.6522
32377ION     NA49224   8.526   8.041  12.678  0.1989 -0.1345  0.1428
32378ION     NA49225  10.268   4.734  11.468  0.0394 -0.0205  0.2719
32379ION     NA49226   7.213   3.530   5.764 -0.1322  0.0484  0.0786
32380ION     NA49227   7.592   9.873  14.480 -0.2082 -0.0506 -0.1947
32381ION     NA49228  18.190   1.602   5.183  0.2043  0.0241  0.2005
32382ION     NA49229   3.002   1.746   5.397 -0.2151  0.0574  0.1720
32383ION     NA49230   5.119  12.187   5.571  0.1192  0.2316  0.0116
32384ION     NA49231  10.554  17.604   4.372 -0.1801 -0.0489 -0.0455
32385ION     NA49232  10.633   5.319  10.260 -0.1991 -0.1290  0.0936
32386ION     NA49233  14.108   2.197   2.319 -0.0051  0.0558  0.4019
32387ION     NA49234   3.234  13.717  14.847  0.0524  0.0650  0.0444
32388ION     NA49235  16.667  12.181  13.888  0.1921  0.0885  0.0908
32389ION     NA49236  13.108   9.428  13.827  0.1496 -0.2201  0.3983
32390ION     NA49237  16.899   6.756  13.847  0.0832  0.0478  0.0417
32391ION     NA49238  17.311   6.860   5.507 -0.0523 -0.3312  0.0930
32392ION     NA49239  11.226   3.788  15.539  0.1328 -0.0803  0.2638
32393ION     NA49240   4.261   1.730  10.225 -0.3611  0.0350  0.2598
32394ION     NA49241   1.714  17.253   9.673 -0.1050  0.0497 -0.0727
32395ION     NA49242  18.203  14.362   1.554  0.0441 -0.0599  0.0915
32396ION     NA49243  13.538   9.708   4.539 -0.0746 -0.3043  0.2349
32397ION     NA49244   6.224  13.686   5.357 -0.0060 -0.0495  0.2608
32398ION     NA49245   0.330   4.644  13.998  0.1323 -0.2705 -0.1386
32399ION     NA49246   2.698   4.388  10.117 -0.1726  0.0211 -0.2238
32400ION     NA49247   0.392  13.241  10.052  0.0675 -0.3327  0.3198
32401ION     NA49248  16.369  13.653  11.521 -0.2179 -0.0635 -0.0724
32402ION     NA49249  14.342  16.594   1.264  0.0186 -0.0018  0.0442
32403ION     NA49250   9.827   9.823  13.349 -0.4351  0.1398 -0.0048
32404ION     NA49251   4.272   3.438   1.370  0.3219 -0.1183 -0.1854
32405ION     NA49252   3.300  14.205   5.637  0.0030  0.4634  0.0792
32406ION     NA49253   5.035  13.714  10.378  0.2440 -0.1453 -0.1191
32407ION     NA49254  15.170   5.150  14.431  0.0163 -0.1984 -0.1093
32408ION     NA49255   2.925   2.029  10.129 -0.1396 -0.0775 -0.0993
32409ION     NA49256  17.505   1.494   3.570  0.1757  0.0839  0.0643
32410ION     NA49257  14.138  15.324   9.951 -0.1273  0.0658  0.1001
32411ION     NA49258   1.135   7.446   2.127 -0.0429 -0.1402 -0.2191
32412ION     NA49259   9.997   2.147   5.898  0.0994  0.2286  0.2180
32413ION     NA49260   2.212  14.702   9.875 -0.0487 -0.3117  0.1303
32414ION     NA49261  10.786  18.216  10.244  0.1326 -0.1042 -0.0355
32415ION     NA49262  18.544   0.789   9.864  0.3233 -0.1583 -0.0458
32416ION     NA49263   2.087  10.843  15.457 -0.1011  0.0705  0.2341
32417ION     NA49264   3.791  17.490  15.502 -0.2549 -0.1013 -0.2136
32418ION     NA49265  15.538   5.966   3.243  0.0079  0.0739  0.2673
32419ION     NA49266  11.895   2.952  10.410 -0.1507  0.1954 -0.1559
32420ION     NA49267   4.826  10.466   1.096 -0.1498  0.2901  0.1100
32421ION     NA49268   1.799  11.230  11.276  0.1727  0.2521 -0.0958
32422ION     NA49269  18.632   5.374  14.209  0.1039  0.1733  0.0391
32423ION     NA49270  10.196   8.196  15.255  0.0280 -0.1701 -0.0087
32424ION     NA49271   1.458   0.587  12.702 -0.3724 -0.0645  0.0868
32425ION     NA49272  18.757  16.388   9.615 -0.1560  0.1368  0.0015
32426ION     NA49273  18.508   9.016   0.494  0.0010  0.0419  0.0065
32427ION     NA49274   1.092   2.158   9.734  0.2301 -0.0974 -0.0081
32428ION     NA49275  16.529   4.687  10.311  0.1102 -0.3393  0.0704
32429ION     NA49276   5.690   9.193   2.334 -0.0329  0.4231 -0.1188
32430ION     NA49277   5.071   3.607  10.388  0.1702  0.3899  0.1501
32431ION     NA49278   0.832   7.226   5.501  0.0176 -0.4491  0.2189
32432ION     NA49279  13.986  18.129  10.323  0.1138 -0.0782  0.0766
32433ION     NA49280   8.070  14.748  14.985  0.0889 -0.0874  0.1586
32434ION     NA49281   5.681   8.482   5.454 -0.0514 -0.0485  0.2393
32435ION     NA49282  10.563  10.425  13.723  0.0468  0.0207  0.0026
32436ION     NA49283   5.271  14.231  15.140 -0.0222  0.1388  0.0201
32437ION     NA49284  13.329  16.158   2.107 -0.0575  0.1084  0.0760
32438ION     NA49285   9.599   2.477   0.296  0.0250 -0.2503  0.1125
32439ION     NA49286  13.727   9.683  12.041  0.1274 -0.1783 -0.0827
32440ION     NA49287  11.897  14.809   9.605  0.1379  0.0349 -0.1775
32441ION     NA49288   0.125  18.389   2.933 -0.1522  0.1722 -0.0675
32442ION     NA49289   6.720   8.834   9.708 -0.1310  0.2319 -0.1384
32443ION     NA49290  11.263  10.126   5.664  0.3701  0.4003  0.0651
32444ION     NA49291  18.447  16.014  13.350  0.0453 -0.1979  0.1332
32445ION     NA49292  15.230  12.708   2.959 -0.1911  0.0405 -0.2313
32446ION     NA49293  11.522  17.997  11.326  0.1820  0.2142 -0.0167
32447ION     NA49294  11.531   1.994   4.566  0.1889  0.3403  0.0074
32448ION     NA49295  12.488  14.550  13.483  0.0605  0.2673 -0.0092
32449ION     NA49296   4.655  17.370   9.671  0.2008 -0.1434  0.1020
32450ION     NA49297   7.444  15.074   2.979  0.2799 -0.3564  0.1614
32451ION     NA49298  14.930  12.812   5.739  0.1415 -0.1651  0.0994
32452ION     NA49299   1.842  11.723  12.510 -0.0975  0.3744 -0.1233
32453ION     NA49300  12.044   8.621   5.053  0.0492 -0.1821 -0.2323
32454ION     NA49301   0.400   9.465   0.683 -0.0221 -0.1113  0.1966
32455ION     NA49302   6.558  12.452  10.094  0.0166 -0.0913 -0.2430
32456ION     NA49303  11.753   6.538   5.788 -0.0211  0.1767  0.2257
32457ION     NA49304   6.896   2.675  13.256  0.1752 -0.2507 -0.3003
32458ION     NA49305  14.220   9.675  10.102 -0.0203 -0.1438 -0.1107
32459ION     NA49306  16.057   7.726  13.105  0.1509 -0.3974 -0.0167
32460ION     NA49307  16.991   7.787   9.813  0.0136  0.2918 -0.3151
32461ION     NA49308   9.038  13.916   1.886 -0.4650 -0.2884  0.1206
32462ION     NA49309   9.176  11.618  10.041  0.2154 -0.0217 -0.3560
32463ION     NA49310  12.801  11.785   0.920 -0.2267  0.0408  0.3100
32464ION     NA49311   8.463   3.955  10.391  0.0347 -0.2311  0.2544
32465ION     NA49312  17.447  13.998   0.454  0.0129  0.0755 -0.2103
32466ION     NA49313   9.161   9.026  13.195 -0.1018 -0.1879 -0.2670
32467ION     NA49314   4.802  14.428   5.299  0.0541 -0.1136 -0.0692
32468ION     NA49315   1.943   7.968   0.812  0.0269 -0.0213 -0.3419
32469ION     NA49316  10.729  13.519   4.377 -0.2018  0.0468  0.0597
32470ION     NA49317   4.852   1.461   5.752  0.0765 -0.3303  0.0176
32471ION     NA49318   7.707  18.441   9.614  0.0094  0.0417  0.0410
32472ION     NA49319  10.626   9.786   5.680  0.1500  0.0205  0.0083
32473ION     NA49320  17.089   9.347   5.553 -0.0940 -0.2913  0.0066
32474ION     NA49321  16.872  12.472  14.567  0.2806 -0.1253 -0.0194
32475ION     NA49322   3.445  10.287  13.911 -0.1978 -0.0917  0.2157
32476ION     NA49323   4.862  11.733   3.926  0.2490  0.1257 -0.0499
32477ION     NA49324  17.631   1.299  10.017  0.2639  0.0203  0.0280
32478ION     NA49325   0.793  10.320  10.205  0.1705 -0.2636 -0.2253
32479ION     NA49326   6.858   6.511   0.257  0.1737 -0.1543 -0.4898
32480ION     NA49327  17.169  17.169   9.539 -0.2387 -0.2782 -0.0239
32481ION     NA49328  18.767   7.119  14.784 -0.0619 -0.1034 -0.3458
32482ION     NA49329  12.473   6.638   5.667 -0.0441 -0.2353  0.0121
32483ION     NA49330  12.461  18.309  10.095 -0.2941  0.0142  0.3525
32484ION     NA49331  11.245   1.610  14.802  0.0014  0.1145  0.0473
32485ION     NA49332   8.201   8.914  14.731  0.0111 -0.1712 -0.0747
32486ION     NA49333   3.957  11.883   2.992 -0.0546  0.0912  0.0512
32487ION     NA49334  11.334  11.538   3.305  0.1718 -0.2961  0.3049
32488ION     NA49335   6.341   1.104  15.295 -0.0960  0.0552 -0.0512
32489ION     NA49336   0.319   7.719  15.378 -0.1633 -0.0416  0.1510
32490ION     NA49337   9.377  18.735  11.704 -0.0062  0.0619 -0.1474
32491ION     NA49338  10.571  16.450  10.011 -0.1795 -0.0520  0.1063
32492ION     NA49339  10.033  15.546   3.777 -0.2503 -0.1868 -0.0005
32493ION     NA49340   4.454   8.562  10.328 -0.1993 -0.0034 -0.0021
32494ION     NA49341   1.700  17.893  15.075  0.0116 -0.2039 -0.0917
32495ION     NA49342   8.822   4.044   5.712 -0.0686  0.2412  0.2459
32496ION     NA49343   7.903   7.843   5.328 -0.2011 -0.0332  0.0106
32497ION     NA49344   7.513  11.186   5.375  0.1209 -0.1174 -0.0390
32498ION     NA49345  18.051  16.783   9.558  0.1635 -0.0550  0.2582
32499ION     NA49346   7.289   1.423   1.536 -0.2236  0.2432 -0.1147
32500ION     NA49347   3.183   6.514  14.817  0.0021 -0.0680 -0.2064
32501ION     NA49348  12.098  13.811   5.581 -0.1069 -0.0196 -0.0572
32502ION     NA49349  15.971  17.196   2.403 -0.0405 -0.0134  0.5174
32503ION     NA49350   2.328   1.133   0.576  0.2194 -0.1980 -0.0954
32504ION     NA49351   6.476  18.354   0.624 -0.1126  0.2836  0.2907
32505ION     NA49352  17.193  13.014   1.872  0.0980 -0.2840 -0.1094
32506ION     NA49353   8.780  15.960   5.627  0.0256  0.0891 -0.0698
32507ION     NA49354  10.850  10.071  10.262 -0.2507  0.4526  0.0762
32508ION     NA49355  14.230   8.918   5.445 -0.0210  0.4116 -0.4183
32509ION     NA49356   8.973  18.283  12.656 -0.1451 -0.1487  0.1507
32510ION     NA49357   9.691   0.252  13.243  0.3368  0.3630  0.0907
32511ION     NA49358   5.341   4.269   0.024  0.1036  0.1720 -0.0625
32512ION     NA49359  15.001  12.185   5.151  0.1952  0.1742  0.0341
32513ION     NA49360   1.441   6.835   5.017  0.0496  0.1101  0.2778
32514ION     NA49361  11.808   7.415   5.730 -0.1326  0.0711 -0.1062
32515ION     NA49362  11.618   9.534   1.228  0.1660 -0.0481  0.0415
32516ION     NA49363   9.000  12.616  10.284  0.0036  0.0152  0.0197
32517ION     NA49364   2.950   9.347  10.153  0.0347 -0.0246  0.0562
32518ION     NA49365   4.579   4.703  13.674 -0.4036 -0.0436  0.1939
32519ION     NA49366   4.029   5.809   5.463  0.0197  0.0068  0.0885
32520ION     NA49367  16.696   8.633  12.703  0.0222 -0.0138 -0.2545
32521ION     NA49368   4.487  15.939   3.433 -0.3078  0.1338  0.0496
32522ION     NA49369  15.338  18.234   9.998 -0.2498 -0.1003  0.1372
32523ION     NA49370   0.358  11.368  10.149  0.1013 -0.1365  0.0286
32524ION     NA49371  12.631  17.243   1.751  0.0889 -0.2804  0.2305
32525ION     NA49372   6.865  13.704   1.770 -0.1004 -0.0680  0.1937
32526ION     NA49373   6.374   8.836   5.731  0.0467  0.2328 -0.1441
32527ION     NA49374   7.685  17.435  12.588 -0.0102  0.1148  0.2647
32528ION     NA49375   0.656   8.669  10.168  0.1187  0.2479  0.2261
32529ION     NA49376   1.907   9.253  14.791 -0.3453  0.2742 -0.1202
32530ION     NA49377  13.245   0.453  10.316 -0.3723  0.0357 -0.0435
32531ION     NA49378  17.303   8.074  14.215  0.0368 -0.0870 -0.1505
32532ION     NA49379  13.826   4.956  14.965  0.0965 -0.1578  0.2860
32533ION     NA49380   0.702   8.458  14.324 -0.2915  0.1159  0.0653
32534ION     NA49381  11.141   0.359  13.082 -0.0104  0.0971 -0.0703
32535ION     NA49382   0.882  18.510   9.836  0.0201  0.1775 -0.0104
32536ION     NA49383   9.891  16.392  14.631 -0.0318 -0.1417  0.2913
32537ION     NA49384   1.725  18.130   4.697  0.1772  0.0058  0.1583
32538ION     NA49385   7.255  15.828   0.809 -0.0827  0.1924  0.1917
32539ION     NA49386  18.003   6.710  10.145 -0.0155  0.0896 -0.0167
32540ION     NA49387   0.921   6.655   1.332 -0.1103  0.0229  0.0191
32541ION     NA49388   2.258   6.041   0.643  0.2903  0.1749  0.0837
32542ION     NA49389  16.366   2.611  10.069 -0.2173 -0.1380  0.0746
32543ION     NA49390   3.321  17.371   2.994 -0.1773  0.0232 -0.2787
32544ION     NA49391  17.675   1.513   1.076  0.1566  0.1326 -0.4397
32545ION     NA49392  15.629   0.093   5.644 -0.0370  0.0296  0.0277
32546ION     NA49393  18.487  17.729   9.846 -0.2209 -0.1211  0.0821
32547ION     NA49394   8.476  10.027   9.989 -0.0410  0.1427  0.0602
32548ION     NA49395  14.803   9.211  10.230  0.5142  0.1346 -0.0213
32549ION     NA49396   1.657   6.227  10.362  0.0123  0.0981 -0.0154
32550ION     NA49397   6.298   5.038  10.374 -0.4197 -0.0607  0.2891
32551ION     NA49398   0.536  17.765   0.595  0.0848 -0.2095  0.3168
32552ION     NA49399  16.849   9.371  10.106 -0.0686 -0.1253  0.2397
32553ION     NA49400   8.369   2.385  10.017  0.0739  0.0612  0.1263
32554ION     NA49401   7.169  18.464   4.944  0.0554  0.0219  0.0664
32555ION     NA49402  17.258  15.772   9.611  0.0199  0.1971 -0.2317
32556ION     NA49403  12.683  15.380   3.887 -0.0471 -0.1357 -0.1711
32557ION     NA49404   4.362   9.237   4.198 -0.1208  0.1197 -0.3745
32558ION     NA49405  11.021  12.508  10.158 -0.1399  0.3668 -0.0541
32559ION     NA49406   0.238   5.765   3.969  0.2441  0.1308 -0.0587
32560ION     NA49407  10.987   3.006  10.663 -0.5211  0.1804  0.2055
32561ION     NA49408   2.935  16.275   9.637 -0.0485  0.0495 -0.1780
32562ION     NA49409   7.997  12.849  15.533 -0.2142 -0.4883  0.1709
32563ION     NA49410   0.831  18.462  13.245 -0.0192 -0.1632 -0.0659
32564ION     NA49411   1.536  10.626  10.189 -0.1526 -0.1806 -0.3318
32565ION     NA49412  15.366   5.877  14.892 -0.1410  0.1561  0.3243
32566ION     NA49413  11.552   1.422   3.000  0.2521 -0.1448  0.1245
32567ION     NA49414  11.538   1.315   5.608  0.1618  0.3288 -0.0178
32568ION     NA49415   3.790  13.811  10.915  0.0039 -0.1964 -0.0558
32569ION     NA49416  12.808  10.915  10.172 -0.0556  0.1618 -0.2098
32570ION     NA49417   3.488   7.027   2.482 -0.2968 -0.2428 -0.0424
32571ION     NA49418  10.071  16.062   2.120 -0.0090  0.3961 -0.0898
32572ION     NA49419  13.596  12.048  10.093  0.0998 -0.1269 -0.0236
32573ION     NA49420   3.262  11.332   5.454  0.1960  0.0288  0.3317
32574ION     NA49421   0.449   1.035   2.787  0.0559 -0.1108  0.0954
32575ION     NA49422   6.935   1.708  10.120 -0.1165 -0.3446  0.0218
32576ION     NA49423   3.905   9.392  10.290 -0.1499  0.0326  0.1669
32577ION     NA49424   9.861   5.439   5.617  0.1225  0.3795 -0.0209
32578ION     NA49425  10.420   3.397   4.134  0.3102  0.1097  0.0141
32579ION     NA49426  17.248   3.345   3.132 -0.0757 -0.1729  0.1982
32580ION     NA49427  11.931  11.308   9.993  0.1928  0.0713 -0.0303
32581ION     NA49428  15.534  11.350  13.582 -0.1101 -0.0900  0.2771
32582ION     NA49429   7.923   0.205  15.076  0.0062  0.0221 -0.0438
32583ION     NA49430  10.729   3.174   4.515 -0.0455  0.1864  0.0437
32584ION     NA49431  11.379   0.247  10.386  0.1590 -0.2960 -0.0226
32585ION     NA49432   8.935   0.762   5.891 -0.4150  0.0060 -0.1123
32586ION     NA49433   2.809   8.249   3.380 -0.1636  0.1280  0.0457
32587ION     NA49434  14.215   3.213  10.129  0.3344  0.0915  0.2620
32588ION     NA49435   8.371   1.052   0.184  0.0690  0.2765  0.0272
32589ION     NA49436   0.018   7.976  10.036 -0.0289 -0.0428 -0.4934
32590ION     NA49437   4.855   2.619   4.690  0.2537 -0.2953 -0.1933
32591ION     NA49438   5.393   9.236   1.354  0.2504  0.2034  0.3310
32592ION     NA49439  17.789  15.327  11.618 -0.2377 -0.0024 -0.0181
32593ION     NA49440   5.060   0.009  10.143  0.1595  0.0975 -0.1720
32594ION     NA49441   4.082  14.621   5.577 -0.2648  0.0811 -0.0441
32595ION     NA49442  18.551  15.296   4.614  0.0312 -0.0976 -0.3882
32596ION     NA49443  18.529  17.440   5.328 -0.3033  0.1245 -0.2820
32597ION     NA49444   9.843  12.774  14.276 -0.1118  0.3575 -0.1274
32598ION     NA49445  14.786   3.038   2.133 -0.0265  0.2289 -0.1362
32599ION     NA49446   0.608   3.279   9.880  0.0678  0.2149 -0.0061
32600ION     NA49447   9.733   2.430   2.233 -0.2551 -0.2891 -0.1710
32601ION     NA49448   7.510  13.961  10.394 -0.0187  0.0858 -0.3218
32602ION     NA49449   4.186   7.550  12.623  0.1260 -0.0079 -0.1505
32603ION     NA49450   8.782   1.416  14.056 -0.0331 -0.3756 -0.0043
32604ION     NA49451  12.027   0.987  14.925 -0.1196  0.0310  0.1237
32605ION     NA49452  12.215   2.043  10.572 -0.3478  0.2817 -0.1702
32606ION     NA49453   2.921  17.661   9.775 -0.1247 -0.1961 -0.0633
32607ION     NA49454  10.600  12.991   5.588  0.2063  0.0639 -0.0868
32608ION     NA49455   9.683  17.205   9.942 -0.1670  0.1239  0.4649
32609ION     NA49456  17.735   9.126   5.414  0.0614 -0.0277  0.0564
32610ION     NA49457   6.767   4.851   2.890  0.2064 -0.0627  0.2117
32611ION     NA49458   3.460  14.369   0.882  0.3209  0.3131  0.0665
32612ION     NA49459  14.349   6.151   5.503 -0.2068  0.3133  0.1861
32613ION     NA49460  18.239  17.183  11.021 -0.0796  0.2610  0.1408
32614ION     NA49461  16.508   8.690   2.301  0.2115  0.0032 -0.0534
32615ION     NA49462   6.194  18.830  14.788 -0.3133  0.2483  0.1450
32616ION     NA49463  13.359   5.639  15.274  0.3855 -0.2056 -0.0442
32617ION     NA49464   7.108  16.980   4.608  0.4075 -0.0662 -0.1602
32618ION     NA49465   5.721   2.512  10.169  0.0644  0.3197 -0.0049
32619ION     NA49466  10.051  15.190   9.701 -0.1670 -0.2481  0.2126
32620ION     NA49467   0.813  16.015  15.222  0.2895  0.1877  0.0005
32621ION     NA49468  11.758  12.744  15.387  0.2224 -0.3663 -0.2249
32622ION     NA49469  14.689   4.701   2.234 -0.0105  0.0936  0.0085
32623ION     NA49470   7.693  11.387   9.528 -0.0731 -0.2849  0.0902
32624ION     NA49471   5.979   6.784  10.306 -0.0516 -0.0902 -0.0314
32625ION     NA49472  17.297  18.156   3.713 -0.1966  0.0523 -0.1790
32626ION     NA49473   9.164   5.809   2.780  0.2060 -0.0974 -0.1768
32627ION     NA49474  11.316  12.454   5.702 -0.2183  0.3127 -0.0778
32628ION     NA49475   5.404  13.069  15.315  0.0934 -0.3443 -0.5636
32629ION     NA49476   2.087  12.708  10.398 -0.0226 -0.2059  0.0514
32630ION     NA49477  16.996  14.365   4.515 -0.0892  0.1823 -0.0380
32631ION     NA49478  14.564   6.417   1.798  0.1655  0.0981 -0.0763
32632ION     NA49479   4.268  13.896  13.752 -0.0374  0.0657 -0.1108
32633ION     NA49480   9.363  10.824   9.908  0.2448  0.1711  0.0334
32634ION     NA49481  16.142  17.524   3.980  0.1693 -0.2265 -0.0079
32635ION     NA49482  11.078   9.073  10.244  0.0789 -0.1693  0.0503
32636ION     NA49483   3.749   3.710  10.906 -0.3128  0.1592 -0.0065
32637ION     NA49484  11.106  13.431   9.680  0.2027  0.1004 -0.1776
32638ION     NA49485  17.987   5.894  14.382  0.1620  0.0609 -0.2512
32639ION     NA49486  13.181  13.496   5.227  0.1937  0.5653 -0.1834
32640ION     NA49487  18.483   5.058   4.558 -0.1082  0.1369  0.1130
32641ION     NA49488  18.812  14.615  11.672 -0.1246 -0.0367 -0.0489
32642ION     NA49489  17.778   2.008  13.125  0.0043  0.1300  0.2280
32643ION     NA49490   1.212  16.406   9.750  0.2591  0.2084 -0.0405
32644ION     NA49491   9.857  17.756  13.151 -0.0181 -0.1744 -0.1127
32645ION     NA49492   7.387   7.547  12.832  0.0297 -0.0737  0.0622
32646ION     NA49493   9.456  16.434   2.561 -0.3814  0.1280  0.2160
32647ION     NA49494  11.383  11.819   5.276  0.0219 -0.0771 -0.0897
32648ION     NA49495   9.465  15.510   5.527 -0.2889 -0.2017 -0.0821
32649ION     NA49496   9.356  11.874   0.130  0.0963 -0.0897  0.0658
32650ION     NA49497   2.668  18.738   4.619  0.1320  0.2042  0.0280
32651ION     NA49498  17.135   5.883  10.239 -0.1318 -0.1088 -0.2199
32652ION     NA49499   8.035   5.451   5.250  0.0313  0.0512 -0.1481
32653ION     NA49500   1.816   3.424  14.533 -0.0447  0.0340  0.3096
32654ION     NA49501   3.375   7.429  10.012 -0.1022  0.0988  0.0623
32655ION     NA49502  15.123  14.621   5.339  0.0444  0.0707  0.0012
32656ION     NA49503  15.246   0.862  11.358 -0.1915  0.2080  0.1954
32657ION     NA49504   5.666  10.154   9.983 -0.0111 -0.1490  0.1074
32658ION     NA49505   5.703  15.616   5.241 -0.1128  0.0438  0.0091
32659ION     NA49506  11.937  12.893   9.900  0.1993  0.0414 -0.0142
32660ION     NA49507  17.376   8.135   3.886  0.2308 -0.2410  0.0121
32661ION     NA49508   5.922  14.241   2.457  0.0719 -0.3118 -0.1582
32662ION     NA49509   0.411  16.940   5.104  0.2825 -0.0640  0.2168
32663ION     NA49510   9.417  10.018   4.965  0.2341  0.1447 -0.1231
32664ION     NA49511  15.661  13.644   3.271  0.1507 -0.0860 -0.1199
32665ION     NA49512  11.476   2.170   5.508 -0.6332 -0.0434  0.0689
32666ION     NA49513   0.756   4.433   4.008  0.0931 -0.0784 -0.2393
32667ION     NA49514   6.804  18.810   9.839 -0.2324 -0.1825  0.1472
32668ION     NA49515   5.096  12.182   4.754  0.2970  0.1210 -0.0582
32669ION     NA49516   4.190  11.549  13.908  0.0184  0.0572  0.1490
32670ION     NA49517  11.370  18.780   5.473  0.1113  0.1869 -0.4263
32671ION     NA49518  10.801   3.014   0.549 -0.3093 -0.2145  0.0013
32672ION     NA49519   0.163   8.567  10.152 -0.1739 -0.1760  0.0099
32673ION     NA49520   3.465   4.603  10.319 -0.0367  0.1031  0.0930
32674ION     NA49521  13.836  16.306  12.212  0.2428 -0.2041  0.2621
32675ION     NA49522   1.677  15.530   9.838  0.3930  0.0103 -0.4055
32676ION     NA49523   9.895  14.316   9.979  0.1039 -0.3593  0.3124
32677ION     NA49524  16.930   7.853   1.288 -0.0600 -0.2158 -0.3898
32678ION     NA49525  14.441   8.952   1.285 -0.0433 -0.0988 -0.2309
32679ION     NA49526  10.754   9.050   5.270  0.2804 -0.1302  0.1228
32680ION     NA49527  15.239  16.405   2.249 -0.0835 -0.0262  0.3579
32681ION     NA49528  17.074   6.889  10.199 -0.0709 -0.1956  0.1407
32682ION     NA49529  12.852   4.788   4.799 -0.0121 -0.0245 -0.3253
32683ION     NA49530   7.008   2.499  14.395  0.4829  0.2827  0.1598
32684ION     NA49531   6.063   8.443  10.022  0.1460 -0.0737  0.0443
32685ION     NA49532   4.647  10.948  14.325 -0.2377  0.3857 -0.2184
32686ION     NA49533   2.582   8.456  10.133  0.1646  0.1516  0.0066
32687ION     NA49534  12.329   6.667   3.033  0.3230  0.0201  0.2182
32688ION     NA49535  18.428   5.311  10.107 -0.1057 -0.0570 -0.0643
32689ION     NA49536   8.096   7.029   4.247  0.0038 -0.0404 -0.0459
32690ION     NA49537  17.646   9.155  10.590 -0.3570 -0.3149 -0.0729
32691ION     NA49538   5.170   4.568  10.287  0.0564 -0.2739 -0.1037
32692ION     NA49539  10.725  14.124   9.973 -0.3130  0.1212  0.0762
32693ION     NA49540   2.624  17.122   2.136  0.2596  0.1996  0.1733
32694ION     NA49541   2.029   7.346   5.619 -0.3174 -0.0134  0.1685
32695ION     NA49542   5.320  12.448   0.562 -0.1756 -0.3584  0.3431
32696ION     NA49543  13.976   2.173  13.501 -0.1299  0.0598  0.2027
32697ION     NA49544   0.805  10.664   5.520 -0.1926  0.3288 -0.2362
32698ION     NA49545   8.296  14.876   1.394 -0.0846 -0.1945  0.1275
32699ION     NA49546  10.172  11.822   9.977  0.1529 -0.1590  0.0105
32700ION     NA49547   3.747  14.712  15.074  0.1039 -0.1593  0.2227
32701ION     NA49548  12.714   5.299   0.381  0.2757  0.0199  0.1285
32702ION     NA49549  14.105   4.666   5.698 -0.0874  0.2325 -0.1685
32703ION     NA49550  11.234   8.025   3.413 -0.2448  0.1443  0.3692
32704ION     NA49551  10.528  17.903  15.299  0.0228 -0.2142  0.1346
32705ION     NA49552   2.371   2.651  10.304 -0.1537 -0.2394  0.1127
32706ION     NA49553   8.478  15.159  10.091 -0.0149 -0.0660  0.0483
32707ION     NA49554   1.960   3.335   1.301 -0.1612 -0.3518  0.1490
32708ION     NA49555  15.768   9.106   0.837  0.2385  0.0969  0.0670
32709ION     NA49556   9.801  11.766   1.455 -0.2314 -0.0095 -0.2090
32710ION     NA49557  18.400   9.641  13.938  0.3753 -0.0227  0.0408
32711ION     NA49558   2.599   1.783  13.570 -0.2486  0.1708 -0.0389
32712ION     NA49559   7.204  10.340   2.637 -0.2809  0.2696  0.0238
32713ION     NA49560   1.624  15.258   5.045 -0.0002 -0.2093  0.0313
32714ION     NA49561  17.090   1.287  10.138  0.0223 -0.2392  0.2484
32715ION     NA49562  12.311   4.876  10.517  0.2129  0.1614 -0.3831
32716ION     NA49563   2.247   1.620   0.604 -0.0138  0.1020 -0.0644
32717ION     NA49564   9.951   5.847  10.184  0.3193 -0.1514  0.4985
32718ION     NA49565   5.726   3.269   5.515 -0.0531  0.1962  0.1484
32719ION     NA49566   5.732  15.866  15.177 -0.2326  0.0959  0.1161
32720ION     NA49567  14.326   2.576  11.689 -0.1077 -0.3923 -0.0230
32721ION     NA49568  17.639   3.518   6.074 -0.1476  0.2805 -0.2364
32722ION     NA49569  18.404  16.878   5.358 -0.1508 -0.0244 -0.0414
32723ION     NA49570  11.348  13.318   5.899  0.2193  0.5023  0.0005
32724ION     NA49571   0.978  15.243   0.774 -0.1534  0.0709  0.1550
32725ION     NA49572  16.183   6.781   3.609  0.1194 -0.3179  0.2804
32726ION     NA49573  15.391  15.979  14.413  0.0558 -0.1132  0.1543
32727ION     NA49574  18.317  13.682   0.340 -0.0457  0.1551  0.1123
32728ION     NA49575  10.654   8.042  10.279  0.0193 -0.0535  0.1186
32729ION     NA49576   0.465   2.116  11.244 -0.0438 -0.2162 -0.0213
32730ION     NA49577  11.995   6.515  10.191 -0.0514  0.1395 -0.0520
32731ION     NA49578   8.447  14.316  10.155 -0.1490 -0.0937  0.0551
32732ION     NA49579  14.565  14.058  14.314  0.2545 -0.2041 -0.2011
32733ION     NA49580  11.951   2.828   5.873  0.0195  0.1013 -0.2427
32734ION     NA49581  15.968   7.623   9.943  0.2197 -0.1936  0.1491
32735ION     NA49582  12.399  17.973   1.343  0.1659 -0.2501  0.1252
32736ION     NA49583  13.743   9.405  14.610 -0.0957 -0.0780 -0.1034
32737ION     NA49584   8.459  10.661   4.244  0.3605  0.0677  0.2474
32738ION     NA49585  10.401   5.260  13.012  0.1509 -0.1142 -0.2578
32739ION     NA49586  14.133   7.012  14.751  0.0961  0.0415 -0.0367
32740ION     NA49587  15.281  14.669   9.945  0.1294  0.1136  0.0647
32741ION     NA49588   1.899  14.117   9.905  0.0733 -0.1265  0.2160
32742ION     NA49589   9.373   9.733  11.333  0.0018 -0.1611 -0.1342
32743ION     NA49590  10.411   6.694   5.422  0.0908  0.1861 -0.0294
32744ION     NA49591   7.794   3.118  13.174 -0.1997  0.1918  0.2492
32745ION     NA49592  15.137   5.984  10.006  0.0577  0.4212 -0.2607
32746ION     NA49593   5.310  16.369   1.861  0.4159  0.1227 -0.3494
32747ION     NA49594   3.019  11.207   0.715  0.0473 -0.0287 -0.0749
32748ION     NA49595   2.562   0.151   5.515  0.1363  0.0796  0.1319
32749ION     NA49596   6.848  15.825   1.939 -0.0859  0.1963 -0.1629
32750ION     NA49597   9.224   2.265  10.235 -0.0222 -0.3223  0.0499
32751ION     NA49598  17.182  18.451   5.714  0.3226 -0.0536  0.0032
32752ION     NA49599   7.613   4.303   5.650 -0.1609  0.3267 -0.2305
32753ION     NA49600   8.547  13.072   1.954 -0.3082 -0.2131 -0.2657
32754ION     NA49601   0.940   7.098  10.338  0.0453  0.1088  0.2141
32755ION     NA49602  11.687  18.358   4.503 -0.0736  0.1946 -0.0960
32756ION     NA49603  18.017  14.193   9.978 -0.0564 -0.0682 -0.0866
32757ION     NA49604  14.661  10.546  10.430  0.2737  0.1443  0.1619
32758ION     NA49605   9.680   9.596   3.500 -0.1717 -0.1285 -0.0995
32759ION     NA49606   9.882   7.305   0.323  0.0481 -0.2283 -0.1110
32760ION     NA49607   5.855  12.345  10.346 -0.0763 -0.1915 -0.5577
32761ION     NA49608  16.088  13.662   0.607 -0.0065  0.1456  0.0859
32762ION     NA49609  13.981  13.535   3.417  0.1858 -0.1829 -0.0475
32763ION     NA49610  18.730   6.086  10.152  0.0327 -0.1770  0.2424
32764ION     NA49611   2.504   6.097  14.757 -0.0749  0.1252  0.1839
32765ION     NA49612   2.332   1.159   5.486  0.0540  0.3050 -0.3248
32766ION     NA49613   2.886   0.513   3.984 -0.2793 -0.0177  0.1129
32767ION     NA49614  10.379   3.256  13.413  0.1265  0.2357 -0.0171
32768ION     NA49615   5.540   4.903  10.000  0.3393  0.3420 -0.2389
32769ION     NA49616   7.929  13.563  12.115  0.0667 -0.2764  0.0691
32770ION     NA49617   9.300  17.282   5.238  0.0551 -0.2307 -0.0580
32771ION     NA49618  18.424   6.429   3.557  0.0694  0.1454 -0.1244
32772ION     NA49619   7.113  15.250   5.285  0.1287 -0.1581  0.0996
32773ION     NA49620   8.895   8.019   2.717 -0.1183 -0.0989 -0.0790
32774ION     NA49621  14.674  11.849  10.728 -0.0637 -0.1448 -0.2281
32775ION     NA49622   3.464   1.146  13.841  0.1435 -0.0185  0.0256
32776ION     NA49623  12.624   8.169  14.217  0.1521 -0.0014  0.1929
32777ION     NA49624   5.425   5.958  12.061 -0.2610  0.1384  0.1513
32778ION     NA49625   3.085  11.091  11.857  0.4188 -0.1989 -0.1869
32779ION     NA49626   5.785   8.489   0.926  0.2427 -0.0408 -0.1955
32780ION     NA49627   3.709  15.066   0.308  0.2732 -0.1708  0.0194
32781ION     NA49628  16.111  10.353  10.371  0.1413  0.1716  0.1473
32782ION     NA49629   8.018   5.350  10.644  0.1312  0.0009 -0.0775
32783ION     NA49630  17.193   1.265  12.120  0.3315 -0.1956  0.1752
32784ION     NA49631   4.404  12.656   5.668  0.0194 -0.2827 -0.0684
32785ION     NA49632   2.668   5.779   9.994  0.3369  0.2832  0.1518
32786ION     NA49633   2.277   5.324   3.646 -0.0353 -0.2575  0.0200
32787ION     NA49634  16.420   1.725   5.815 -0.0021 -0.1862  0.0577
32788ION     NA49635  14.196   4.156  10.287 -0.2313 -0.2139 -0.1700
32789ION     NA49636   9.612   2.299   4.203 -0.0658 -0.0055 -0.3698
32790ION     NA49637  13.813   7.271  11.114  0.0203 -0.3220  0.2438
32791ION     NA49638  13.531  10.565   2.240  0.2234 -0.1376  0.0049
32792ION     NA49639  13.868  15.321   2.094 -0.0631  0.3206 -0.5113
32793ION     NA49640   4.925   5.787  10.333  0.0696  0.1264  0.1571
32794ION     NA49641   0.415  12.150   2.716 -0.2413 -0.1043 -0.0309
32795ION     NA49642   8.088  13.419  13.295 -0.0824 -0.0445 -0.1313
32796ION     NA49643  18.026  10.584  10.477  0.0619 -0.1772  0.0446
32797ION     NA49644  12.621   5.308   5.548  0.0948  0.3223  0.4605
32798ION     NA49645   5.995   3.268   2.930  0.0900 -0.7120  0.3180
32799ION     NA49646   3.147   8.226   5.508  0.3228  0.0735 -0.0648
32800ION     NA49647   5.420   0.955  10.252  0.4201 -0.1232  0.2246
32801ION     NA49648   3.512  11.117  14.589 -0.2084  0.1068  0.0096
32802ION     NA49649   9.814   4.464  13.710  0.1257 -0.3233 -0.5780
32803ION     NA49650  14.834  17.650   3.917  0.1167  0.1890  0.0795
32804ION     NA49651   0.541  18.654   5.440  0.1761  0.1599  0.0307
32805ION     NA49652   0.172   7.614   5.040  0.2176 -0.3381 -0.1761
32806ION     NA49653   0.431  15.562   9.642 -0.0307  0.3334 -0.2441
32807ION     NA49654   5.552  15.587  12.520 -0.2469  0.2057  0.1228
32808ION     NA49655  12.575  17.265   5.319  0.1319 -0.2842 -0.1552
32809ION     NA49656   3.926   1.494   5.359  0.1040 -0.0517  0.2028
32810ION     NA49657   8.199  13.653  14.291  0.0480  0.4072  0.1291
32811ION     NA49658   3.483   6.167   3.276  0.2055 -0.1308 -0.3024
32812ION     NA49659  16.508  10.507   3.121  0.1729 -0.0687 -0.1001
32813ION     NA49660   2.682  11.149   2.875 -0.3073  0.2013  0.0471
32814ION     NA49661  10.544   6.642   3.804 -0.1103 -0.2018  0.2664
32815ION     NA49662  10.185  17.338   3.125 -0.0335 -0.1237  0.0313
32816ION     NA49663  18.400   1.695   9.742 -0.1662  0.0745 -0.4376
32817ION     NA49664   0.293  11.912   5.740 -0.0658 -0.1419 -0.0707
32818ION     NA49665  10.631  12.691   9.758 -0.0053 -0.1305 -0.3195
32819ION     NA49666  17.000   0.323  10.147  0.3072  0.2324 -0.2514
32820ION     NA49667   4.950   2.703  10.438  0.1303 -0.0620 -0.2222
32821ION     NA49668  12.860   4.666  10.339 -0.0168  0.2237 -0.2190
32822ION     NA49669  17.657   5.512  12.031  0.1662  0.2102 -0.2946
32823ION     NA49670  18.155  16.628   1.591  0.2305 -0.0635  0.3200
32824ION     NA49671  10.562   4.719   0.778 -0.1344 -0.2446  0.1733
32825ION     NA49672  18.411   8.485  12.558 -0.0568 -0.0792 -0.0155
32826ION     NA49673   9.708  16.476   5.352  0.0406  0.3084 -0.2701
32827ION     NA49674   4.477   2.277  11.810 -0.1152  0.0194  0.1850
32828ION     NA49675   8.919  18.715   5.514  0.0103 -0.0036  0.3145
32829ION     NA49676  16.392  16.157   9.903  0.1004 -0.1370  0.0188
32830ION     NA49677   6.808  18.457   2.805  0.1794  0.2616 -0.2000
32831ION     NA49678   0.560   9.473   3.710  0.2139  0.1568 -0.1557
32832ION     NA49679  11.349   2.360  10.489 -0.3411 -0.1835  0.1003
32833ION     NA49680   8.406  12.825   5.680  0.0040  0.0044 -0.0893
32834ION     NA49681   9.988   4.398  10.548 -0.3499  0.0230  0.2634
32835ION     NA49682  12.078   5.882  12.959  0.0225 -0.0658  0.0222
32836ION     NA49683  14.030  11.560   2.963  0.0297 -0.1380 -0.1990
32837ION     NA49684   6.489   5.156  13.760 -0.4213 -0.0941  0.0662
32838ION     NA49685   1.455   3.019   5.144  0.0503  0.0741 -0.2316
32839ION     NA49686  14.414   2.535  14.594  0.0734  0.1843 -0.2130
32840ION     NA49687  16.699  10.405  10.105 -0.2379 -0.1448  0.1395
32841ION     NA49688  13.925   3.951   4.136 -0.2192  0.0719 -0.2598
32842ION     NA49689   4.415   0.676  10.095 -0.2721  0.1973  0.0870
32843ION     NA49690  16.207   5.584   4.292 -0.1108  0.1309 -0.3158
32844ION     NA49691  16.430  11.534   4.773  0.1596  0.0671  0.1392
32845ION     NA49692  16.722   7.527   5.585 -0.1930 -0.2992 -0.3641
32846ION     NA49693   2.228  14.571  12.123  0.2688  0.2170 -0.1930
32847ION     NA49694   7.567   6.858  10.285 -0.1857 -0.0521  0.1602
32848ION     NA49695  16.041   9.070   3.510  0.0241  0.2124  0.4465
32849ION     NA49696   7.083  13.013   1.899  0.1324  0.0163  0.2883
32850ION     NA49697  12.908  17.613   3.059 -0.0946 -0.3286  0.1459
32851ION     NA49698   5.347   6.297   1.242  0.0743 -0.0437  0.1536
32852ION     NA49699   5.775  14.374  14.760  0.3584  0.1658  0.3010
32853ION     NA49700   2.176  14.283   0.793  0.2553 -0.1988 -0.3141
32854ION     NA49701   8.503  17.639  10.273  0.0683 -0.1225  0.3458
32855ION     NA49702  17.369  12.729  11.914 -0.1244 -0.0931 -0.0776
32856ION     NA49703   8.510   2.029  15.113  0.3992 -0.2401 -0.0812
32857ION     NA49704   5.607   1.922  10.220  0.1260  0.1129 -0.1616
32858ION     NA49705  18.648  15.753   1.587 -0.0542 -0.0736 -0.0347
32859ION     NA49706   7.550   7.046   5.583 -0.1728 -0.0791 -0.0334
32860ION     NA49707   7.514  18.565   0.784  0.0090 -0.0239  0.2142
32861ION     NA49708  11.760  13.759   5.144 -0.2521  0.0878 -0.1436
32862ION     NA49709   9.054   8.531   5.250 -0.0904  0.0809  0.0006
32863ION     NA49710  14.712  12.389   5.811  0.0541 -0.1604 -0.1918
32864ION     NA49711  16.715   8.748   0.748  0.0174 -0.1727 -0.2003
32865ION     NA49712   3.978   2.973  13.199  0.2556  0.1191 -0.0646
32866ION     NA49713   9.621   6.718  10.304 -0.1806  0.0893  0.2990
32867ION     NA49714   0.785  16.808  10.630 -0.2128 -0.1486 -0.2820
32868ION     NA49715  11.494  18.119   4.899  0.0685  0.1886  0.1364
32869ION     NA49716   4.800   8.207   5.549  0.2781  0.0258  0.1007
32870ION     NA49717  15.557   7.670   5.195 -0.3688  0.1049  0.0796
32871ION     NA49718   9.070  13.762   5.923 -0.2060 -0.0243 -0.0007
32872ION     NA49719   5.720  16.094   9.893  0.0594  0.0814  0.1138
32873ION     NA49720  12.829   5.775   3.531 -0.0890 -0.0575 -0.0797
32874ION     NA49721  14.212   4.825   1.061  0.2066 -0.0395 -0.2013
32875ION     NA49722  16.382  10.510  13.787  0.0057 -0.2372 -0.0903
32876ION     NA49723  13.643   7.747   5.468  0.1672 -0.1610  0.1137
32877ION     NA49724   6.885   9.499   5.340  0.3488  0.1390 -0.2387
32878ION     NA49725   5.133  18.504  14.510  0.0067  0.2112 -0.0707
32879ION     NA49726  16.415   5.393  15.218 -0.0502  0.1641  0.1289
32880ION     NA49727  15.535   9.682  10.729  0.2036  0.2536 -0.1883
32881ION     NA49728   9.571   7.870   5.874 -0.3375 -0.1151  0.1709
32882ION     NA49729   4.788   1.443  14.584 -0.0174  0.2786 -0.1741
32883ION     NA49730   5.757  18.153   9.809 -0.4600  0.0596  0.1037
32884ION     NA49731   1.632  10.907   5.511  0.1195 -0.0391 -0.4540
32885ION     NA49732   3.389   3.785   5.311  0.0595  0.0063 -0.0997
32886ION     NA49733  13.801   6.788  12.514 -0.2499 -0.0899  0.0734
32887ION     NA49734  16.393  18.242   5.277  0.2121  0.1245 -0.3785
32888ION     NA49735   7.182   5.780   3.912  0.1415 -0.1843 -0.0300
32889ION     NA49736  11.279   4.581   6.004 -0.1596  0.0787 -0.2352
32890ION     NA49737  17.507   4.410  10.254 -0.0902  0.0161 -0.1515
32891ION     NA49738  12.792   8.328   1.065 -0.0046  0.2901  0.0533
32892ION     NA49739   0.666  13.256   0.105  0.1183  0.0144  0.0135
32893ION     NA49740   9.935   7.850  11.468 -0.0112 -0.3053 -0.2002
32894ION     NA49741  18.009   7.742   5.545  0.0035 -0.1751 -0.1882
32895ION     NA49742   3.363  10.423   5.386 -0.1657 -0.1549 -0.1236
32896ION     NA49743   9.811  10.891  10.210 -0.2207 -0.2806 -0.0128
32897ION     NA49744  15.734   1.040   5.248 -0.0844  0.3191  0.0259
32898ION     NA49745  16.340   4.095   5.646  0.1429 -0.2178  0.1191
32899ION     NA49746  12.482   5.788  10.350  0.1587 -0.1217 -0.0936
32900ION     NA49747   3.984   2.703  10.343 -0.1489  0.1827  0.0090
32901ION     NA49748   8.333  15.150   0.357  0.1994 -0.3200  0.1613
32902ION     NA49749  17.683   8.469   5.856 -0.3959  0.3930  0.0128
32903ION     NA49750   9.083   0.135   9.982  0.1927 -0.2183  0.0481
32904ION     NA49751  16.746   8.255   6.048 -0.1976 -0.0549 -0.1451
32905ION     NA49752   1.953   0.419   9.918  0.0608 -0.0139 -0.1196
32906ION     NA49753  11.961   2.009   6.165  0.1322 -0.0775  0.3758
32907ION     NA49754  11.163  17.545  10.491 -0.2194 -0.1400  0.0745
32908ION     NA49755   8.826  18.144  14.047 -0.0287  0.2213  0.2239
32909ION     NA49756  12.896   6.888  10.074 -0.1168 -0.0595 -0.0640
32910ION     NA49757  13.881   1.987   5.816 -0.0033  0.0955  0.1864
32911ION     NA49758  12.810   0.827  14.171 -0.0392 -0.0639 -0.2978
32912ION     NA49759   4.480   6.037   0.744 -0.2071  0.1144 -0.1420
32913ION     NA49760  16.834   3.101   1.472  0.3164 -0.0926  0.0826
32914ION     NA49761   1.897   7.034  10.059  0.0751  0.0126  0.4506
32915ION     NA49762   0.894   8.450   0.898  0.1027 -0.0200  0.2374
32916ION     NA49763   5.245   2.866   2.353  0.0766 -0.0706  0.0602
32917ION     NA49764  12.947   9.836  10.279 -0.0706 -0.1024  0.2458
32918ION     NA49765   9.688   3.353  13.586 -0.0644  0.0763 -0.1357
32919ION     NA49766  12.043  18.005   5.606 -0.1480  0.0939  0.0828
32920ION     NA49767   9.135   0.360   2.228 -0.0771  0.2223 -0.0622
32921ION     NA49768   4.106   7.440   3.443 -0.1179  0.2079 -0.2094
32922ION     NA49769   6.607  15.741  10.205 -0.0126 -0.0794 -0.2937
32923ION     NA49770   4.486   8.330   3.862  0.2579 -0.2988  0.0239
32924ION     NA49771  10.279  11.952   2.102 -0.2926  0.1850  0.0835
32925ION     NA49772   1.264   5.832   5.358 -0.0728 -0.0530 -0.0783
32926ION     NA49773   9.640   9.450   0.143 -0.0895  0.0300  0.2105
32927ION     NA49774   1.955  13.611   5.099 -0.2275 -0.0916 -0.0658
32928ION     NA49775   8.490  14.511   4.047 -0.0031 -0.1930  0.0694
32929ION     NA49776  13.963  14.907  14.201  0.2301  0.2711 -0.2411
32930ION     NA49777  15.834   3.795  10.328  0.1764 -0.0597  0.2134
32931ION     NA49778  12.175  14.288   1.181 -0.0969 -0.1691 -0.1651
32932ION     NA49779   2.938   0.252   9.911 -0.0323 -0.0294 -0.0302
32933ION     NA49780   1.290  13.003  10.081  0.0815 -0.1186 -0.0626
32934ION     NA49781  12.921  17.953  10.234 -0.1866 -0.0809 -0.1065
32935ION     NA49782   9.486   7.653  12.454  0.1510 -0.0636 -0.1723
32936ION     NA49783  15.132  15.725   3.879  0.0996  0.0265 -0.2462
32937ION     NA49784  16.778   1.787  13.971  0.2549  0.1776  0.2921
32938ION     NA49785  16.059  10.985  15.050  0.0057  0.1218  0.0732
32939ION     NA49786  13.475   2.600   5.333 -0.3688  0.0143 -0.1057
32940ION     NA49787   6.401  14.409   3.466  0.2976 -0.2602 -0.1101
32941ION     NA49788  14.454   7.700   2.266  0.4097  0.1978 -0.1119
32942ION     NA49789  18.731   8.886   1.732  0.0452 -0.0550 -0.0562
32943ION     NA49790   5.241   1.224   0.884  0.1738  0.1159  0.0788
32944ION     NA49791   7.720  14.589   5.433  0.1609 -0.0720 -0.0455
32945ION     NA49792  14.025  12.618   3.154  0.0203 -0.0086  0.1349
32946ION     NA49793  17.568  11.094  14.516 -0.0130 -0.2773  0.1487
32947ION     NA49794   6.170  10.798   0.869  0.2135 -0.1017  0.1911
32948ION     NA49795  18.289   3.997   0.067 -0.1224 -0.0563  0.1586
32949ION     NA49796  16.977   9.909   1.771  0.1630 -0.0298  0.2096
32950ION     NA49797   8.280   9.912   0.316 -0.3143  0.1271  0.1007
32951ION     NA49798   0.545   5.482   5.537  0.0923 -0.2494  0.0694
32952ION     NA49799  17.932   4.621  10.910 -0.3341  0.0530  0.1832
32953ION     NA49800  15.840   5.255  10.183  0.4971  0.1217  0.1397
32954ION     NA49801  12.854   4.046  10.290  0.2440  0.0379  0.2566
32955ION     NA49802   4.964  10.946  12.813  0.0461 -0.0271  0.4120
32956ION     NA49803  16.446   6.757   5.551  0.0577  0.0136 -0.1397
32957ION     NA49804  18.371   9.823  10.481  0.1159  0.2481 -0.0785
32958ION     NA49805   8.227  18.738   9.629 -0.0950  0.0974  0.0774
32959ION     NA49806   7.968  12.267  14.657 -0.0846  0.0167  0.3750
32960ION     NA49807   7.310  12.066   9.797  0.1502 -0.4148 -0.2891
32961ION     NA49808   6.600   2.661   3.218 -0.1420 -0.0208  0.0795
32962ION     NA49809  17.767  13.660   5.301  0.1419  0.0172  0.0908
32963ION     NA49810   9.864   4.694   5.755 -0.3836  0.0805 -0.2034
32964ION     NA49811   0.480   6.372  10.820  0.0554  0.4907  0.0520
32965ION     NA49812  11.688   5.267  15.111 -0.0779  0.1207 -0.0531
32966ION     NA49813  12.412   8.355  14.662  0.0983 -0.3028  0.0594
32967ION     NA49814  13.764   0.332   2.974 -0.1068 -0.0318 -0.0033
32968ION     NA49815   2.061   7.856  10.213  0.3999 -0.0796 -0.0424
32969ION     NA49816   5.094  12.260  10.291 -0.1196 -0.1600 -0.0993
32970ION     NA49817  16.854   1.143   4.964 -0.1403  0.1042  0.1972
32971ION     NA49818   7.542  15.633   5.348 -0.0004 -0.1106 -0.1566
32972ION     NA49819  18.598   0.384   5.149  0.0661 -0.2780 -0.1189
32973ION     NA49820  15.798   6.625  14.681 -0.0718 -0.1908 -0.1124
32974ION     NA49821   1.986  14.566  13.009  0.2629  0.1966  0.1131
32975ION     NA49822   7.764   4.627  10.274 -0.0596 -0.0279  0.2074
32976ION     NA49823   6.689   4.393   4.404 -0.0293  0.0286  0.0017
32977ION     NA49824   2.755  12.303   3.362 -0.0492  0.1071  0.3068
32978ION     NA49825  16.899   6.050   5.883 -0.4255  0.0265 -0.0538
32979ION     NA49826  10.391   1.886   3.026 -0.1436  0.1259  0.1828
32980ION     NA49827  14.923   4.283   5.051 -0.0853  0.0945  0.0906
32981ION     NA49828   9.112   1.443  12.127 -0.0922 -0.0996 -0.1056
32982ION     NA49829   1.674  16.771  13.597 -0.1841  0.1314  0.2149
32983ION     NA49830   7.318   1.699   0.608  0.1499  0.3458 -0.1354
32984ION     NA49831  13.258  10.425   5.979 -0.1771  0.3514 -0.3887
32985ION     NA49832  10.276   3.810   6.055 -0.2583 -0.0955 -0.0334
32986ION     NA49833  11.242  12.113  14.074 -0.0316 -0.0827  0.1246
32987ION     NA49834  16.993   8.282   2.998  0.2646  0.0902 -0.1265
32988ION     NA49835  10.252  16.231   3.614  0.1622  0.1950 -0.2550
32989ION     NA49836   2.064  11.884  10.606 -0.2716 -0.1192  0.0439
32990ION     NA49837   8.543   0.323  15.019 -0.0138  0.1129  0.3808
32991ION     NA49838   2.461   2.795  15.087  0.0428 -0.1694  0.0456
32992ION     NA49839   3.997  13.548   5.270  0.0135 -0.1494  0.3876
32993ION     NA49840   7.283  16.484  10.082 -0.1405  0.0078  0.1173
32994ION     NA49841   8.993   7.474  10.298 -0.0571  0.1462  0.3754
32995ION     NA49842   7.598   9.270   0.904  0.2449  0.1683  0.1012
32996ION     NA49843   6.340  18.407   3.373 -0.2007  0.2627 -0.1191
32997ION     NA49844   0.536  14.639   5.263  0.2818  0.1247  0.1250
32998ION     NA49845   7.203   1.576   3.306 -0.0790 -0.1060  0.2040
32999ION     NA49846   7.716  14.872  10.127  0.0085 -0.1836  0.0155
33000ION     NA49847  16.767  18.593   3.570 -0.0497  0.0034 -0.2066
33001ION     NA49848   4.465  13.287  11.915 -0.1231  0.2761 -0.1443
33002ION     NA49849  15.893  15.236   1.400  0.4541  0.1393  0.2448
33003ION     NA49850   6.555  11.518   2.202  0.1417  0.1332  0.4557
33004ION     NA49851  18.120  15.856   9.910 -0.0939  0.0915  0.0106
33005ION     NA49852   1.834   7.961   2.481  0.4527  0.1653 -0.3239
33006ION     NA49853   2.145   7.250   3.645 -0.0623  0.1646  0.0231
33007ION     NA49854  15.275   7.468   9.793 -0.2046 -0.2022  0.1417
33008ION     NA49855  12.198  16.245   9.671 -0.1548  0.0124  0.1213
33009ION     NA49856   8.844   3.884   1.820 -0.1450 -0.0678  0.0611
33010ION     NA49857   7.207   5.090   5.493 -0.0908 -0.2473  0.1356
33011ION     NA49858   7.108  15.130  13.883  0.1786  0.2343 -0.1188
33012ION     NA49859  14.662   6.786  10.051  0.1282  0.5009  0.1365
33013ION     NA49860   4.884  13.483   5.620 -0.0327 -0.2528  0.0159
33014ION     NA49861   1.394   1.995  14.559 -0.1596 -0.1057 -0.0738
33015ION     NA49862   9.547   3.166  11.624 -0.1892  0.1464 -0.1373
33016ION     NA49863   6.858   8.578  13.527 -0.1775 -0.0921 -0.2866
33017ION     NA49864  10.216  10.748   5.847 -0.0297 -0.0918 -0.0762
33018ION     NA49865  17.412  10.888   0.460  0.0220 -0.0934 -0.0100
33019ION     NA49866   7.469   9.865   1.167  0.3111 -0.2098  0.0304
33020ION     NA49867  18.624   2.430   5.531  0.4089  0.1216  0.1160
33021ION     NA49868   8.434   9.562  13.855 -0.0390  0.0539  0.1523
33022ION     NA49869  17.900  16.397   3.950 -0.1227 -0.1413 -0.2312
33023ION     NA49870   6.466   9.167  14.744 -0.3130 -0.0795  0.2533
33024ION     NA49871  16.601   9.684  13.441  0.0662 -0.1548 -0.0752
33025ION     NA49872   0.610   4.508   5.507  0.1045  0.1294  0.0271
33026ION     NA49873  13.085   5.515   1.280 -0.1607 -0.3057 -0.2647
33027ION     NA49874  13.880   4.185   3.111 -0.2307  0.1082 -0.0348
33028ION     NA49875   6.437   1.182  11.300 -0.0594  0.1798  0.0059
33029ION     NA49876  12.002   5.874  11.959  0.1810  0.2646  0.1406
33030ION     NA49877   9.042   5.071  10.419  0.2312  0.0191  0.1789
  18.84721  18.84721  15.55928
