INSANE! Membrane UpperLeaflet>loPI:POPI:DPPI:PYPI:ERGO=30.0:5.0:3.0:2.0:10.0 LowerLeaflet>PSPI:POPI:POPS:YOPS:POPE:YOPE:POPC:YOPC:ERGO=6.0:14.0:21.0:9.0:9.0:21.0:12.0:48.0:60.0
49074
    1loPI    C1    1   1.991  10.825  10.483  0.0285  0.1125 -0.0550
    1loPI    C2    2   2.165  11.174  10.395 -0.2203  0.2822  0.1098
    1loPI    C3    3   2.014  11.113  10.760  0.0472 -0.0957  0.1638
    1loPI   PO4    4   1.824  10.770  10.161  0.3778  0.2913  0.4795
    1loPI   GL1    5   1.492  10.640   9.975  0.2597 -0.2343  0.5557
    1loPI   GL2    6   1.135  10.729   9.951 -0.3256  0.3606 -0.3058
    1loPI   C1A    7   1.606  10.432   9.534 -0.1074  0.1416  0.2099
    1loPI   C2A    8   1.597  10.514   9.102  0.0822 -0.1011  0.3657
    1loPI   C3A    9   1.485  10.650   8.713  0.0286 -0.1857 -0.1121
    1loPI   C4A   10   1.363  10.835   8.333  0.1135 -0.0444 -0.3037
    1loPI   C5A   11   1.117  10.758   8.070  0.0092 -0.0940  0.1799
    1loPI   C6A   12   1.003  10.410   7.894 -0.2211 -0.0525  0.0415
    1loPI   C1B   13   1.232  10.801   9.550  0.0022 -0.1394 -0.0116
    1loPI   C2B   14   1.243  10.884   9.141  0.0747 -0.2182  0.1129
    1loPI   C3B   15   1.144  11.053   8.777 -0.0299  0.0410  0.1779
    1loPI   C4B   16   1.179  11.312   8.360  0.0725  0.2817 -0.3639
    2loPI    C1   17  11.421   1.214  11.157 -0.1513 -0.1405 -0.1652
    2loPI    C2   18  11.311   1.599  11.173 -0.1793 -0.1467 -0.2058
    2loPI    C3   19  11.668   1.498  11.022  0.0022 -0.1038  0.1824
    2loPI   PO4   20  11.234   1.067  10.994  0.2442 -0.3356  0.0212
    2loPI   GL1   21  11.175   0.953  10.598  0.3226 -0.2088 -0.0658
    2loPI   GL2   22  10.818   1.087  10.483 -0.0010 -0.3040  0.1345
    2loPI   C1A   23  11.075   0.966  10.117 -0.1901  0.2097  0.1555
    2loPI   C2A   24  10.953   0.953   9.742  0.1256  0.1424  0.1649
    2loPI   C3A   25  10.885   1.002   9.277 -0.1701 -0.2478  0.0759
    2loPI   C4A   26  10.939   0.900   8.915  0.1534  0.4722 -0.0359
    2loPI   C5A   27  10.904   0.660   8.593  0.2191 -0.2123 -0.1378
    2loPI   C6A   28  10.492   0.491   8.361 -0.2337 -0.1480  0.1130
    2loPI   C1B   29  10.574   1.201   9.995  0.0766  0.3558 -0.1700
    2loPI   C2B   30  10.680   1.337   9.578 -0.5262  0.1757  0.1284
    2loPI   C3B   31  10.741   1.479   9.139 -0.1144 -0.1169  0.1382
    2loPI   C4B   32  10.654   1.870   8.891 -0.0054 -0.1361 -0.2068
    3loPI    C1   33   9.477  13.892  10.723  0.0434  0.3404 -0.1146
    3loPI    C2   34   9.658  14.139  10.982  0.0735  0.1811  0.0180
    3loPI    C3   35   9.517  13.786  11.107 -0.1085  0.1969 -0.1376
    3loPI   PO4   36   9.586  13.919  10.507 -0.0765  0.2238 -0.0392
    3loPI   GL1   37   9.670  14.282  10.204 -0.1893  0.0364 -0.1767
    3loPI   GL2   38   9.830  14.102  10.116  0.2336  0.1335  0.4730
    3loPI   C1A   39   9.705  14.555   9.876 -0.2638 -0.2718 -0.0980
    3loPI   C2A   40   9.608  14.533   9.474  0.1012  0.1091  0.1691
    3loPI   C3A   41   9.689  14.658   9.049 -0.1153  0.0399  0.1416
    3loPI   C4A   42   9.768  14.701   8.609 -0.1487  0.1429 -0.1855
    3loPI   C5A   43   9.982  14.848   8.264 -0.1409 -0.0771 -0.1384
    3loPI   C6A   44  10.252  15.162   8.100  0.2883  0.1604  0.1727
    3loPI   C1B   45   9.791  14.093   9.689 -0.0567  0.2981 -0.0603
    3loPI   C2B   46   9.775  14.100   9.248  0.0971  0.0924  0.0474
    3loPI   C3B   47   9.770  14.226   8.844 -0.2491 -0.1065  0.1297
    3loPI   C4B   48   9.642  14.254   8.432  0.0939 -0.1711 -0.1318
    4loPI    C1   49   0.378  16.194  11.513  0.2539  0.0028  0.0609
    4loPI    C2   50   0.067  16.216  11.763  0.0840  0.2246 -0.1653
    4loPI    C3   51   0.298  16.537  11.702  0.2708  0.1023 -0.1099
    4loPI   PO4   52   0.314  16.152  11.251  0.1459  0.1342  0.2671
    4loPI   GL1   53   0.441  16.346  10.896 -0.0685  0.0180 -0.1829
    4loPI   GL2   54   0.248  16.611  11.025 -0.0311 -0.0875  0.1661
    4loPI   C1A   55   0.724  16.312  10.575 -0.0373  0.2259 -0.0634
    4loPI   C2A   56   0.697  16.340  10.091 -0.0413  0.2107 -0.1549
    4loPI   C3A   57   0.699  16.353   9.717 -0.2977  0.0840 -0.2256
    4loPI   C4A   58   0.585  16.308   9.261  0.1662 -0.1000  0.1393
    4loPI   C5A   59   0.434  16.344   8.863  0.2043 -0.0647 -0.0030
    4loPI   C6A   60   0.440  16.366   8.468 -0.2295 -0.3016 -0.1926
    4loPI   C1B   61   0.207  16.586  10.521 -0.0440  0.0355  0.1043
    4loPI   C2B   62   0.253  16.603  10.055 -0.2817 -0.0232  0.1827
    4loPI   C3B   63   0.195  16.496   9.679 -0.1255  0.3814 -0.0416
    4loPI   C4B   64   0.101  16.444   9.254  0.2321 -0.0294  0.1024
    5loPI    C1   65   6.282   3.342  11.114  0.0481 -0.0353  0.2132
    5loPI    C2   66   6.175   3.611  11.391  0.0436  0.2294 -0.0416
    5loPI    C3   67   6.520   3.653  11.193  0.1709 -0.1006  0.1024
    5loPI   PO4   68   6.174   3.237  10.852  0.0802  0.0439 -0.5120
    5loPI   GL1   69   6.153   3.174  10.463 -0.2219  0.1339 -0.0536
    5loPI   GL2   70   6.104   3.455  10.315 -0.0601  0.1847 -0.0165
    5loPI   C1A   71   6.272   2.874  10.174  0.2134  0.2051  0.0975
    5loPI   C2A   72   6.215   2.851   9.725  0.1063 -0.1431  0.1383
    5loPI   C3A   73   6.202   2.856   9.278 -0.0127  0.1018 -0.2374
    5loPI   C4A   74   6.214   2.790   8.865  0.1915  0.1877  0.1195
    5loPI   C5A   75   6.367   2.660   8.424 -0.0067  0.0979  0.0360
    5loPI   C6A   76   6.276   2.513   8.038  0.1163  0.1584 -0.2447
    5loPI   C1B   77   6.163   3.414   9.923  0.2556 -0.1393  0.0594
    5loPI   C2B   78   6.104   3.311   9.455 -0.1119 -0.1486  0.2217
    5loPI   C3B   79   6.136   3.302   8.931  0.1385 -0.2929  0.0064
    5loPI   C4B   80   6.045   3.158   8.567  0.0928 -0.4269  0.5382
    6loPI    C1   81   8.598   9.827  10.168 -0.1490  0.0536 -0.0232
    6loPI    C2   82   8.906  10.081  10.196  0.0748 -0.1938 -0.1860
    6loPI    C3   83   8.751   9.917  10.526 -0.0476  0.1218 -0.0831
    6loPI   PO4   84   8.552   9.810   9.972  0.1043 -0.0020  0.1742
    6loPI   GL1   85   8.459   9.992   9.535  0.0722  0.0902 -0.0735
    6loPI   GL2   86   8.131  10.068   9.607 -0.1152  0.3603 -0.1595
    6loPI   C1A   87   8.685   9.654   9.400  0.0283 -0.1779  0.0314
    6loPI   C2A   88   8.760   9.510   8.997 -0.2522 -0.2458 -0.1849
    6loPI   C3A   89   8.664   9.408   8.586 -0.0075 -0.0453 -0.1666
    6loPI   C4A   90   8.695   9.144   8.352 -0.1225 -0.0488  0.0826
    6loPI   C5A   91   8.607   8.969   7.957  0.0180  0.4331  0.1570
    6loPI   C6A   92   8.550   9.041   7.524 -0.0666 -0.0677  0.2687
    6loPI   C1B   93   8.005  10.114   9.160 -0.0729 -0.1080  0.0369
    6loPI   C2B   94   7.821  10.101   8.676  0.0790  0.1909  0.1425
    6loPI   C3B   95   8.045  10.299   8.257  0.0215 -0.2517  0.2166
    6loPI   C4B   96   8.147   9.997   7.771 -0.2984  0.1925  0.0425
    7loPI    C1   97   6.555   2.162  11.222 -0.2167 -0.1202  0.0438
    7loPI    C2   98   6.795   2.459  11.340  0.0800 -0.2110 -0.3134
    7loPI    C3   99   6.409   2.460  11.445  0.1610  0.1033  0.0004
    7loPI   PO4  100   6.723   2.049  11.003 -0.1189  0.2022 -0.0084
    7loPI   GL1  101   6.900   2.049  10.557  0.2453  0.0978 -0.1257
    7loPI   GL2  102   6.970   2.288  10.380 -0.1595  0.0670 -0.0740
    7loPI   C1A  103   6.815   1.912  10.153 -0.1094  0.2083 -0.2361
    7loPI   C2A  104   6.753   2.023   9.717 -0.1036 -0.0499 -0.0794
    7loPI   C3A  105   6.843   2.140   9.283  0.4273  0.0999 -0.2753
    7loPI   C4A  106   6.751   2.217   8.834 -0.1551 -0.0246 -0.0966
    7loPI   C5A  107   6.786   2.201   8.392  0.1541 -0.0575 -0.0168
    7loPI   C6A  108   6.719   2.256   7.959 -0.2680  0.0563  0.2379
    7loPI   C1B  109   7.244   2.019  10.035 -0.1247 -0.1713 -0.1463
    7loPI   C2B  110   7.242   2.043   9.591  0.0828  0.1132 -0.4343
    7loPI   C3B  111   7.335   2.070   9.270 -0.0998 -0.1040  0.1180
    7loPI   C4B  112   7.331   2.047   8.774  0.1522 -0.0256  0.0911
    8loPI    C1  113   4.766   6.379  10.606  0.0121 -0.1784 -0.0172
    8loPI    C2  114   4.824   6.003  10.729 -0.0333 -0.1367  0.1335
    8loPI    C3  115   4.566   6.239  10.923  0.0516 -0.0040  0.0862
    8loPI   PO4  116   4.801   6.250  10.290 -0.0400 -0.1095  0.1888
    8loPI   GL1  117   4.667   6.180   9.802 -0.2500  0.2918  0.0798
    8loPI   GL2  118   4.806   6.451   9.663  0.1200 -0.0471 -0.0820
    8loPI   C1A  119   5.126   6.095   9.511 -0.2862 -0.0948 -0.4734
    8loPI   C2A  120   5.151   6.185   9.106 -0.0722  0.1487  0.0611
    8loPI   C3A  121   5.255   6.102   8.738  0.0873 -0.1375  0.2151
    8loPI   C4A  122   5.322   6.015   8.314  0.1755 -0.0565 -0.0135
    8loPI   C5A  123   4.912   6.099   8.033  0.0193  0.2218  0.0178
    8loPI   C6A  124   4.559   6.406   7.892 -0.0915  0.4053  0.1404
    8loPI   C1B  125   4.722   6.292   9.274  0.1339 -0.2603  0.0212
    8loPI   C2B  126   4.757   6.255   8.801  0.1130  0.0391  0.1386
    8loPI   C3B  127   4.896   6.523   8.443  0.1316 -0.3037 -0.1628
    8loPI   C4B  128   5.204   6.525   8.088 -0.1885  0.1450  0.0711
    9loPI    C1  129   6.790   0.075  10.919 -0.2635 -0.2474 -0.0761
    9loPI    C2  130   6.645   0.221  11.262 -0.0005  0.0046 -0.0687
    9loPI    C3  131   6.410   0.006  11.021 -0.2075 -0.1147  0.2345
    9loPI   PO4  132   6.852   0.296  10.814 -0.1058  0.0278 -0.1669
    9loPI   GL1  133   6.699   0.501  10.487 -0.1316  0.1470 -0.0422
    9loPI   GL2  134   6.575   0.745  10.344  0.0065  0.1279  0.1432
    9loPI   C1A  135   6.654   0.287  10.055 -0.0923  0.0217  0.0753
    9loPI   C2A  136   6.752   0.210   9.659 -0.1589  0.2303 -0.3013
    9loPI   C3A  137   6.703   0.211   9.260 -0.1706  0.1233  0.0345
    9loPI   C4A  138   6.764   0.296   8.847 -0.3604  0.0865 -0.1516
    9loPI   C5A  139   6.685   0.416   8.458 -0.1782 -0.1031 -0.1676
    9loPI   C6A  140   7.022   0.664   8.250  0.1445 -0.1240  0.1199
    9loPI   C1B  141   6.766   0.764   9.947 -0.2318 -0.0923  0.2178
    9loPI   C2B  142   6.679   0.723   9.559 -0.1567 -0.3722 -0.2685
    9loPI   C3B  143   6.688   0.817   9.181 -0.1588 -0.2045  0.0966
    9loPI   C4B  144   6.660   0.823   8.743 -0.0907  0.0092 -0.0263
   10loPI    C1  145  12.812   8.886  10.526 -0.0845 -0.2778  0.1254
   10loPI    C2  146  12.418   8.822  10.499 -0.0886 -0.1722 -0.0860
   10loPI    C3  147  12.608   8.757  10.845 -0.3092 -0.1268  0.0452
   10loPI   PO4  148  12.831   9.006  10.314  0.2335 -0.1007 -0.0179
   10loPI   GL1  149  12.980   8.828   9.943 -0.0938  0.0366  0.3183
   10loPI   GL2  150  13.185   8.840   9.789 -0.0171 -0.2452 -0.2491
   10loPI   C1A  151  12.755   8.733   9.625  0.2236 -0.1853 -0.1075
   10loPI   C2A  152  12.729   8.708   9.173  0.0730  0.2050  0.2867
   10loPI   C3A  153  12.802   8.756   8.776 -0.0280 -0.1630  0.2736
   10loPI   C4A  154  12.887   8.740   8.307 -0.0626 -0.3464 -0.1264
   10loPI   C5A  155  13.088   8.474   7.950  0.1507 -0.0194  0.0277
   10loPI   C6A  156  13.356   8.368   7.594 -0.2802 -0.0103  0.1447
   10loPI   C1B  157  13.143   8.976   9.386 -0.0572  0.3170 -0.0568
   10loPI   C2B  158  13.272   9.087   8.951 -0.1650  0.1013 -0.3834
   10loPI   C3B  159  13.153   9.094   8.522 -0.5121 -0.5623 -0.1102
   10loPI   C4B  160  13.185   9.185   8.127  0.1556  0.0163 -0.0572
   11loPI    C1  161   2.520   7.740  10.161 -0.1967 -0.0792  0.1162
   11loPI    C2  162   2.290   7.859  10.465 -0.0842  0.0030  0.1696
   11loPI    C3  163   2.639   8.041  10.396 -0.1638  0.0640 -0.0813
   11loPI   PO4  164   2.350   7.734   9.854  0.2293 -0.1290 -0.0601
   11loPI   GL1  165   2.596   7.573   9.564 -0.3152  0.3033  0.0022
   11loPI   GL2  166   2.824   7.695   9.680  0.0727  0.1746 -0.2023
   11loPI   C1A  167   2.569   7.624   9.075  0.2232  0.0994  0.2536
   11loPI   C2A  168   2.545   7.554   8.681 -0.0720  0.0451  0.1783
   11loPI   C3A  169   2.641   7.553   8.257 -0.1756 -0.0373  0.1997
   11loPI   C4A  170   2.928   7.806   7.992  0.3766  0.1979  0.1757
   11loPI   C5A  171   3.109   7.721   7.580 -0.0787 -0.1801  0.1782
   11loPI   C6A  172   3.172   7.952   7.200 -0.0698  0.0979 -0.1360
   11loPI   C1B  173   2.931   7.875   9.302 -0.0536 -0.1121  0.1212
   11loPI   C2B  174   2.919   7.944   8.857 -0.1770  0.2608 -0.0144
   11loPI   C3B  175   2.958   8.105   8.458  0.3413 -0.2496  0.0859
   11loPI   C4B  176   3.077   8.259   7.930  0.1738 -0.0810  0.2887
   12loPI    C1  177  13.463   3.339  10.531  0.1842 -0.0773 -0.0599
   12loPI    C2  178  13.841   3.270  10.641  0.2138  0.1763  0.0020
   12loPI    C3  179  13.606   3.504  10.866  0.0340  0.0577 -0.0609
   12loPI   PO4  180  13.498   3.338  10.264  0.2175 -0.1487  0.2561
   12loPI   GL1  181  13.146   3.684   9.965 -0.1685  0.1188 -0.0392
   12loPI   GL2  182  13.352   3.831  10.109 -0.2484 -0.0412  0.0971
   12loPI   C1A  183  13.108   3.402   9.583  0.0418  0.5538  0.2304
   12loPI   C2A  184  13.045   3.378   9.080 -0.0780  0.0687  0.1685
   12loPI   C3A  185  13.101   3.396   8.652  0.1959 -0.1025  0.0785
   12loPI   C4A  186  12.928   3.491   8.132 -0.1241  0.0160 -0.1789
   12loPI   C5A  187  12.915   3.908   7.904  0.0614 -0.1610  0.1434
   12loPI   C6A  188  13.164   4.208   7.797 -0.2470  0.1354  0.0108
   12loPI   C1B  189  13.288   3.886   9.561 -0.0019  0.0471 -0.0485
   12loPI   C2B  190  13.382   3.842   9.198 -0.0696  0.2458 -0.1603
   12loPI   C3B  191  13.297   3.825   8.750  0.1671 -0.0060  0.0605
   12loPI   C4B  192  13.119   4.006   8.356 -0.1693  0.2216 -0.0480
   13loPI    C1  193  10.175   2.921  10.945  0.0857  0.1158  0.1179
   13loPI    C2  194  10.171   2.785  11.321 -0.0430  0.0666  0.0992
   13loPI    C3  195  10.333   3.141  11.239  0.0770  0.0325  0.1853
   13loPI   PO4  196  10.258   2.815  10.774  0.5604 -0.3407 -0.2804
   13loPI   GL1  197  10.270   2.850  10.396 -0.0062  0.2456 -0.1929
   13loPI   GL2  198  10.003   3.045  10.363  0.1265 -0.5544 -0.1681
   13loPI   C1A  199  10.179   2.890   9.907  0.0517 -0.1261 -0.1387
   13loPI   C2A  200  10.187   2.893   9.450 -0.0390  0.0056  0.1007
   13loPI   C3A  201  10.404   2.774   9.132 -0.3936  0.0570 -0.1647
   13loPI   C4A  202  10.428   2.808   8.793 -0.0089 -0.0775  0.1632
   13loPI   C5A  203  10.150   2.855   8.368  0.2601 -0.3552 -0.1451
   13loPI   C6A  204  10.065   2.705   7.980  0.1881 -0.0982  0.4297
   13loPI   C1B  205   9.885   3.381  10.045 -0.0030  0.0603 -0.0071
   13loPI   C2B  206   9.893   3.255   9.625 -0.1690  0.0570  0.2040
   13loPI   C3B  207   9.860   3.104   9.139 -0.1857  0.2631 -0.0655
   13loPI   C4B  208   9.899   3.015   8.737  0.0752  0.1414 -0.0316
   14loPI    C1  209  17.968  13.288  10.524 -0.2241  0.0167  0.0337
   14loPI    C2  210  18.120  13.373  10.885 -0.2950  0.1427  0.0346
   14loPI    C3  211  18.177  13.012  10.723 -0.0354  0.1731  0.0554
   14loPI   PO4  212  17.751  13.478  10.613  0.0109  0.0313 -0.2196
   14loPI   GL1  213  17.616  13.790  10.335  0.0687  0.1235  0.0552
   14loPI   GL2  214  17.252  13.650  10.381 -0.1832 -0.0988  0.0820
   14loPI   C1A  215  17.798  13.930  10.051 -0.0686  0.1056 -0.1234
   14loPI   C2A  216  17.750  14.104   9.628  0.0775 -0.2155  0.0946
   14loPI   C3A  217  17.696  14.120   9.241  0.0761 -0.0605  0.1348
   14loPI   C4A  218  17.775  14.146   8.872  0.0855  0.0357  0.0674
   14loPI   C5A  219  17.882  14.116   8.449 -0.1045 -0.0924  0.1734
   14loPI   C6A  220  17.918  13.790   8.144 -0.0305 -0.3944  0.0171
   14loPI   C1B  221  17.439  13.665   9.881 -0.1220 -0.0698  0.2658
   14loPI   C2B  222  17.313  13.756   9.400  0.1391 -0.0283 -0.0888
   14loPI   C3B  223  17.320  13.865   9.014  0.1209 -0.0859 -0.3312
   14loPI   C4B  224  17.443  13.929   8.562  0.1832  0.1285 -0.1604
   15loPI    C1  225   4.777  13.358  10.763  0.1439  0.1314 -0.0935
   15loPI    C2  226   5.060  13.233  11.017  0.0062  0.0082  0.0007
   15loPI    C3  227   4.705  13.353  11.156 -0.0193  0.0786 -0.1236
   15loPI   PO4  228   4.912  13.469  10.546  0.1755 -0.0335 -0.3424
   15loPI   GL1  229   4.921  13.441  10.233  0.1548 -0.2609 -0.0209
   15loPI   GL2  230   4.635  13.639  10.174  0.0314 -0.0228 -0.2328
   15loPI   C1A  231   5.081  13.458   9.840  0.2406  0.1163  0.3359
   15loPI   C2A  232   5.032  13.449   9.477 -0.1384 -0.0574  0.0627
   15loPI   C3A  233   4.986  13.576   9.024  0.1375 -0.2525 -0.3540
   15loPI   C4A  234   5.012  13.618   8.569  0.0191 -0.2221  0.0527
   15loPI   C5A  235   4.927  13.875   8.233 -0.1223 -0.1749 -0.0419
   15loPI   C6A  236   4.852  13.715   7.758  0.1165  0.1013 -0.1594
   15loPI   C1B  237   4.629  13.605   9.806 -0.2393 -0.2989 -0.2705
   15loPI   C2B  238   4.605  13.711   9.323  0.0824  0.1681  0.0540
   15loPI   C3B  239   4.487  13.686   8.858 -0.1473 -0.0750 -0.0028
   15loPI   C4B  240   4.443  13.809   8.492  0.5911 -0.0950  0.2547
   16loPI    C1  241   9.478   2.145  11.181  0.4854 -0.1333 -0.0117
   16loPI    C2  242   9.296   2.091  11.533 -0.0454  0.1121 -0.2373
   16loPI    C3  243   9.615   2.331  11.508 -0.0542  0.1594  0.0600
   16loPI   PO4  244   9.233   2.121  10.995 -0.1945 -0.1456  0.0901
   16loPI   GL1  245   8.997   1.977  10.695  0.1947  0.0164  0.0211
   16loPI   GL2  246   8.794   1.592  10.453  0.1470 -0.2620 -0.0449
   16loPI   C1A  247   8.846   2.076  10.193 -0.1467  0.0557 -0.0427
   16loPI   C2A  248   8.746   2.087   9.738  0.0286  0.3636 -0.2624
   16loPI   C3A  249   8.721   2.089   9.380 -0.0435 -0.1008  0.0395
   16loPI   C4A  250   8.755   2.018   8.931 -0.3952  0.1602  0.0442
   16loPI   C5A  251   8.561   1.738   8.523 -0.0199 -0.0111  0.1525
   16loPI   C6A  252   8.496   1.311   8.434  0.1838  0.0312 -0.2113
   16loPI   C1B  253   8.819   1.617   9.989  0.0779 -0.3618 -0.0534
   16loPI   C2B  254   8.820   1.500   9.554 -0.0393 -0.3349  0.5305
   16loPI   C3B  255   8.856   1.516   9.175 -0.2110 -0.1361  0.2032
   16loPI   C4B  256   8.954   1.386   8.769 -0.2133 -0.1398 -0.1876
   17loPI    C1  257  17.831   6.681  10.112 -0.1387  0.1007  0.0347
   17loPI    C2  258  17.792   7.031   9.921  0.1780  0.1062 -0.0249
   17loPI    C3  259  17.868   7.025  10.313 -0.1228  0.0984  0.0357
   17loPI   PO4  260  18.019   6.526  10.010 -0.3418 -0.2001  0.1425
   17loPI   GL1  261  18.067   6.252   9.580  0.1572  0.0521 -0.1160
   17loPI   GL2  262  17.796   6.268   9.319  0.2092 -0.3358 -0.0494
   17loPI   C1A  263  18.277   6.151   9.159 -0.4617  0.0179  0.1478
   17loPI   C2A  264  18.347   6.221   8.752  0.2110 -0.2612  0.1498
   17loPI   C3A  265  18.332   6.247   8.302  0.0010  0.0847 -0.0249
   17loPI   C4A  266  18.392   6.318   7.868  0.2280 -0.2912 -0.0026
   17loPI   C5A  267  18.455   6.643   7.550  0.1882  0.2258  0.0898
   17loPI   C6A  268  18.688   6.899   7.367 -0.5381  0.2854  0.3370
   17loPI   C1B  269  17.825   6.250   8.943  0.1892  0.0076  0.1197
   17loPI   C2B  270  17.860   6.200   8.435 -0.1818  0.1027 -0.0392
   17loPI   C3B  271  17.875   6.318   8.024 -0.0484 -0.0662 -0.1052
   17loPI   C4B  272  17.882   6.442   7.629 -0.0955  0.0387  0.2648
   18loPI    C1  273   5.205  14.731  11.005  0.1054 -0.0575 -0.1089
   18loPI    C2  274   4.922  14.924  10.799  0.1261  0.0587 -0.0293
   18loPI    C3  275   5.061  15.078  11.141  0.2909  0.0059 -0.0717
   18loPI   PO4  276   5.336  14.567  10.817  0.0499  0.1215  0.1744
   18loPI   GL1  277   5.518  14.409  10.432  0.1000  0.1351 -0.0887
   18loPI   GL2  278   5.529  14.795  10.416  0.0594 -0.2234 -0.2038
   18loPI   C1A  279   5.429  14.323  10.019 -0.2296  0.0755  0.1388
   18loPI   C2A  280   5.364  14.413   9.550 -0.2790  0.1461 -0.0984
   18loPI   C3A  281   5.363  14.468   9.097  0.0299 -0.1901 -0.0134
   18loPI   C4A  282   5.227  14.389   8.659 -0.0955  0.2742 -0.0183
   18loPI   C5A  283   5.178  14.472   8.234  0.1150  0.3053  0.0483
   18loPI   C6A  284   5.023  14.925   8.045  0.1221 -0.1997 -0.1504
   18loPI   C1B  285   5.330  14.816  10.031 -0.0021  0.1902  0.4241
   18loPI   C2B  286   5.243  14.878   9.508  0.1357 -0.1205  0.2131
   18loPI   C3B  287   5.217  14.961   9.049 -0.0443  0.1878 -0.0151
   18loPI   C4B  288   5.292  15.006   8.621  0.3118 -0.2311 -0.1694
   19loPI    C1  289   1.251  11.590  10.607  0.1267  0.0940 -0.2155
   19loPI    C2  290   1.059  11.893  10.430 -0.0211  0.1572  0.0467
   19loPI    C3  291   1.166  11.921  10.814  0.4842  0.1070 -0.0828
   19loPI   PO4  292   1.257  11.412  10.348 -0.0934 -0.1687 -0.0300
   19loPI   GL1  293   1.007  11.324   9.927  0.0217 -0.0676  0.2957
   19loPI   GL2  294   0.783  11.110   9.888  0.0628  0.0827 -0.0549
   19loPI   C1A  295   1.300  11.352   9.596  0.2971 -0.2641 -0.1512
   19loPI   C2A  296   1.343  11.413   9.219  0.1133 -0.2633  0.0163
   19loPI   C3A  297   1.209  11.601   8.889 -0.0536  0.0241 -0.0972
   19loPI   C4A  298   1.148  11.843   8.537 -0.0294  0.1658 -0.3326
   19loPI   C5A  299   1.266  11.953   8.116  0.0424  0.1196  0.2396
   19loPI   C6A  300   1.046  12.151   7.757 -0.0670  0.2139  0.1429
   19loPI   C1B  301   0.858  11.109   9.471  0.0224 -0.1318  0.2460
   19loPI   C2B  302   0.864  11.296   9.086  0.0223  0.0644  0.1965
   19loPI   C3B  303   0.784  11.510   8.689  0.2328 -0.1369  0.2414
   19loPI   C4B  304   0.677  11.513   8.301 -0.2162 -0.0529 -0.3160
   20loPI    C1  305  10.630  15.161  11.220  0.2650 -0.2349  0.1185
   20loPI    C2  306  10.699  15.216  11.610  0.1527 -0.0015  0.1070
   20loPI    C3  307  10.580  14.858  11.476  0.1854 -0.0807  0.2875
   20loPI   PO4  308  10.502  15.406  11.070  0.1255  0.1382 -0.0422
   20loPI   GL1  309  10.285  15.379  10.677 -0.3907 -0.0701 -0.1125
   20loPI   GL2  310  10.177  15.603  10.617  0.3381 -0.0244  0.1179
   20loPI   C1A  311  10.037  15.356  10.219  0.0266  0.0833  0.0815
   20loPI   C2A  312   9.901  15.426   9.858  0.2338 -0.1600 -0.0875
   20loPI   C3A  313   9.851  15.485   9.399 -0.0628  0.2032 -0.1558
   20loPI   C4A  314   9.844  15.610   8.941  0.1148  0.2293 -0.0705
   20loPI   C5A  315   9.755  15.430   8.564 -0.1110  0.2380 -0.0159
   20loPI   C6A  316   9.768  15.264   8.202 -0.2422 -0.0291  0.1029
   20loPI   C1B  317  10.213  15.822  10.263 -0.2074  0.1488 -0.2487
   20loPI   C2B  318  10.224  15.776   9.938 -0.1613 -0.1939  0.0473
   20loPI   C3B  319  10.224  15.913   9.479 -0.3028  0.2146  0.1295
   20loPI   C4B  320  10.317  15.936   9.057 -0.3035  0.1209 -0.0466
   21loPI    C1  321   6.354   4.115  11.042 -0.0151  0.1344  0.0012
   21loPI    C2  322   5.997   3.995  11.177  0.0775 -0.1122  0.0314
   21loPI    C3  323   6.172   4.319  11.334 -0.0944 -0.0393  0.0746
   21loPI   PO4  324   6.328   4.135  10.798  0.3776  0.0708 -0.0290
   21loPI   GL1  325   6.411   3.891  10.335 -0.1426 -0.1598  0.4661
   21loPI   GL2  326   6.652   4.124  10.369  0.1369 -0.0384  0.1456
   21loPI   C1A  327   6.483   3.753   9.984 -0.1651 -0.3533  0.2738
   21loPI   C2A  328   6.488   3.725   9.476  0.1559 -0.1449  0.0193
   21loPI   C3A  329   6.566   3.768   9.026 -0.0596 -0.3118 -0.1263
   21loPI   C4A  330   6.608   3.594   8.699 -0.0574  0.0786 -0.1655
   21loPI   C5A  331   6.706   3.183   8.491  0.0188 -0.1435 -0.1578
   21loPI   C6A  332   6.848   3.157   8.015 -0.1810  0.1681  0.1733
   21loPI   C1B  333   6.852   4.224  10.032  0.0939  0.4017 -0.1283
   21loPI   C2B  334   6.884   4.134   9.574  0.1099 -0.0330  0.1516
   21loPI   C3B  335   6.997   4.132   9.167 -0.2173  0.2618 -0.1557
   21loPI   C4B  336   6.944   3.964   8.727 -0.2203  0.0082 -0.0197
   22loPI    C1  337   4.316   8.699  10.467 -0.1510 -0.1844 -0.0053
   22loPI    C2  338   4.388   8.392  10.713 -0.0130 -0.0757  0.0924
   22loPI    C3  339   4.063   8.619  10.767  0.0014 -0.0700  0.1563
   22loPI   PO4  340   4.348   8.581  10.233  0.0393 -0.1192 -0.2645
   22loPI   GL1  341   4.084   8.674   9.931  0.1618 -0.0168  0.2842
   22loPI   GL2  342   3.730   8.749   9.796  0.1094 -0.0248  0.2058
   22loPI   C1A  343   4.110   8.568   9.478  0.1230 -0.2950 -0.0072
   22loPI   C2A  344   4.059   8.756   9.093 -0.3008  0.3278  0.2819
   22loPI   C3A  345   4.019   8.824   8.711  0.1347  0.2805  0.1579
   22loPI   C4A  346   4.062   8.737   8.302 -0.0740  0.0073  0.2733
   22loPI   C5A  347   4.024   8.932   7.924  0.0029 -0.0692  0.1789
   22loPI   C6A  348   3.998   8.812   7.507 -0.0091  0.0731  0.2625
   22loPI   C1B  349   3.823   9.117   9.576 -0.0705 -0.0098 -0.0037
   22loPI   C2B  350   3.974   9.266   9.108 -0.0891 -0.0118  0.2481
   22loPI   C3B  351   3.824   9.329   8.693  0.1741 -0.1540 -0.3685
   22loPI   C4B  352   3.872   9.245   8.266 -0.0216 -0.0563 -0.1928
   23loPI    C1  353  17.043  13.667  11.093  0.2541  0.0811 -0.1538
   23loPI    C2  354  17.184  13.979  11.300  0.1146  0.1893 -0.2200
   23loPI    C3  355  17.179  13.615  11.465  0.2444  0.2280 -0.1291
   23loPI   PO4  356  16.975  13.817  10.838 -0.2784  0.0002 -0.2107
   23loPI   GL1  357  17.078  14.119  10.561 -0.2229 -0.0580 -0.0761
   23loPI   GL2  358  17.219  14.417  10.597 -0.0815  0.1875 -0.3700
   23loPI   C1A  359  17.236  14.097  10.142  0.1502 -0.1409  0.0648
   23loPI   C2A  360  17.296  14.209   9.727 -0.0201  0.0100  0.0584
   23loPI   C3A  361  17.247  14.329   9.310 -0.1125  0.0736 -0.1792
   23loPI   C4A  362  17.337  14.391   8.798 -0.0371 -0.1393  0.0659
   23loPI   C5A  363  17.031  14.288   8.549  0.0916 -0.2411 -0.2652
   23loPI   C6A  364  16.657  14.246   8.815 -0.0853  0.1114 -0.0827
   23loPI   C1B  365  17.167  14.664  10.274 -0.0362 -0.1439 -0.0942
   23loPI   C2B  366  17.103  14.774   9.784 -0.3152  0.1167 -0.2865
   23loPI   C3B  367  17.043  14.775   9.409  0.0218 -0.0506  0.1906
   23loPI   C4B  368  16.905  14.622   8.983 -0.2008  0.1880 -0.1009
   24loPI    C1  369  14.040   5.150  10.067 -0.1389  0.2256 -0.0366
   24loPI    C2  370  13.878   5.206  10.428 -0.2749 -0.0114 -0.0585
   24loPI    C3  371  14.227   5.015  10.394 -0.2004  0.1208 -0.0440
   24loPI   PO4  372  13.928   5.383   9.945 -0.0051  0.0032 -0.0267
   24loPI   GL1  373  13.614   5.534   9.691  0.2136  0.2242  0.0402
   24loPI   GL2  374  13.357   5.406   9.756  0.1125  0.0740 -0.1260
   24loPI   C1A  375  13.889   5.685   9.342 -0.1271  0.0368  0.1204
   24loPI   C2A  376  14.210   5.755   9.059  0.0900 -0.1708  0.1190
   24loPI   C3A  377  14.145   5.754   8.651 -0.1868  0.1072 -0.2400
   24loPI   C4A  378  14.089   5.797   8.186 -0.1840 -0.2244  0.0267
   24loPI   C5A  379  14.334   5.999   7.921  0.3265  0.4430 -0.0015
   24loPI   C6A  380  14.799   5.966   7.713 -0.0182  0.3000 -0.1457
   24loPI   C1B  381  13.128   5.251   9.314  0.0595 -0.0148 -0.0777
   24loPI   C2B  382  13.166   5.218   8.943 -0.0779  0.1204 -0.0546
   24loPI   C3B  383  13.313   5.400   8.533  0.1109 -0.0295  0.1112
   24loPI   C4B  384  13.310   5.646   8.133 -0.0816 -0.1757 -0.0767
   25loPI    C1  385   6.906   5.844  10.766  0.2887  0.0470  0.0514
   25loPI    C2  386   7.065   6.208  10.715  0.1062  0.1298  0.0649
   25loPI    C3  387   7.118   6.013  11.060  0.1373  0.1775  0.0873
   25loPI   PO4  388   6.972   5.750  10.470  0.0774  0.0742  0.1217
   25loPI   GL1  389   6.939   6.024  10.153 -0.0054  0.1392 -0.3121
   25loPI   GL2  390   6.659   6.077   9.987  0.1061 -0.1152  0.1180
   25loPI   C1A  391   7.087   5.979   9.740  0.0583 -0.0255  0.0403
   25loPI   C2A  392   7.080   5.946   9.306 -0.1871 -0.1570 -0.0525
   25loPI   C3A  393   7.166   5.901   8.902 -0.1665  0.0597 -0.0747
   25loPI   C4A  394   7.154   5.885   8.387 -0.0524 -0.0918 -0.0350
   25loPI   C5A  395   6.977   5.698   8.027 -0.1589 -0.0974 -0.0224
   25loPI   C6A  396   7.209   5.606   7.617 -0.0245  0.1046 -0.0494
   25loPI   C1B  397   6.643   6.095   9.531  0.0922 -0.1854  0.3226
   25loPI   C2B  398   6.744   6.162   9.017  0.3663  0.3024  0.1042
   25loPI   C3B  399   6.678   6.143   8.563 -0.1880  0.2420  0.0372
   25loPI   C4B  400   6.831   6.359   8.225  0.1912 -0.4059  0.2211
   26loPI    C1  401   5.902   4.933  10.628  0.2683 -0.0550 -0.1381
   26loPI    C2  402   6.011   4.911  11.012 -0.1328  0.2398  0.0002
   26loPI    C3  403   6.192   5.171  10.768  0.0946  0.0809 -0.0042
   26loPI   PO4  404   5.830   4.739  10.484  0.3137  0.1503  0.0889
   26loPI   GL1  405   5.617   4.732  10.114  0.1557 -0.0878  0.0585
   26loPI   GL2  406   5.782   4.434  10.055 -0.0275  0.0650  0.1018
   26loPI   C1A  407   5.405   4.531   9.708 -0.2413 -0.2246 -0.2963
   26loPI   C2A  408   5.496   4.404   9.284 -0.0560  0.3368  0.0941
   26loPI   C3A  409   5.504   4.447   8.869 -0.1045 -0.0857  0.2401
   26loPI   C4A  410   5.632   4.432   8.437 -0.2547 -0.2920 -0.1380
   26loPI   C5A  411   5.903   4.595   8.123 -0.2278  0.1057 -0.5403
   26loPI   C6A  412   6.210   5.006   8.080  0.1610 -0.1203  0.1199
   26loPI   C1B  413   5.935   4.467   9.610  0.0824  0.0021 -0.0002
   26loPI   C2B  414   6.000   4.210   9.272  0.1725 -0.2682 -0.0092
   26loPI   C3B  415   5.949   4.287   8.944  0.1398 -0.2422 -0.1913
   26loPI   C4B  416   6.077   4.216   8.459 -0.0608 -0.2909  0.1107
   27loPI    C1  417  13.228   6.139  10.213 -0.2339  0.0556 -0.0130
   27loPI    C2  418  13.210   5.924  10.550 -0.1208  0.1068  0.0264
   27loPI    C3  419  12.878   6.089  10.400 -0.2249 -0.1701 -0.0538
   27loPI   PO4  420  13.431   6.286  10.146  0.0598 -0.0000 -0.1468
   27loPI   GL1  421  13.415   6.586   9.801 -0.3347 -0.0763 -0.2909
   27loPI   GL2  422  13.133   6.435   9.783  0.2935  0.2784 -0.0101
   27loPI   C1A  423  13.542   6.841   9.425 -0.1722 -0.1794  0.1621
   27loPI   C2A  424  13.454   6.920   9.008 -0.2512  0.1175  0.2466
   27loPI   C3A  425  13.430   6.995   8.660  0.0490  0.2236  0.1592
   27loPI   C4A  426  13.234   7.241   8.194 -0.4154  0.0456  0.0009
   27loPI   C5A  427  13.407   7.438   7.931 -0.0735 -0.1666 -0.0855
   27loPI   C6A  428  13.566   7.867   7.798  0.0317 -0.0675 -0.0445
   27loPI   C1B  429  13.113   6.506   9.271 -0.2467 -0.1049  0.2212
   27loPI   C2B  430  13.157   6.549   8.732 -0.4761 -0.1857  0.3542
   27loPI   C3B  431  13.025   6.395   8.316 -0.2123  0.0391  0.2466
   27loPI   C4B  432  13.308   6.218   8.064 -0.1997  0.1324 -0.2311
   28loPI    C1  433   9.693   5.468  10.785  0.0274 -0.1512 -0.2780
   28loPI    C2  434   9.873   5.171  10.587 -0.1453 -0.3871 -0.0869
   28loPI    C3  435   9.637   5.089  10.900 -0.0581 -0.0357  0.0761
   28loPI   PO4  436   9.902   5.705  10.713  0.1191 -0.0373  0.0684
   28loPI   GL1  437  10.203   5.913  10.288  0.0189 -0.0987  0.0361
   28loPI   GL2  438   9.955   5.669  10.222 -0.2320  0.1108  0.1469
   28loPI   C1A  439   9.954   6.002   9.851  0.1202  0.0708 -0.1268
   28loPI   C2A  440   9.921   5.954   9.455  0.0199  0.1330 -0.1691
   28loPI   C3A  441   9.868   5.847   9.046  0.0140 -0.2000 -0.0945
   28loPI   C4A  442   9.932   5.824   8.648 -0.0231 -0.0726  0.0070
   28loPI   C5A  443   9.800   5.735   8.160  0.4245  0.4217  0.3176
   28loPI   C6A  444   9.865   5.452   7.783  0.0089  0.1442  0.1689
   28loPI   C1B  445  10.028   5.487   9.741 -0.1887 -0.1947  0.1398
   28loPI   C2B  446   9.984   5.442   9.347 -0.2157 -0.1431  0.0268
   28loPI   C3B  447   9.926   5.342   8.885 -0.1929  0.3369 -0.0524
   28loPI   C4B  448   9.871   5.261   8.414 -0.0773 -0.1274  0.1201
   29loPI    C1  449  15.265   4.360  10.422  0.1130 -0.0706  0.0260
   29loPI    C2  450  14.956   4.469  10.651 -0.1233 -0.1992 -0.2271
   29loPI    C3  451  15.283   4.313  10.819 -0.0452  0.2748  0.0773
   29loPI   PO4  452  15.333   4.614  10.282 -0.3459  0.0128  0.0546
   29loPI   GL1  453  15.466   4.696   9.884 -0.1552  0.0266  0.1950
   29loPI   GL2  454  15.464   4.427   9.711 -0.3909  0.0889 -0.1107
   29loPI   C1A  455  15.284   4.857   9.541  0.1126 -0.0773 -0.0488
   29loPI   C2A  456  15.130   4.840   9.203  0.0998  0.0094  0.2832
   29loPI   C3A  457  15.172   5.067   8.866  0.0199 -0.1996 -0.0354
   29loPI   C4A  458  15.181   5.430   8.633  0.2006 -0.2704  0.2168
   29loPI   C5A  459  14.953   5.381   8.174  0.3215 -0.0344 -0.1567
   29loPI   C6A  460  14.691   5.056   7.995  0.1870  0.1759  0.0870
   29loPI   C1B  461  15.480   4.427   9.239  0.2815 -0.0745 -0.0603
   29loPI   C2B  462  15.377   4.263   8.864 -0.3632 -0.0220  0.1915
   29loPI   C3B  463  15.232   4.398   8.416 -0.1236  0.2603 -0.0485
   29loPI   C4B  464  14.983   4.608   8.069 -0.1117 -0.2519 -0.2074
   30loPI    C1  465   6.232  16.955  10.780 -0.0802 -0.0449  0.0380
   30loPI    C2  466   6.127  16.960  11.166 -0.1614  0.1238  0.0150
   30loPI    C3  467   6.070  16.630  10.947  0.0093 -0.0173  0.1798
   30loPI   PO4  468   6.342  17.171  10.747 -0.0033  0.0922 -0.0789
   30loPI   GL1  469   6.520  17.305  10.367  0.2310 -0.0500 -0.0913
   30loPI   GL2  470   6.562  16.911  10.371 -0.2648 -0.2533  0.1778
   30loPI   C1A  471   6.442  17.402  10.002  0.0603  0.1665  0.0579
   30loPI   C2A  472   6.584  17.318   9.650  0.0667 -0.1030  0.0849
   30loPI   C3A  473   6.663  17.413   9.196  0.1420  0.0832  0.0563
   30loPI   C4A  474   6.639  17.453   8.696  0.0307 -0.2528 -0.3254
   30loPI   C5A  475   6.400  17.564   8.256 -0.0669 -0.2390 -0.0650
   30loPI   C6A  476   6.001  17.823   8.039  0.3853  0.2232  0.1073
   30loPI   C1B  477   6.601  16.904   9.957  0.1086  0.0557 -0.2223
   30loPI   C2B  478   6.622  16.815   9.518  0.1078  0.0047 -0.3181
   30loPI   C3B  479   6.651  16.911   9.115  0.0678 -0.0956 -0.0815
   30loPI   C4B  480   6.685  16.954   8.662 -0.1714 -0.2077 -0.2176
   31loPI    C1  481   2.305  12.442  10.843  0.1341 -0.1290 -0.0492
   31loPI    C2  482   2.155  12.081  10.926 -0.2380  0.0681  0.1625
   31loPI    C3  483   2.248  12.332  11.223 -0.0275  0.1672  0.0155
   31loPI   PO4  484   2.304  12.457  10.608  0.2400 -0.2097 -0.0687
   31loPI   GL1  485   2.165  12.475  10.238  0.1820  0.1929  0.1088
   31loPI   GL2  486   2.314  12.161  10.023 -0.1972  0.0148  0.0063
   31loPI   C1A  487   2.085  12.615   9.815 -0.1159  0.3694  0.0158
   31loPI   C2A  488   2.136  12.583   9.374 -0.0007  0.1171  0.2202
   31loPI   C3A  489   2.151  12.563   8.930 -0.0776 -0.1815  0.2752
   31loPI   C4A  490   2.022  12.535   8.623  0.1381  0.2286  0.1167
   31loPI   C5A  491   2.082  12.464   8.171 -0.3242  0.5260  0.3594
   31loPI   C6A  492   2.126  12.164   7.717 -0.0898  0.1656  0.0333
   31loPI   C1B  493   2.454  12.236   9.563  0.0530  0.3021  0.1250
   31loPI   C2B  494   2.553  12.278   9.175 -0.1636 -0.0610 -0.2921
   31loPI   C3B  495   2.566  12.339   8.837 -0.0561  0.0909 -0.1530
   31loPI   C4B  496   2.456  12.381   8.445 -0.0234  0.3143  0.0010
   32loPI    C1  497   8.252   1.567  11.504  0.2326 -0.0176  0.0587
   32loPI    C2  498   8.028   1.374  11.773 -0.1402  0.2882 -0.0237
   32loPI    C3  499   8.420   1.422  11.836 -0.0935 -0.2380  0.1320
   32loPI   PO4  500   8.123   1.447  11.309 -0.1978  0.1060  0.3271
   32loPI   GL1  501   8.104   1.181  10.999 -0.0794  0.3521  0.1773
   32loPI   GL2  502   7.835   1.096  10.855 -0.0675  0.1426  0.1056
   32loPI   C1A  503   8.388   1.296  10.642  0.0002  0.4069 -0.1270
   32loPI   C2A  504   8.561   1.243  10.202 -0.0263  0.0938 -0.0117
   32loPI   C3A  505   8.506   1.149   9.797 -0.0326 -0.0961 -0.1127
   32loPI   C4A  506   8.476   1.180   9.386 -0.0563  0.1316  0.1253
   32loPI   C5A  507   8.406   1.174   8.991  0.2213  0.0121 -0.1640
   32loPI   C6A  508   8.214   0.978   8.734 -0.2666 -0.3710 -0.4334
   32loPI   C1B  509   8.004   0.861  10.520 -0.0596  0.4867 -0.1059
   32loPI   C2B  510   8.198   0.866  10.113  0.2381 -0.0541 -0.0800
   32loPI   C3B  511   8.086   0.834   9.694  0.2882 -0.0880  0.2014
   32loPI   C4B  512   8.096   0.916   9.271  0.1727  0.2002 -0.3696
   33loPI    C1  513   3.351  17.289  11.206 -0.1686  0.2352 -0.0795
   33loPI    C2  514   3.197  17.091  11.518  0.1785  0.1302  0.0289
   33loPI    C3  515   3.297  17.477  11.555 -0.1826  0.2377 -0.0830
   33loPI   PO4  516   3.261  17.170  11.000 -0.0363 -0.2345 -0.0649
   33loPI   GL1  517   3.176  17.083  10.582 -0.0724 -0.2514  0.2800
   33loPI   GL2  518   3.378  17.131  10.483 -0.1309  0.0466  0.0065
   33loPI   C1A  519   2.949  16.822  10.367 -0.2160 -0.1282  0.0031
   33loPI   C2A  520   2.975  16.704   9.893 -0.1012 -0.2105 -0.1194
   33loPI   C3A  521   2.815  16.583   9.553 -0.0760  0.0336 -0.1179
   33loPI   C4A  522   2.889  16.635   9.123  0.0095 -0.1432 -0.1815
   33loPI   C5A  523   2.815  16.669   8.753  0.0782  0.1541  0.0946
   33loPI   C6A  524   2.552  16.663   8.299  0.1710 -0.3236  0.2125
   33loPI   C1B  525   3.239  17.112  10.046 -0.3218  0.3408 -0.1949
   33loPI   C2B  526   3.329  17.055   9.636  0.1958  0.0786  0.0600
   33loPI   C3B  527   3.252  16.962   9.178 -0.5422 -0.2207  0.0471
   33loPI   C4B  528   3.248  16.975   8.754 -0.0229 -0.1220 -0.0823
   34loPI    C1  529   1.704  13.049  11.048  0.0806 -0.1187  0.0628
   34loPI    C2  530   1.690  13.281  11.374  0.1189 -0.0865  0.0416
   34loPI    C3  531   1.800  12.897  11.406 -0.0650 -0.1357  0.0953
   34loPI   PO4  532   1.781  13.133  10.876 -0.1920 -0.0718  0.0309
   34loPI   GL1  533   1.851  13.317  10.467 -0.0165 -0.0490  0.1311
   34loPI   GL2  534   2.044  13.617  10.351  0.1046 -0.0396 -0.1008
   34loPI   C1A  535   1.711  13.421  10.066 -0.2562  0.0116 -0.0772
   34loPI   C2A  536   1.758  13.629   9.692  0.2214 -0.2845  0.3884
   34loPI   C3A  537   1.767  13.709   9.200  0.1306 -0.0673 -0.0977
   34loPI   C4A  538   1.777  13.593   8.689 -0.0344 -0.0191 -0.2120
   34loPI   C5A  539   1.570  13.568   8.376  0.1250 -0.0165  0.1385
   34loPI   C6A  540   1.575  13.682   8.023  0.0624  0.1065  0.3207
   34loPI   C1B  541   2.182  13.938  10.012 -0.1374  0.4157  0.0576
   34loPI   C2B  542   2.095  14.009   9.654 -0.1664  0.1479 -0.1677
   34loPI   C3B  543   2.218  14.057   9.259 -0.1406  0.0411  0.1893
   34loPI   C4B  544   2.171  13.957   8.845 -0.0769 -0.0934  0.0527
   35loPI    C1  545   9.402  16.042  10.979 -0.1445 -0.1056 -0.0582
   35loPI    C2  546   9.608  16.252  11.250  0.2538 -0.1415 -0.3253
   35loPI    C3  547   9.538  15.863  11.310  0.1527 -0.1010 -0.1750
   35loPI   PO4  548   9.213  16.069  10.930  0.5840 -0.1995 -0.0413
   35loPI   GL1  549   8.789  16.289  10.623 -0.3357  0.1015 -0.0599
   35loPI   GL2  550   9.122  16.448  10.563 -0.0046 -0.0204 -0.0629
   35loPI   C1A  551   8.704  16.185  10.127 -0.0851  0.2805  0.1294
   35loPI   C2A  552   8.687  16.102   9.750  0.2277 -0.0315 -0.0154
   35loPI   C3A  553   8.733  16.135   9.345  0.0619  0.1661 -0.0747
   35loPI   C4A  554   8.704  16.352   8.986 -0.1327 -0.1926  0.1424
   35loPI   C5A  555   8.837  16.545   8.582  0.2602  0.3065 -0.0297
   35loPI   C6A  556   9.240  16.548   8.359 -0.1898  0.0267 -0.0616
   35loPI   C1B  557   8.989  16.595  10.247 -0.1930 -0.0240  0.1754
   35loPI   C2B  558   9.108  16.511   9.760  0.0298 -0.3381  0.1757
   35loPI   C3B  559   9.049  16.534   9.345 -0.0033  0.1417 -0.3833
   35loPI   C4B  560   9.108  16.699   8.963 -0.1245  0.0100  0.5328
   36loPI    C1  561   2.754  14.938  11.222 -0.0704 -0.0488  0.2505
   36loPI    C2  562   3.039  14.680  11.113 -0.2846 -0.1846 -0.0011
   36loPI    C3  563   2.790  14.589  11.413 -0.2614 -0.2012  0.0132
   36loPI   PO4  564   2.591  14.979  10.987  0.1413  0.4132  0.1055
   36loPI   GL1  565   2.528  15.270  10.733 -0.1579 -0.2152  0.0237
   36loPI   GL2  566   2.577  15.622  10.617  0.1513  0.0087 -0.1394
   36loPI   C1A  567   2.381  15.300  10.326 -0.1600 -0.1467 -0.2026
   36loPI   C2A  568   2.258  15.362   9.906  0.1985 -0.0053  0.1475
   36loPI   C3A  569   2.269  15.325   9.410 -0.0094 -0.2867  0.0491
   36loPI   C4A  570   2.392  15.379   8.965  0.2769  0.0260  0.0766
   36loPI   C5A  571   2.339  15.209   8.531 -0.5386  0.0646 -0.0909
   36loPI   C6A  572   2.463  14.989   8.158 -0.0132 -0.1935  0.1549
   36loPI   C1B  573   2.656  15.734  10.158  0.0197 -0.1210 -0.1350
   36loPI   C2B  574   2.564  15.713   9.686  0.0083  0.1140 -0.1864
   36loPI   C3B  575   2.602  15.820   9.278 -0.1512 -0.0869  0.0760
   36loPI   C4B  576   2.510  15.850   8.809 -0.2595  0.1231  0.1019
   37loPI    C1  577  14.249  17.139  11.395 -0.2576  0.0332  0.0194
   37loPI    C2  578  14.374  17.370  11.697 -0.1464  0.1930 -0.1466
   37loPI    C3  579  14.156  17.044  11.772  0.0528  0.1172  0.1206
   37loPI   PO4  580  14.155  17.288  11.248  0.4175 -0.1719 -0.0957
   37loPI   GL1  581  14.368  17.353  10.823  0.0733  0.4511  0.0860
   37loPI   GL2  582  14.204  17.046  10.575  0.5394 -0.0910 -0.0278
   37loPI   C1A  583  14.452  17.620  10.465 -0.1055 -0.0939 -0.0317
   37loPI   C2A  584  14.477  17.777  10.061 -0.0662  0.0552  0.0871
   37loPI   C3A  585  14.490  17.869   9.675  0.1126 -0.1530 -0.1195
   37loPI   C4A  586  14.515  17.806   9.301 -0.0449 -0.1655  0.0506
   37loPI   C5A  587  14.563  17.727   8.868 -0.0851  0.0475  0.0005
   37loPI   C6A  588  14.484  17.395   8.574  0.1599  0.1828  0.2333
   37loPI   C1B  589  14.140  16.932  10.173  0.0579 -0.0393 -0.0718
   37loPI   C2B  590  14.166  16.949   9.715  0.2088 -0.0257 -0.3300
   37loPI   C3B  591  14.224  16.985   9.293 -0.1516  0.0997 -0.2185
   37loPI   C4B  592  14.177  17.095   8.890  0.3087  0.1153  0.0790
   38loPI    C1  593   9.910  15.988  11.048  0.0622  0.0265 -0.0419
   38loPI    C2  594   9.747  15.641  10.934 -0.0683  0.1000 -0.0802
   38loPI    C3  595  10.034  15.644  11.212  0.1260 -0.0639 -0.2754
   38loPI   PO4  596   9.945  16.097  10.880 -0.1923  0.2726  0.1017
   38loPI   GL1  597   9.774  15.948  10.524  0.0651  0.4734 -0.0152
   38loPI   GL2  598   9.539  16.201  10.523  0.2532  0.4648  0.0172
   38loPI   C1A  599   9.764  15.910  10.114  0.3398  0.0077 -0.2163
   38loPI   C2A  600   9.724  15.875   9.738  0.0130  0.0590 -0.0321
   38loPI   C3A  601   9.744  15.976   9.315 -0.2746 -0.0730 -0.0215
   38loPI   C4A  602   9.813  16.101   8.888  0.0159  0.0232 -0.1134
   38loPI   C5A  603  10.173  15.889   8.544  0.2042  0.0091 -0.0190
   38loPI   C6A  604  10.316  15.467   8.432 -0.1742 -0.1031  0.2487
   38loPI   C1B  605   9.507  16.481  10.130 -0.0859 -0.2263  0.2671
   38loPI   C2B  606   9.603  16.479   9.641  0.0871  0.0889  0.0716
   38loPI   C3B  607   9.546  16.451   9.225  0.3239  0.2459  0.6806
   38loPI   C4B  608   9.581  16.571   8.851 -0.0780 -0.1339  0.1164
   39loPI    C1  609  12.797  17.246  10.920 -0.0769 -0.0163 -0.1122
   39loPI    C2  610  12.977  17.283  11.276 -0.1780 -0.2345 -0.0363
   39loPI    C3  611  12.687  17.012  11.226 -0.2050 -0.1649 -0.2702
   39loPI   PO4  612  12.955  17.273  10.718  0.0770 -0.3297 -0.3271
   39loPI   GL1  613  12.763  17.127  10.274 -0.1302 -0.1853 -0.0716
   39loPI   GL2  614  12.511  17.318  10.537 -0.1514 -0.2015  0.1123
   39loPI   C1A  615  12.812  16.948   9.867  0.1293  0.1604  0.2335
   39loPI   C2A  616  12.814  16.921   9.499  0.0363  0.1287  0.1593
   39loPI   C3A  617  12.747  16.968   9.099 -0.1934 -0.1775 -0.0604
   39loPI   C4A  618  12.650  16.784   8.662  0.3288  0.1970 -0.0715
   39loPI   C5A  619  12.645  16.506   8.333  0.0010  0.1523 -0.1726
   39loPI   C6A  620  12.891  16.232   8.129  0.0763 -0.2545 -0.0562
   39loPI   C1B  621  12.442  17.506  10.183  0.2170  0.1657  0.0761
   39loPI   C2B  622  12.269  17.606   9.810  0.0645  0.1705  0.1203
   39loPI   C3B  623  12.161  17.717   9.364  0.2122  0.1991 -0.0707
   39loPI   C4B  624  12.079  17.572   8.894 -0.0494  0.0759  0.4349
   40loPI    C1  625  10.188  17.997  11.393 -0.0259  0.0359  0.1440
   40loPI    C2  626   9.911  18.213  11.582 -0.1894  0.0338 -0.0887
   40loPI    C3  627  10.254  18.124  11.766 -0.1532  0.4197  0.0408
   40loPI   PO4  628  10.210  18.107  11.117 -0.0920  0.1153  0.2051
   40loPI   GL1  629   9.964  18.144  10.696 -0.1996  0.2546  0.3331
   40loPI   GL2  630   9.985  17.764  10.869 -0.0160  0.0402 -0.2024
   40loPI   C1A  631   9.868  17.874  10.203 -0.1120 -0.4107 -0.0329
   40loPI   C2A  632   9.700  17.969   9.762 -0.0908 -0.3548  0.0487
   40loPI   C3A  633   9.725  17.953   9.429  0.3129 -0.4821 -0.1350
   40loPI   C4A  634   9.678  17.812   9.051  0.0931  0.0313  0.1944
   40loPI   C5A  635   9.886  17.860   8.640 -0.5547  0.1769  0.0724
   40loPI   C6A  636  10.266  17.876   8.510 -0.1239  0.1652  0.0756
   40loPI   C1B  637   9.619  17.519  10.511  0.1563  0.1091  0.0298
   40loPI   C2B  638   9.494  17.360  10.034 -0.0863 -0.0018  0.1177
   40loPI   C3B  639   9.348  17.507   9.655  0.1785  0.1757 -0.0003
   40loPI   C4B  640   9.353  17.452   9.190 -0.1112 -0.0957  0.1424
   41loPI    C1  641   4.236   2.479  11.067 -0.0173 -0.0395 -0.0369
   41loPI    C2  642   4.174   2.144  11.277  0.0550  0.0426  0.1163
   41loPI    C3  643   4.402   2.436  11.428  0.1163  0.0984 -0.0811
   41loPI   PO4  644   4.340   2.440  10.840  0.1847 -0.0655  0.3254
   41loPI   GL1  645   4.176   2.354  10.502 -0.1202  0.0341 -0.0820
   41loPI   GL2  646   4.411   2.372  10.282 -0.1845 -0.0220 -0.1349
   41loPI   C1A  647   3.960   2.189  10.120  0.2854 -0.4798 -0.1191
   41loPI   C2A  648   3.986   2.113   9.636 -0.0620 -0.0467  0.2836
   41loPI   C3A  649   3.974   2.154   9.228 -0.0281  0.0302 -0.1823
   41loPI   C4A  650   4.101   2.070   8.818 -0.0178  0.2086 -0.1433
   41loPI   C5A  651   4.090   2.267   8.385  0.4912  0.0399 -0.0926
   41loPI   C6A  652   3.734   2.653   8.184 -0.1226  0.1140 -0.0008
   41loPI   C1B  653   4.324   2.496   9.798  0.3237 -0.2269 -0.1016
   41loPI   C2B  654   4.397   2.553   9.450 -0.0195 -0.2170 -0.2972
   41loPI   C3B  655   4.429   2.465   8.999 -0.0238 -0.0932 -0.0255
   41loPI   C4B  656   4.591   2.403   8.694 -0.0057 -0.1725  0.0324
   42loPI    C1  657   2.256  14.359  10.936 -0.2217  0.1500  0.1146
   42loPI    C2  658   2.501  14.161  11.183 -0.1014  0.1385 -0.0127
   42loPI    C3  659   2.292  13.962  10.906 -0.0228  0.1819 -0.1042
   42loPI   PO4  660   2.422  14.519  10.820 -0.1153  0.2962 -0.1443
   42loPI   GL1  661   2.629  14.829  10.524 -0.2692  0.0555  0.1811
   42loPI   GL2  662   2.810  14.702  10.471  0.0909  0.4199  0.0087
   42loPI   C1A  663   2.442  14.860  10.139 -0.1769 -0.0467  0.0584
   42loPI   C2A  664   2.373  14.930   9.686 -0.0041  0.3378  0.6131
   42loPI   C3A  665   2.442  14.808   9.339  0.1412 -0.1928 -0.0568
   42loPI   C4A  666   2.354  14.809   8.899  0.0785  0.1002  0.2044
   42loPI   C5A  667   2.417  14.608   8.521  0.0122 -0.0900  0.2823
   42loPI   C6A  668   2.453  14.205   8.378 -0.1234  0.0239  0.3186
   42loPI   C1B  669   2.913  14.807  10.052  0.4420 -0.0959  0.0511
   42loPI   C2B  670   3.159  15.021   9.757 -0.0325  0.1070 -0.0903
   42loPI   C3B  671   3.312  15.143   9.484  0.2325 -0.1576 -0.0132
   42loPI   C4B  672   3.509  15.396   9.203  0.0099  0.3820  0.0293
   43loPI    C1  673  17.485   7.438  10.061  0.3071 -0.2815  0.0791
   43loPI    C2  674  17.790   7.587   9.849  0.0941  0.0141 -0.0251
   43loPI    C3  675  17.556   7.831  10.063 -0.1459 -0.1935 -0.0458
   43loPI   PO4  676  17.366   7.273   9.868  0.0952 -0.2231  0.1135
   43loPI   GL1  677  17.506   7.282   9.489 -0.2194  0.2399 -0.1542
   43loPI   GL2  678  17.386   7.574   9.471 -0.0897 -0.3406  0.0709
   43loPI   C1A  679  17.612   6.885   9.190 -0.0433 -0.1111 -0.0447
   43loPI   C2A  680  17.605   6.709   8.792  0.2496  0.0127  0.0990
   43loPI   C3A  681  17.621   6.642   8.449  0.0592  0.0111  0.0005
   43loPI   C4A  682  17.569   6.743   7.965 -0.0435  0.1259  0.0716
   43loPI   C5A  683  17.478   7.032   7.717  0.1291 -0.1568 -0.0922
   43loPI   C6A  684  17.567   7.381   7.464  0.0455 -0.1444 -0.0350
   43loPI   C1B  685  17.457   7.548   9.034 -0.0984  0.0990  0.4895
   43loPI   C2B  686  17.380   7.652   8.612 -0.0553 -0.5394 -0.1323
   43loPI   C3B  687  17.050   7.809   8.439 -0.1794  0.3504 -0.0348
   43loPI   C4B  688  16.604   7.752   8.624 -0.2262  0.1905 -0.1339
   44loPI    C1  689   8.100   7.070  10.768 -0.0388  0.0121  0.1058
   44loPI    C2  690   8.314   7.057  11.106  0.0060  0.0608  0.0797
   44loPI    C3  691   7.963   6.865  11.083 -0.0511  0.1506  0.1915
   44loPI   PO4  692   8.283   6.963  10.601  0.1039 -0.2183  0.2011
   44loPI   GL1  693   8.142   6.699  10.237 -0.0604 -0.1232 -0.0825
   44loPI   GL2  694   7.906   6.953  10.268 -0.1857 -0.0027  0.2538
   44loPI   C1A  695   8.064   6.726   9.834  0.0862  0.1528 -0.0724
   44loPI   C2A  696   7.949   6.741   9.470 -0.1681 -0.2403 -0.1104
   44loPI   C3A  697   7.924   6.589   9.097 -0.0567 -0.2957 -0.0019
   44loPI   C4A  698   7.961   6.540   8.547  0.1769  0.0899 -0.2514
   44loPI   C5A  699   7.988   6.803   8.139 -0.0989  0.0485  0.1131
   44loPI   C6A  700   8.275   7.052   7.914 -0.2189  0.1410  0.2076
   44loPI   C1B  701   7.755   7.197   9.945  0.1042 -0.0675  0.2010
   44loPI   C2B  702   7.643   7.151   9.541  0.3824 -0.1168  0.2166
   44loPI   C3B  703   7.799   7.110   9.098 -0.0303 -0.1612  0.1580
   44loPI   C4B  704   7.720   7.105   8.695 -0.1868  0.1124 -0.0944
   45loPI    C1  705   8.678   0.546  11.587 -0.1056  0.1084 -0.0340
   45loPI    C2  706   8.288   0.462  11.621 -0.0676 -0.0010  0.1421
   45loPI    C3  707   8.498   0.573  11.943  0.0219  0.1702  0.0262
   45loPI   PO4  708   8.636   0.561  11.244 -0.2439  0.0669 -0.0519
   45loPI   GL1  709   8.814   0.334  10.801  0.0272  0.2336  0.0636
   45loPI   GL2  710   8.445   0.311  10.883 -0.1841 -0.0468 -0.0661
   45loPI   C1A  711   8.927   0.216  10.406  0.0933  0.1042 -0.0210
   45loPI   C2A  712   8.741   0.232  10.082 -0.0718 -0.1310 -0.3665
   45loPI   C3A  713   8.742   0.190   9.549  0.0519 -0.4013 -0.0400
   45loPI   C4A  714   8.657   0.239   9.185  0.0269  0.5289  0.0235
   45loPI   C5A  715   8.765   0.303   8.797  0.0527 -0.0269 -0.1667
   45loPI   C6A  716   8.501   0.417   8.446 -0.0243 -0.2496  0.1215
   45loPI   C1B  717   8.363   0.422  10.412 -0.0223 -0.0428  0.4127
   45loPI   C2B  718   8.201   0.356  10.052  0.2290  0.2778  0.1341
   45loPI   C3B  719   8.282   0.292   9.600  0.0260 -0.0330  0.0905
   45loPI   C4B  720   8.135   0.255   9.225  0.2302  0.2257 -0.0388
   46loPI    C1  721  11.107   0.846  11.428 -0.1984  0.0838 -0.0407
   46loPI    C2  722  11.264   0.652  11.740 -0.0025  0.0384 -0.1659
   46loPI    C3  723  11.022   0.965  11.801 -0.0454 -0.0315  0.0319
   46loPI   PO4  724  11.012   0.629  11.214 -0.1889  0.0923  0.1099
   46loPI   GL1  725  10.915   0.504  10.744 -0.0860 -0.1182  0.0872
   46loPI   GL2  726  11.180   0.344  10.566  0.1257 -0.1463  0.0221
   46loPI   C1A  727  10.788   0.618  10.377 -0.0190  0.2235 -0.0480
   46loPI   C2A  728  10.673   0.655  10.006  0.0543 -0.0146 -0.2758
   46loPI   C3A  729  10.553   0.635   9.635  0.1366 -0.3976 -0.0255
   46loPI   C4A  730  10.539   0.603   9.192  0.0529  0.1740  0.3559
   46loPI   C5A  731  10.392   0.721   8.805  0.0688 -0.0571 -0.1449
   46loPI   C6A  732  10.418   1.023   8.481  0.1046  0.0872  0.0751
   46loPI   C1B  733  11.183   0.403  10.223 -0.1471 -0.1572  0.1742
   46loPI   C2B  734  11.134   0.459   9.769 -0.0163  0.2893  0.0203
   46loPI   C3B  735  11.100   0.458   9.373 -0.4378 -0.4241  0.0073
   46loPI   C4B  736  10.997   0.344   8.996  0.0773  0.0688 -0.1744
   47loPI    C1  737   6.043  14.350  11.205 -0.1662  0.1454 -0.0401
   47loPI    C2  738   6.205  14.685  11.058  0.0378  0.1264  0.1356
   47loPI    C3  739   6.307  14.558  11.423 -0.1795 -0.0284  0.1442
   47loPI   PO4  740   6.158  14.132  10.986  0.1713  0.1228  0.2743
   47loPI   GL1  741   6.248  14.252  10.526  0.1919  0.2254 -0.2743
   47loPI   GL2  742   6.338  14.127  10.282 -0.0184 -0.2237  0.0785
   47loPI   C1A  743   5.815  14.084  10.232  0.1055  0.0791  0.1055
   47loPI   C2A  744   5.860  14.048   9.860 -0.1268 -0.2351  0.5960
   47loPI   C3A  745   5.932  14.261   9.523  0.1466  0.0414  0.0099
   47loPI   C4A  746   5.820  14.266   9.063  0.0528  0.1705  0.2288
   47loPI   C5A  747   5.877  14.186   8.566  0.0368  0.0607 -0.3731
   47loPI   C6A  748   5.925  13.804   8.422 -0.1606 -0.1250 -0.0686
   47loPI   C1B  749   6.728  14.067  10.077  0.2144  0.2618  0.1026
   47loPI   C2B  750   6.835  13.893   9.699  0.0951 -0.1634 -0.2198
   47loPI   C3B  751   6.881  13.862   9.287 -0.2812 -0.2331 -0.1492
   47loPI   C4B  752   6.808  14.054   8.905 -0.1520  0.1026  0.0531
   48loPI    C1  753   8.607  13.266  10.735  0.0424  0.1867  0.0701
   48loPI    C2  754   8.840  13.339  11.052  0.1360  0.0087  0.0431
   48loPI    C3  755   8.518  13.105  11.090  0.1759 -0.0545 -0.0036
   48loPI   PO4  756   8.744  13.401  10.563 -0.4224  0.1443  0.1309
   48loPI   GL1  757   8.620  13.499  10.218  0.1790 -0.1895 -0.0186
   48loPI   GL2  758   8.345  13.590  10.071 -0.2362  0.2878 -0.1505
   48loPI   C1A  759   8.890  13.654   9.906  0.0870  0.0872  0.2041
   48loPI   C2A  760   8.791  13.756   9.427 -0.1023  0.0790  0.2477
   48loPI   C3A  761   8.801  13.884   8.929 -0.1470 -0.1709 -0.2863
   48loPI   C4A  762   8.814  13.682   8.617 -0.0207  0.0236  0.2890
   48loPI   C5A  763   8.901  13.658   8.215 -0.1711 -0.2351 -0.0686
   48loPI   C6A  764   9.264  13.380   8.102 -0.0970  0.0273  0.0711
   48loPI   C1B  765   8.384  13.775   9.690 -0.2649  0.0802 -0.1504
   48loPI   C2B  766   8.361  13.949   9.262  0.2795 -0.0888  0.1576
   48loPI   C3B  767   8.363  14.058   8.937 -0.2448 -0.0736 -0.0637
   48loPI   C4B  768   8.350  14.375   8.585  0.0011  0.1592 -0.1112
   49loPI    C1  769   7.982   6.029  10.864  0.2059  0.2894 -0.2005
   49loPI    C2  770   8.026   6.046  11.261  0.1379 -0.0640 -0.1751
   49loPI    C3  771   7.823   6.333  11.070 -0.1237 -0.0680  0.0884
   49loPI   PO4  772   7.998   5.766  10.783 -0.0656  0.1512 -0.4945
   49loPI   GL1  773   7.929   5.660  10.447  0.0534  0.2149  0.0083
   49loPI   GL2  774   8.057   5.359  10.368  0.0447 -0.0218  0.1084
   49loPI   C1A  775   8.046   5.770  10.053 -0.3019 -0.0937  0.2287
   49loPI   C2A  776   8.139   5.713   9.623  0.0635 -0.1815 -0.1302
   49loPI   C3A  777   8.095   5.676   9.201 -0.1638 -0.3511  0.0434
   49loPI   C4A  778   8.079   5.629   8.776 -0.1359 -0.1940 -0.1745
   49loPI   C5A  779   8.050   5.489   8.270 -0.2024  0.0283  0.1179
   49loPI   C6A  780   8.067   5.498   7.784  0.0484 -0.0295  0.0096
   49loPI   C1B  781   8.207   5.321   9.957  0.0333  0.1448 -0.1938
   49loPI   C2B  782   8.247   5.203   9.538 -0.0779 -0.1128  0.2952
   49loPI   C3B  783   8.244   5.160   9.108 -0.0723 -0.2300  0.0609
   49loPI   C4B  784   8.128   5.056   8.625  0.0017 -0.2182  0.1680
   50loPI    C1  785   9.742   7.884  10.747 -0.0093 -0.0296 -0.1096
   50loPI    C2  786   9.355   7.809  10.678 -0.0259 -0.2054  0.1561
   50loPI    C3  787   9.534   7.653  11.000  0.2105  0.0571  0.1559
   50loPI   PO4  788   9.808   7.926  10.448 -0.3075  0.0974  0.0566
   50loPI   GL1  789   9.801   8.065  10.101  0.4789  0.3079 -0.1227
   50loPI   GL2  790   9.998   8.065   9.971 -0.0928 -0.1283 -0.1433
   50loPI   C1A  791   9.579   7.815   9.815  0.0351  0.1389  0.3428
   50loPI   C2A  792   9.537   7.689   9.389  0.0600 -0.2077 -0.1891
   50loPI   C3A  793   9.632   7.533   9.020 -0.3138 -0.1177 -0.0934
   50loPI   C4A  794   9.578   7.461   8.550  0.0584  0.1983  0.1687
   50loPI   C5A  795   9.808   7.588   8.132  0.2017  0.0306 -0.1918
   50loPI   C6A  796   9.666   7.875   7.914 -0.0511  0.0492  0.0044
   50loPI   C1B  797  10.026   7.898   9.508 -0.0423  0.1609  0.0902
   50loPI   C2B  798  10.008   7.920   9.031 -0.0489  0.0266  0.2206
   50loPI   C3B  799   9.885   7.881   8.639 -0.0732 -0.1105 -0.1969
   50loPI   C4B  800  10.063   8.030   8.212 -0.6923 -0.0848  0.2537
   51loPI    C1  801   0.606   4.907  10.478 -0.1872 -0.1070 -0.0195
   51loPI    C2  802   0.301   5.089  10.662 -0.0787 -0.0153  0.0714
   51loPI    C3  803   0.625   4.983  10.871 -0.0266 -0.0658 -0.0345
   51loPI   PO4  804   0.465   4.725  10.284  0.3061 -0.0177  0.2039
   51loPI   GL1  805   0.372   4.716   9.821  0.0050 -0.0018 -0.2517
   51loPI   GL2  806   0.290   4.507   9.701  0.2292  0.1282  0.1388
   51loPI   C1A  807   0.467   4.826   9.373 -0.0258 -0.0075  0.1377
   51loPI   C2A  808   0.504   4.693   8.964  0.1506 -0.0249 -0.3052
   51loPI   C3A  809   0.590   4.548   8.621  0.1346  0.0553  0.0999
   51loPI   C4A  810   0.672   4.450   8.231  0.2121  0.0161 -0.2127
   51loPI   C5A  811   0.773   4.007   8.030  0.0525 -0.1050  0.2468
   51loPI   C6A  812   0.823   3.612   7.927 -0.0800  0.3781  0.0683
   51loPI   C1B  813   0.276   4.249   9.310  0.1199  0.1540  0.3542
   51loPI   C2B  814   0.280   4.275   8.857 -0.1159  0.1721 -0.1564
   51loPI   C3B  815   0.263   4.190   8.471 -0.3108 -0.0878  0.1127
   51loPI   C4B  816   0.249   4.181   8.041  0.2463 -0.0972 -0.0761
   52loPI    C1  817   8.994   6.478  10.831  0.0539  0.2252 -0.0376
   52loPI    C2  818   9.228   6.296  11.099 -0.0912  0.1740  0.0556
   52loPI    C3  819   8.854   6.398  11.197 -0.0704  0.3605 -0.0548
   52loPI   PO4  820   9.032   6.313  10.592  0.0378 -0.4647  0.0553
   52loPI   GL1  821   9.072   6.516  10.230  0.1078  0.0628 -0.2333
   52loPI   GL2  822   9.027   6.841  10.140  0.3419  0.2590 -0.1619
   52loPI   C1A  823   8.932   6.382   9.764  0.0015  0.0839  0.0074
   52loPI   C2A  824   8.917   6.369   9.432  0.1357 -0.0018 -0.0529
   52loPI   C3A  825   8.893   6.304   8.990  0.2228 -0.1246  0.1169
   52loPI   C4A  826   8.988   6.204   8.555  0.3618  0.1991  0.1741
   52loPI   C5A  827   8.724   6.207   8.204 -0.2197  0.3035  0.0695
   52loPI   C6A  828   8.595   6.580   8.062  0.0135  0.0818  0.1604
   52loPI   C1B  829   9.142   6.830   9.714 -0.3248  0.0404 -0.1662
   52loPI   C2B  830   9.179   6.716   9.273 -0.3671 -0.0664 -0.0815
   52loPI   C3B  831   9.280   6.545   8.864  0.2478  0.0674  0.0525
   52loPI   C4B  832   9.430   6.448   8.508  0.1337  0.1027  0.0327
   53loPI    C1  833   5.960   2.486  11.252 -0.1111 -0.0652  0.1439
   53loPI    C2  834   6.019   2.130  11.425  0.0790 -0.0102  0.1943
   53loPI    C3  835   5.862   2.432  11.637 -0.0629 -0.0575  0.1573
   53loPI   PO4  836   6.108   2.508  11.024 -0.0053 -0.3750 -0.3901
   53loPI   GL1  837   6.146   2.712  10.722 -0.1091 -0.1915  0.1083
   53loPI   GL2  838   5.849   2.734  10.583  0.1749  0.1060  0.1341
   53loPI   C1A  839   6.195   2.395  10.399 -0.0060  0.1830  0.3129
   53loPI   C2A  840   6.291   2.375  10.019  0.4457  0.0490  0.0878
   53loPI   C3A  841   6.312   2.376   9.569  0.2240 -0.0258  0.0247
   53loPI   C4A  842   6.285   2.316   9.163  0.1448 -0.0378 -0.2888
   53loPI   C5A  843   6.299   2.165   8.622 -0.1604  0.0083 -0.3156
   53loPI   C6A  844   6.315   2.131   8.326 -0.1995  0.0999 -0.0915
   53loPI   C1B  845   5.777   2.555  10.263  0.0443  0.1458 -0.0651
   53loPI   C2B  846   5.851   2.525   9.807  0.0810  0.2300  0.0818
   53loPI   C3B  847   5.868   2.481   9.324  0.0904 -0.0026 -0.1377
   53loPI   C4B  848   5.875   2.425   8.906 -0.1361 -0.2338 -0.0787
   54loPI    C1  849  17.111   8.640  10.047 -0.0393  0.0638 -0.1877
   54loPI    C2  850  17.195   8.749  10.423  0.0317 -0.3286 -0.0855
   54loPI    C3  851  16.825   8.798  10.278 -0.0293 -0.2940  0.0790
   54loPI   PO4  852  17.328   8.569   9.967 -0.0250  0.0233 -0.0004
   54loPI   GL1  853  17.622   8.538   9.583 -0.0419  0.0068 -0.0758
   54loPI   GL2  854  17.937   8.583   9.349 -0.0242 -0.0141 -0.0276
   54loPI   C1A  855  17.477   8.699   9.167  0.3005 -0.0714  0.0168
   54loPI   C2A  856  17.445   8.700   8.620 -0.1100  0.2808  0.0230
   54loPI   C3A  857  17.138   8.732   8.318  0.1468 -0.1125 -0.0361
   54loPI   C4A  858  16.846   8.848   8.052 -0.0639 -0.3438  0.3523
   54loPI   C5A  859  16.559   8.597   7.888  0.0393  0.2178  0.0342
   54loPI   C6A  860  16.247   8.486   7.676  0.1253 -0.1107  0.3680
   54loPI   C1B  861  18.010   8.586   8.981  0.0100 -0.1620 -0.1236
   54loPI   C2B  862  18.012   8.659   8.574 -0.1007 -0.0940  0.1909
   54loPI   C3B  863  17.826   8.531   8.162 -0.0792 -0.0958  0.0700
   54loPI   C4B  864  17.462   8.456   8.083  0.0528  0.0286 -0.0863
   55loPI    C1  865   5.080   7.974  10.325 -0.1033 -0.2316  0.1721
   55loPI    C2  866   4.918   8.162  10.639  0.0365 -0.0309  0.1267
   55loPI    C3  867   5.249   7.941  10.686 -0.1515 -0.3041  0.1881
   55loPI   PO4  868   4.910   7.826  10.153 -0.0079  0.0614 -0.0670
   55loPI   GL1  869   4.591   7.769   9.867 -0.0441 -0.1451  0.1130
   55loPI   GL2  870   4.622   7.458   9.680  0.1764 -0.1572 -0.2195
   55loPI   C1A  871   4.810   7.917   9.515  0.0961 -0.1626 -0.1487
   55loPI   C2A  872   4.924   8.009   9.142 -0.1104 -0.0382  0.2367
   55loPI   C3A  873   5.091   8.024   8.675 -0.2613 -0.0413  0.0775
   55loPI   C4A  874   5.428   7.871   8.335 -0.0725 -0.2200  0.0371
   55loPI   C5A  875   5.548   7.629   7.947 -0.0949 -0.2064 -0.0427
   55loPI   C6A  876   5.901   7.498   7.696  0.0557  0.1172  0.2319
   55loPI   C1B  877   4.631   7.479   9.234 -0.1897  0.0294  0.0596
   55loPI   C2B  878   4.779   7.526   8.872  0.4904 -0.2933  0.1755
   55loPI   C3B  879   4.890   7.644   8.436 -0.0136  0.1180  0.2301
   55loPI   C4B  880   5.050   7.450   8.086  0.0568  0.0029  0.1040
   56loPI    C1  881  10.121  12.206  10.916  0.2820 -0.3579  0.2960
   56loPI    C2  882  10.435  12.379  10.739 -0.0708  0.1664  0.1588
   56loPI    C3  883  10.260  12.555  11.052 -0.2612 -0.0956  0.2030
   56loPI   PO4  884   9.955  12.093  10.684  0.1709  0.2864 -0.2054
   56loPI   GL1  885  10.106  12.090  10.267 -0.2890  0.1213 -0.1722
   56loPI   GL2  886  10.285  12.326  10.194 -0.0695  0.0146 -0.2972
   56loPI   C1A  887   9.934  12.289   9.897  0.4359 -0.0989  0.0843
   56loPI   C2A  888   9.987  12.366   9.517 -0.0697  0.2095 -0.1279
   56loPI   C3A  889   9.998  12.566   9.016  0.0370 -0.3338 -0.4299
   56loPI   C4A  890  10.034  12.660   8.642  0.1079 -0.0485  0.0344
   56loPI   C5A  891  10.337  12.892   8.245 -0.2452  0.1734  0.1570
   56loPI   C6A  892  10.661  13.020   8.123  0.0643  0.0577  0.5663
   56loPI   C1B  893  10.452  12.311   9.805  0.0684  0.0935 -0.4263
   56loPI   C2B  894  10.431  12.396   9.331  0.2411 -0.0557 -0.4225
   56loPI   C3B  895  10.577  12.318   9.032 -0.1173  0.3118  0.0202
   56loPI   C4B  896  10.562  12.484   8.588  0.0497 -0.2386 -0.1620
   57loPI    C1  897  16.117  14.060  11.128 -0.1399 -0.1323 -0.0408
   57loPI    C2  898  16.065  14.233  11.485 -0.2078  0.0533 -0.1392
   57loPI    C3  899  16.128  13.838  11.461 -0.1450  0.0487  0.0810
   57loPI   PO4  900  16.321  14.228  10.982 -0.3112 -0.1378  0.0690
   57loPI   GL1  901  16.257  14.026  10.492 -0.1884  0.1615  0.0291
   57loPI   GL2  902  16.016  14.018  10.591 -0.0403 -0.1325 -0.0930
   57loPI   C1A  903  16.320  13.894  10.039 -0.3855  0.0484 -0.1639
   57loPI   C2A  904  16.343  13.923   9.598  0.1393 -0.0884  0.1397
   57loPI   C3A  905  16.203  13.996   9.201 -0.1128 -0.0796  0.1981
   57loPI   C4A  906  16.161  14.031   8.719  0.1372  0.4111 -0.0312
   57loPI   C5A  907  16.075  14.335   8.427 -0.1094  0.1125 -0.0498
   57loPI   C6A  908  16.061  14.650   8.119  0.0158  0.2630  0.2520
   57loPI   C1B  909  15.823  14.091  10.149  0.3023  0.0088  0.0310
   57loPI   C2B  910  15.834  14.087   9.705 -0.0198  0.0629  0.0966
   57loPI   C3B  911  15.712  14.152   9.326  0.0384  0.1867  0.2960
   57loPI   C4B  912  15.813  14.293   8.947 -0.2209 -0.0611  0.1441
   58loPI    C1  913  16.118   1.802  10.869  0.1960  0.0293 -0.2284
   58loPI    C2  914  16.174   2.047  11.180  0.0700 -0.1119 -0.0925
   58loPI    C3  915  15.841   2.077  10.959 -0.0183 -0.2602  0.0188
   58loPI   PO4  916  16.431   1.715  10.777  0.0660  0.0121 -0.3133
   58loPI   GL1  917  16.571   1.378  10.546  0.1231  0.2400 -0.3892
   58loPI   GL2  918  16.414   1.212  10.277 -0.0597 -0.1820  0.1401
   58loPI   C1A  919  16.885   1.479  10.230 -0.0695  0.2294  0.1992
   58loPI   C2A  920  17.160   1.390   9.923  0.0836 -0.1655 -0.1418
   58loPI   C3A  921  17.268   1.411   9.481 -0.0038  0.1079  0.0278
   58loPI   C4A  922  17.332   1.432   9.039 -0.1983 -0.3588  0.1098
   58loPI   C5A  923  17.445   1.305   8.615  0.2438  0.0288 -0.1241
   58loPI   C6A  924  17.577   1.158   8.168 -0.4698 -0.1237 -0.2413
   58loPI   C1B  925  16.426   1.273   9.763  0.1720 -0.3500  0.0913
   58loPI   C2B  926  16.466   1.172   9.327  0.2081 -0.1130  0.2818
   58loPI   C3B  927  16.491   1.185   8.909  0.2821 -0.2394 -0.1813
   58loPI   C4B  928  16.683   1.040   8.439  0.3543 -0.2019  0.0116
   59loPI    C1  929   6.066   7.779  10.510 -0.0775  0.2075  0.0691
   59loPI    C2  930   6.102   7.439  10.718  0.1242  0.0057 -0.2860
   59loPI    C3  931   6.147   7.791  10.902  0.0975 -0.1616  0.0493
   59loPI   PO4  932   5.737   7.788  10.362 -0.0103 -0.3653 -0.1293
   59loPI   GL1  933   5.470   7.936   9.961  0.1441  0.0480 -0.0300
   59loPI   GL2  934   5.248   8.209   9.803  0.0614  0.1386  0.1238
   59loPI   C1A  935   5.722   7.822   9.604 -0.0767  0.1001 -0.1291
   59loPI   C2A  936   5.776   7.798   9.159  0.0490  0.1060  0.1803
   59loPI   C3A  937   5.757   7.747   8.768 -0.1193 -0.1376  0.1563
   59loPI   C4A  938   5.941   7.642   8.369 -0.0281 -0.1038 -0.1110
   59loPI   C5A  939   5.885   7.287   8.149 -0.2174 -0.3253 -0.0152
   59loPI   C6A  940   5.812   6.919   7.810  0.1617  0.3015 -0.0658
   59loPI   C1B  941   5.323   8.060   9.438  0.0115  0.3844 -0.1606
   59loPI   C2B  942   5.401   8.111   9.059 -0.1513 -0.2014 -0.0613
   59loPI   C3B  943   5.515   8.301   8.763 -0.1296  0.1830  0.2978
   59loPI   C4B  944   5.432   8.338   8.376 -0.0106 -0.2709  0.1319
   60loPI    C1  945   3.269  11.873  10.511 -0.0639  0.1017 -0.0041
   60loPI    C2  946   3.104  11.956  10.866  0.0235 -0.1603  0.1002
   60loPI    C3  947   3.490  11.853  10.843  0.0334 -0.0874 -0.0785
   60loPI   PO4  948   3.202  12.041  10.363 -0.4333  0.1812 -0.3458
   60loPI   GL1  949   3.596  12.006  10.031  0.0449 -0.0774 -0.1514
   60loPI   GL2  950   3.363  12.095   9.879 -0.1689  0.0092  0.3743
   60loPI   C1A  951   3.852  11.841   9.676 -0.1342  0.0740  0.1628
   60loPI   C2A  952   3.938  11.901   9.263  0.2548  0.1526  0.0209
   60loPI   C3A  953   3.962  11.956   8.861  0.2854  0.1165  0.0141
   60loPI   C4A  954   3.951  11.974   8.401 -0.0395 -0.2686  0.4463
   60loPI   C5A  955   4.085  12.122   8.085  0.2074  0.1719 -0.0272
   60loPI   C6A  956   4.268  12.009   7.644  0.2290 -0.0926  0.0119
   60loPI   C1B  957   3.484  12.091   9.485 -0.2556  0.0508  0.7865
   60loPI   C2B  958   3.469  12.062   9.018  0.1057  0.0847  0.1572
   60loPI   C3B  959   3.473  11.990   8.567 -0.2394 -0.1506  0.0613
   60loPI   C4B  960   3.545  12.202   8.232 -0.0492 -0.1398 -0.0228
   61loPI    C1  961  12.591  10.116  10.489 -0.0063 -0.0863 -0.0830
   61loPI    C2  962  12.450   9.798  10.685 -0.1070 -0.0827 -0.1491
   61loPI    C3  963  12.437  10.159  10.855 -0.0190 -0.1090 -0.0857
   61loPI   PO4  964  12.489  10.086  10.259 -0.0759  0.2217 -0.0596
   61loPI   GL1  965  12.513   9.771   9.974  0.0141  0.0744 -0.0474
   61loPI   GL2  966  12.221   9.908   9.819  0.3572  0.3321 -0.4182
   61loPI   C1A  967  12.704   9.770   9.525  0.0764  0.2372  0.2446
   61loPI   C2A  968  12.640   9.749   9.068 -0.1268  0.2649 -0.0416
   61loPI   C3A  969  12.692   9.883   8.672 -0.0555  0.0209 -0.1819
   61loPI   C4A  970  12.597   9.990   8.324 -0.1262 -0.2426  0.2023
   61loPI   C5A  971  12.299  10.145   7.983  0.0084 -0.1727  0.0165
   61loPI   C6A  972  12.157  10.508   8.002  0.0419 -0.1444 -0.3786
   61loPI   C1B  973  12.260  10.025   9.372  0.0912 -0.1484 -0.0191
   61loPI   C2B  974  12.201  10.064   8.882 -0.1995  0.3166 -0.2446
   61loPI   C3B  975  12.134  10.062   8.528 -0.1641 -0.0897  0.1207
   61loPI   C4B  976  11.843  10.129   8.268 -0.0718 -0.0547 -0.0034
   62loPI    C1  977   8.832  15.205  10.845  0.0595 -0.0714 -0.1544
   62loPI    C2  978   8.467  15.343  10.933  0.0985  0.0303 -0.1503
   62loPI    C3  979   8.763  15.373  11.201  0.0802 -0.1636 -0.1065
   62loPI   PO4  980   8.942  15.286  10.687 -0.3138  0.0393 -0.1173
   62loPI   GL1  981   8.843  15.432  10.361  0.0902  0.0399  0.1341
   62loPI   GL2  982   8.615  15.189  10.338  0.0636  0.0169  0.0641
   62loPI   C1A  983   8.981  15.660  10.013  0.1914 -0.0572  0.1352
   62loPI   C2A  984   8.914  15.685   9.530  0.0745 -0.2432 -0.0997
   62loPI   C3A  985   8.901  15.735   9.100  0.0733 -0.0956  0.4351
   62loPI   C4A  986   8.850  15.929   8.698  0.2521  0.1554  0.0255
   62loPI   C5A  987   8.986  15.997   8.355 -0.0894  0.0358  0.0073
   62loPI   C6A  988   9.201  15.844   8.008  0.1645 -0.2550 -0.2060
   62loPI   C1B  989   8.607  15.326   9.869 -0.0957 -0.2175  0.0712
   62loPI   C2B  990   8.554  15.325   9.502 -0.0615  0.3149 -0.1267
   62loPI   C3B  991   8.454  15.293   9.092 -0.0352 -0.2781  0.0502
   62loPI   C4B  992   8.424  15.542   8.674 -0.1058  0.1282 -0.0071
   63loPI    C1  993   4.466  17.570  10.858 -0.0168  0.1527  0.0969
   63loPI    C2  994   4.201  17.669  11.141  0.0629  0.0693  0.2014
   63loPI    C3  995   4.540  17.877  11.104  0.0233  0.1206  0.1250
   63loPI   PO4  996   4.219  17.556  10.652  0.0818 -0.0303 -0.1241
   63loPI   GL1  997   3.885  17.706  10.398  0.0643 -0.3840 -0.0359
   63loPI   GL2  998   3.647  17.487  10.401 -0.1898 -0.0052 -0.1457
   63loPI   C1A  999   3.932  17.821   9.981 -0.1206 -0.4101  0.1346
   63loPI   C2A 1000   3.996  17.738   9.545  0.2276 -0.0968 -0.0819
   63loPI   C3A 1001   4.068  17.738   9.069  0.3139  0.0982  0.0975
   63loPI   C4A 1002   4.123  17.783   8.562  0.0865  0.4367  0.4324
   63loPI   C5A 1003   4.226  18.073   8.128 -0.1790 -0.1779 -0.2332
   63loPI   C6A 1004   4.152  18.388   7.961 -0.3303 -0.1695  0.1035
   63loPI   C1B 1005   3.620  17.446   9.963 -0.0935 -0.3458 -0.0284
   63loPI   C2B 1006   3.604  17.430   9.560 -0.3220 -0.0412  0.1384
   63loPI   C3B 1007   3.699  17.373   9.103 -0.1173 -0.0507 -0.0416
   63loPI   C4B 1008   3.890  17.394   8.725 -0.0566 -0.1761 -0.2345
   64loPI    C1 1009   4.000  15.742  10.744  0.1340 -0.2761  0.0370
   64loPI    C2 1010   4.056  15.771  11.139 -0.0074  0.0100  0.0386
   64loPI    C3 1011   3.996  16.100  10.921 -0.1560 -0.1640 -0.1887
   64loPI   PO4 1012   4.139  15.634  10.640  0.0181  0.0364 -0.0782
   64loPI   GL1 1013   4.157  15.335  10.295 -0.1575  0.5229  0.0715
   64loPI   GL2 1014   4.013  15.594  10.135  0.1125 -0.0572 -0.2876
   64loPI   C1A 1015   4.193  15.075   9.991 -0.0179 -0.1354  0.1524
   64loPI   C2A 1016   4.358  14.935   9.545 -0.1040 -0.1367 -0.1502
   64loPI   C3A 1017   4.431  14.770   9.232  0.1446 -0.0365  0.3811
   64loPI   C4A 1018   4.379  14.756   8.810  0.2675  0.2572 -0.1166
   64loPI   C5A 1019   4.193  15.032   8.490  0.0694 -0.0900  0.3097
   64loPI   C6A 1020   3.932  15.339   8.185  0.1320  0.2462 -0.2145
   64loPI   C1B 1021   4.015  15.815   9.672  0.5242  0.1700  0.0925
   64loPI   C2B 1022   4.010  15.672   9.231 -0.1444 -0.3239  0.1834
   64loPI   C3B 1023   4.109  15.591   8.884  0.0476  0.1945 -0.2856
   64loPI   C4B 1024   4.190  15.947   8.540 -0.1414  0.2413 -0.0459
   65loPI    C1 1025  17.679   9.357  10.137 -0.1079 -0.0480 -0.0022
   65loPI    C2 1026  17.629   8.968  10.219 -0.1438 -0.0712 -0.1329
   65loPI    C3 1027  17.863   9.193  10.452  0.0747 -0.2279 -0.1991
   65loPI   PO4 1028  17.696   9.337   9.868  0.0510  0.2800 -0.0990
   65loPI   GL1 1029  17.421   9.466   9.568 -0.0701 -0.1249  0.0714
   65loPI   GL2 1030  17.249   9.675   9.458 -0.0464  0.1040  0.0635
   65loPI   C1A 1031  17.390   9.286   9.111  0.2404  0.2353  0.0140
   65loPI   C2A 1032  17.407   9.228   8.647  0.5344 -0.1964 -0.2779
   65loPI   C3A 1033  17.246   9.219   8.297 -0.1357  0.0456  0.0421
   65loPI   C4A 1034  17.035   9.290   7.893 -0.0457 -0.2382 -0.2440
   65loPI   C5A 1035  16.758   8.984   7.582 -0.0307 -0.1513 -0.1680
   65loPI   C6A 1036  16.330   8.980   7.547  0.2431  0.0459  0.0209
   65loPI   C1B 1037  17.308   9.792   8.948 -0.1500 -0.1625 -0.1489
   65loPI   C2B 1038  17.326   9.884   8.377 -0.1623 -0.2062  0.2054
   65loPI   C3B 1039  17.376   9.799   7.982  0.1668  0.0491 -0.1308
   65loPI   C4B 1040  17.522   9.532   7.655  0.2604  0.1556 -0.0095
   66loPI    C1 1041  15.348   1.811  10.777 -0.0555 -0.0047  0.2013
   66loPI    C2 1042  15.616   1.592  10.976  0.0441 -0.0905 -0.0231
   66loPI    C3 1043  15.695   1.714  10.604 -0.2215 -0.1007 -0.0854
   66loPI   PO4 1044  15.194   1.673  10.714  0.2245  0.1309  0.4460
   66loPI   GL1 1045  15.055   1.635  10.311  0.2227 -0.0385  0.1770
   66loPI   GL2 1046  14.992   1.302  10.480  0.0300 -0.2226 -0.0171
   66loPI   C1A 1047  14.903   1.581   9.907 -0.1964 -0.0582 -0.0503
   66loPI   C2A 1048  14.884   1.605   9.493  0.0041 -0.2906 -0.1256
   66loPI   C3A 1049  14.913   1.709   9.056 -0.0138 -0.3079  0.2204
   66loPI   C4A 1050  14.921   1.512   8.678 -0.1171  0.0161  0.0588
   66loPI   C5A 1051  15.181   1.229   8.350 -0.0300 -0.3122 -0.1457
   66loPI   C6A 1052  15.572   1.288   8.294  0.2894 -0.3795  0.0866
   66loPI   C1B 1053  14.986   1.085  10.217 -0.2481  0.2680  0.1268
   66loPI   C2B 1054  15.015   1.152   9.690  0.1153  0.2342 -0.1838
   66loPI   C3B 1055  15.057   1.073   9.333  0.1045  0.1260  0.3545
   66loPI   C4B 1056  15.106   1.099   8.833  0.0268  0.2985 -0.2576
   67loPI    C1 1057  12.037   4.991  10.468  0.1556 -0.0859 -0.0308
   67loPI    C2 1058  12.260   4.779  10.724  0.0084 -0.0574  0.1227
   67loPI    C3 1059  12.307   5.176  10.699 -0.0562 -0.0454  0.1882
   67loPI   PO4 1060  11.946   4.894  10.312 -0.2264 -0.0461  0.2054
   67loPI   GL1 1061  11.748   5.045   9.977  0.1076  0.0746  0.2657
   67loPI   GL2 1062  11.527   4.882   9.826 -0.0615 -0.0253  0.2124
   67loPI   C1A 1063  12.015   5.193   9.636 -0.1902 -0.0165  0.2384
   67loPI   C2A 1064  11.855   5.163   9.207  0.0611 -0.1889 -0.4479
   67loPI   C3A 1065  11.826   5.211   8.820  0.0660 -0.4022 -0.2248
   67loPI   C4A 1066  11.816   5.300   8.436 -0.0846 -0.1613 -0.0644
   67loPI   C5A 1067  11.726   5.196   8.038  0.0933 -0.2104  0.1050
   67loPI   C6A 1068  11.395   5.050   7.792  0.1317  0.3587 -0.1399
   67loPI   C1B 1069  11.460   4.937   9.415  0.0834 -0.0626 -0.1603
   67loPI   C2B 1070  11.350   4.876   9.031  0.1058  0.2161 -0.0140
   67loPI   C3B 1071  11.480   4.878   8.593 -0.1141  0.2765 -0.0459
   67loPI   C4B 1072  11.531   4.774   8.192  0.2979  0.1540 -0.3851
   68loPI    C1 1073  13.172   2.981  10.422 -0.0104  0.2303 -0.0268
   68loPI    C2 1074  13.520   2.826  10.297 -0.1012  0.0695 -0.0829
   68loPI    C3 1075  13.457   2.888  10.688 -0.1038 -0.1372 -0.0491
   68loPI   PO4 1076  13.072   3.101  10.189  0.1552 -0.1347  0.3120
   68loPI   GL1 1077  13.021   2.872   9.886 -0.1396 -0.3162 -0.0222
   68loPI   GL2 1078  13.389   2.920   9.782 -0.1965  0.1157  0.1518
   68loPI   C1A 1079  12.961   2.902   9.455 -0.2182 -0.1417 -0.1637
   68loPI   C2A 1080  13.081   2.834   8.975  0.0002 -0.0305  0.3185
   68loPI   C3A 1081  13.235   2.941   8.588 -0.0804 -0.1187 -0.2010
   68loPI   C4A 1082  13.354   3.062   8.197 -0.0299 -0.1883 -0.1876
   68loPI   C5A 1083  13.433   2.973   7.887  0.2353 -0.0017  0.2325
   68loPI   C6A 1084  13.598   3.189   7.535  0.1475  0.3013  0.0478
   68loPI   C1B 1085  13.432   2.931   9.333 -0.0002 -0.0357 -0.2795
   68loPI   C2B 1086  13.661   2.886   8.941  0.0284 -0.1380 -0.1079
   68loPI   C3B 1087  13.795   2.876   8.495 -0.0133 -0.1089 -0.3380
   68loPI   C4B 1088  13.858   3.041   8.091  0.0781  0.0131 -0.3456
   69loPI    C1 1089   2.083   2.272  10.370  0.0987  0.2028  0.1446
   69loPI    C2 1090   2.460   2.290  10.240  0.0593 -0.0838 -0.0176
   69loPI    C3 1091   2.273   1.937  10.261 -0.1941  0.0544  0.0792
   69loPI   PO4 1092   1.951   2.461  10.251 -0.1093  0.0254  0.2300
   69loPI   GL1 1093   1.860   2.407   9.882 -0.0500  0.0121  0.2125
   69loPI   GL2 1094   2.099   2.175   9.838 -0.0200 -0.0476 -0.0696
   69loPI   C1A 1095   1.674   2.482   9.469  0.1133 -0.0536  0.1200
   69loPI   C2A 1096   1.619   2.398   9.041 -0.1113 -0.0819 -0.0999
   69loPI   C3A 1097   1.443   2.697   8.759  0.0681 -0.1852  0.0218
   69loPI   C4A 1098   1.024   2.688   8.555 -0.0637  0.0125  0.0613
   69loPI   C5A 1099   0.700   2.900   8.435 -0.0948  0.0704 -0.0286
   69loPI   C6A 1100   0.416   2.990   8.266 -0.0002  0.0738 -0.0125
   69loPI   C1B 1101   2.187   2.215   9.461 -0.0144  0.1142  0.0545
   69loPI   C2B 1102   2.076   2.133   9.080  0.4244 -0.0922 -0.1657
   69loPI   C3B 1103   2.186   2.253   8.633  0.0930  0.0785  0.0785
   69loPI   C4B 1104   2.011   2.241   8.217  0.1591  0.2563  0.1709
   70loPI    C1 1105   7.066   3.740  11.127 -0.0892 -0.1967 -0.3413
   70loPI    C2 1106   6.930   3.663  11.495  0.0034 -0.2765 -0.3231
   70loPI    C3 1107   6.865   4.021  11.328 -0.0717 -0.2530 -0.2445
   70loPI   PO4 1108   6.971   3.514  10.946 -0.0388 -0.2261  0.1895
   70loPI   GL1 1109   7.078   3.381  10.503  0.1562 -0.0610 -0.1854
   70loPI   GL2 1110   7.052   3.722  10.546 -0.0870 -0.0477 -0.0215
   70loPI   C1A 1111   7.177   3.117  10.041 -0.0335 -0.0342 -0.1612
   70loPI   C2A 1112   7.100   2.970   9.712  0.1423  0.2718  0.3022
   70loPI   C3A 1113   7.097   2.984   9.205 -0.3399 -0.1059  0.0442
   70loPI   C4A 1114   7.167   2.958   8.741 -0.1518  0.1287  0.0387
   70loPI   C5A 1115   7.202   2.924   8.361  0.0573 -0.0773 -0.0028
   70loPI   C6A 1116   6.886   2.708   8.199  0.0720  0.0961  0.0908
   70loPI   C1B 1117   6.956   3.739  10.146 -0.1194 -0.3281  0.3646
   70loPI   C2B 1118   7.028   3.600   9.777  0.2140 -0.3489  0.0996
   70loPI   C3B 1119   7.034   3.633   9.379 -0.0816  0.0006 -0.3104
   70loPI   C4B 1120   7.039   3.487   8.979  0.0191  0.0315  0.3522
   71loPI    C1 1121  14.214   4.510  10.375 -0.1196  0.1333 -0.2017
   71loPI    C2 1122  13.926   4.259  10.493 -0.0483  0.0859 -0.1268
   71loPI    C3 1123  14.038   4.561  10.731 -0.0154  0.0864 -0.1430
   71loPI   PO4 1124  14.223   4.592  10.079 -0.0061  0.1949  0.0081
   71loPI   GL1 1125  14.044   4.293   9.827 -0.0117  0.1749  0.3506
   71loPI   GL2 1126  13.768   4.135   9.986  0.1151  0.0749 -0.2479
   71loPI   C1A 1127  14.024   4.458   9.379 -0.1426  0.2643 -0.0098
   71loPI   C2A 1128  14.123   4.276   9.020  0.2549 -0.2654 -0.1315
   71loPI   C3A 1129  14.214   4.263   8.653  0.2035 -0.2177 -0.0287
   71loPI   C4A 1130  14.207   4.028   8.246  0.3007 -0.0808  0.0428
   71loPI   C5A 1131  14.571   3.921   8.017 -0.1608 -0.0710  0.2588
   71loPI   C6A 1132  14.995   4.117   7.968 -0.0247  0.0403 -0.0599
   71loPI   C1B 1133  13.824   3.966   9.481  0.2140  0.1715 -0.1857
   71loPI   C2B 1134  13.859   3.896   9.079  0.1197 -0.1417 -0.3094
   71loPI   C3B 1135  13.976   3.804   8.677  0.3129  0.0337  0.3194
   71loPI   C4B 1136  13.919   3.610   8.197  0.2620 -0.0483 -0.2446
   72loPI    C1 1137  13.261   6.724  10.483 -0.1678 -0.2610 -0.4676
   72loPI    C2 1138  13.623   6.557  10.520 -0.0428  0.0742 -0.1205
   72loPI    C3 1139  13.303   6.375  10.675  0.0438 -0.0030 -0.0309
   72loPI   PO4 1140  13.172   6.739  10.232 -0.1081  0.1126 -0.0583
   72loPI   GL1 1141  12.949   6.987   9.949  0.2048 -0.3411  0.1131
   72loPI   GL2 1142  13.066   7.002   9.753 -0.0152 -0.3993 -0.0094
   72loPI   C1A 1143  12.756   6.662   9.612  0.0620  0.2655  0.0789
   72loPI   C2A 1144  12.654   6.667   9.152  0.4752  0.4049 -0.2074
   72loPI   C3A 1145  12.545   6.772   8.685 -0.0425 -0.0528 -0.0150
   72loPI   C4A 1146  12.390   6.884   8.299 -0.0771  0.0445 -0.2174
   72loPI   C5A 1147  12.204   6.881   7.884  0.1027 -0.2233 -0.0134
   72loPI   C6A 1148  12.092   6.816   7.512 -0.2883 -0.0144  0.3259
   72loPI   C1B 1149  13.000   6.989   9.267 -0.1036  0.1460 -0.0747
   72loPI   C2B 1150  12.950   6.967   8.860 -0.1062 -0.1333 -0.1832
   72loPI   C3B 1151  12.987   6.895   8.404  0.0405 -0.4729  0.1410
   72loPI   C4B 1152  12.741   6.733   7.997 -0.2615 -0.1325 -0.1955
   73loPI    C1 1153  10.500   8.775  10.701 -0.0413 -0.0015  0.0164
   73loPI    C2 1154  10.735   8.769  11.025 -0.0080  0.0059 -0.0075
   73loPI    C3 1155  10.416   9.010  11.013 -0.1452 -0.1671  0.1147
   73loPI   PO4 1156  10.598   8.736  10.513 -0.1461 -0.1392 -0.2587
   73loPI   GL1 1157  10.709   8.885  10.070  0.0516 -0.3324 -0.0267
   73loPI   GL2 1158  10.709   9.136   9.963  0.0429 -0.3194 -0.0439
   73loPI   C1A 1159  10.770   8.680   9.736  0.0337  0.2243  0.1668
   73loPI   C2A 1160  10.906   8.574   9.228 -0.1165 -0.1855 -0.1297
   73loPI   C3A 1161  10.862   8.548   8.823  0.1441  0.2072 -0.0079
   73loPI   C4A 1162  11.090   8.385   8.456  0.0590  0.0378  0.1060
   73loPI   C5A 1163  11.400   8.243   8.160 -0.1927 -0.1062 -0.1938
   73loPI   C6A 1164  11.868   8.263   8.227 -0.2578  0.1014 -0.1173
   73loPI   C1B 1165  10.857   9.170   9.543  0.1145 -0.0746 -0.0694
   73loPI   C2B 1166  10.991   9.201   9.039  0.0408  0.2498 -0.0284
   73loPI   C3B 1167  10.854   9.072   8.655  0.1485 -0.2162 -0.0836
   73loPI   C4B 1168  10.787   8.736   8.317 -0.2842  0.0290 -0.0706
   74loPI    C1 1169  12.876  12.527  11.099  0.0756 -0.0907  0.0944
   74loPI    C2 1170  13.035  12.167  11.174  0.0630 -0.0497  0.3252
   74loPI    C3 1171  13.240  12.499  11.262  0.1502  0.0016 -0.0540
   74loPI   PO4 1172  12.759  12.425  10.899  0.1719 -0.1530  0.1625
   74loPI   GL1 1173  12.839  12.541  10.497  0.1516  0.0050 -0.1606
   74loPI   GL2 1174  12.847  12.301  10.385 -0.0968 -0.0552 -0.0505
   74loPI   C1A 1175  12.839  12.638  10.035 -0.2253 -0.1399  0.2316
   74loPI   C2A 1176  12.761  12.910   9.751  0.1528 -0.0550  0.2473
   74loPI   C3A 1177  12.825  13.073   9.400  0.1772 -0.2113 -0.3308
   74loPI   C4A 1178  12.731  13.307   9.028 -0.0682  0.1555 -0.1804
   74loPI   C5A 1179  12.589  13.526   8.624  0.0888 -0.0656  0.0555
   74loPI   C6A 1180  12.519  13.508   8.188 -0.0896 -0.1450  0.1196
   74loPI   C1B 1181  12.896  12.053  10.051 -0.1324  0.2473  0.0393
   74loPI   C2B 1182  12.844  12.219   9.727 -0.0553 -0.2817  0.0837
   74loPI   C3B 1183  12.731  12.193   9.320 -0.1837  0.0507 -0.0890
   74loPI   C4B 1184  12.562  12.293   8.919  0.1331  0.1892 -0.1048
   75loPI    C1 1185  16.925   7.083  10.139 -0.0737 -0.0436 -0.0690
   75loPI    C2 1186  16.992   6.736  10.325 -0.0963  0.0134  0.0466
   75loPI    C3 1187  17.242   7.043  10.380 -0.0781  0.0169 -0.0528
   75loPI   PO4 1188  16.925   7.011   9.789 -0.0864 -0.0319  0.2830
   75loPI   GL1 1189  17.200   6.807   9.536 -0.3643  0.2302 -0.1283
   75loPI   GL2 1190  17.003   6.655   9.275  0.1556 -0.1993 -0.1617
   75loPI   C1A 1191  17.160   7.110   9.176  0.0312  0.1608 -0.2841
   75loPI   C2A 1192  17.348   7.146   8.850  0.0264 -0.1324 -0.0759
   75loPI   C3A 1193  17.408   7.081   8.375  0.3231 -0.0996  0.1260
   75loPI   C4A 1194  17.247   7.418   8.091  0.1909  0.2771  0.1850
   75loPI   C5A 1195  17.051   7.341   7.688  0.1801  0.1315  0.3277
   75loPI   C6A 1196  17.073   6.935   7.389  0.0669  0.0163 -0.0854
   75loPI   C1B 1197  17.320   6.394   9.062  0.1942  0.0117  0.0248
   75loPI   C2B 1198  17.285   6.341   8.593 -0.2260  0.2483 -0.1070
   75loPI   C3B 1199  17.357   6.252   8.264  0.1091  0.0209 -0.2534
   75loPI   C4B 1200  17.431   6.260   7.794 -0.0691  0.0313 -0.0547
   76loPI    C1 1201  10.980   2.728  11.310  0.0019 -0.1516 -0.3898
   76loPI    C2 1202  10.618   2.657  11.155 -0.0765 -0.1157 -0.2251
   76loPI    C3 1203  10.653   2.794  11.529  0.1114 -0.2103 -0.2066
   76loPI   PO4 1204  11.105   2.849  11.033  0.0550 -0.1022 -0.2154
   76loPI   GL1 1205  11.007   2.668  10.645  0.0470 -0.3773 -0.0543
   76loPI   GL2 1206  10.699   2.591  10.630 -0.2669  0.3315  0.0019
   76loPI   C1A 1207  11.179   2.651  10.210  0.0582 -0.2624 -0.1315
   76loPI   C2A 1208  11.054   2.591   9.838  0.1745  0.0262  0.3795
   76loPI   C3A 1209  10.992   2.482   9.398  0.1666 -0.2062  0.1998
   76loPI   C4A 1210  10.910   2.480   8.932  0.1954 -0.1037 -0.4886
   76loPI   C5A 1211  10.771   2.454   8.634 -0.0966 -0.1661 -0.2652
   76loPI   C6A 1212  10.389   2.447   8.389  0.0918  0.1853  0.3072
   76loPI   C1B 1213  10.590   2.496  10.157  0.0421  0.2757  0.1443
   76loPI   C2B 1214  10.569   2.459   9.792 -0.2010 -0.1873  0.2545
   76loPI   C3B 1215  10.480   2.319   9.360  0.1484 -0.1890 -0.1877
   76loPI   C4B 1216  10.360   2.272   8.984  0.0285  0.0610 -0.3611
   77loPI    C1 1217   3.877   1.615  10.947  0.0303  0.0118  0.0546
   77loPI    C2 1218   3.808   1.347  11.236 -0.4718  0.0193 -0.0485
   77loPI    C3 1219   3.730   1.734  11.300 -0.2820  0.0654 -0.0900
   77loPI   PO4 1220   3.771   1.511  10.735  0.1286  0.0183 -0.0209
   77loPI   GL1 1221   3.415   1.444  10.481 -0.3533 -0.1608  0.0417
   77loPI   GL2 1222   3.700   1.239  10.311 -0.0326 -0.1532 -0.2009
   77loPI   C1A 1223   3.138   1.364  10.007  0.0532  0.0572  0.5593
   77loPI   C2A 1224   3.217   1.375   9.577 -0.0817 -0.0859 -0.1416
   77loPI   C3A 1225   3.145   1.407   9.232 -0.2454 -0.0939  0.1267
   77loPI   C4A 1226   3.215   1.393   8.923 -0.0558  0.0499 -0.1560
   77loPI   C5A 1227   3.312   1.401   8.473  0.2802 -0.5869 -0.0903
   77loPI   C6A 1228   3.392   1.723   8.133 -0.0254 -0.0060 -0.0828
   77loPI   C1B 1229   3.720   1.315   9.827 -0.1815 -0.5336  0.1170
   77loPI   C2B 1230   3.758   1.229   9.421  0.0769 -0.0737 -0.0779
   77loPI   C3B 1231   3.665   1.221   8.980  0.0351 -0.1275 -0.0906
   77loPI   C4B 1232   3.840   1.252   8.541  0.1269  0.0181 -0.3244
   78loPI    C1 1233   2.383   1.566  10.672 -0.1294 -0.0686 -0.0944
   78loPI    C2 1234   2.096   1.558  10.950 -0.0965  0.2356 -0.0485
   78loPI    C3 1235   2.179   1.899  10.758  0.3707  0.2026  0.0821
   78loPI   PO4 1236   2.329   1.419  10.462  0.0513 -0.2987  0.0851
   78loPI   GL1 1237   2.118   1.470  10.045  0.1866  0.0088  0.1084
   78loPI   GL2 1238   2.214   1.231  10.019  0.1738  0.1991  0.2605
   78loPI   C1A 1239   2.152   1.727   9.740  0.0500 -0.1744  0.1727
   78loPI   C2A 1240   2.120   1.660   9.297  0.1712 -0.0113 -0.0743
   78loPI   C3A 1241   2.268   1.682   8.906  0.1032  0.1881  0.0303
   78loPI   C4A 1242   2.221   1.640   8.441  0.0928 -0.1372 -0.4744
   78loPI   C5A 1243   2.240   1.495   8.071 -0.1193 -0.0127 -0.2171
   78loPI   C6A 1244   2.223   1.566   7.670  0.1872 -0.0262  0.0451
   78loPI   C1B 1245   2.203   1.248   9.549  0.0042  0.1215  0.0639
   78loPI   C2B 1246   2.381   1.262   9.128  0.2360 -0.5092 -0.1797
   78loPI   C3B 1247   2.423   1.112   8.630  0.1573 -0.0710  0.3105
   78loPI   C4B 1248   2.537   1.101   8.198 -0.2377 -0.2935 -0.0408
   79loPI    C1 1249   8.917  13.846  10.781  0.1312 -0.0252 -0.1073
   79loPI    C2 1250   8.620  13.769  11.037  0.0374 -0.0142 -0.2123
   79loPI    C3 1251   8.997  13.788  11.168  0.0034 -0.1293 -0.0957
   79loPI   PO4 1252   8.750  14.032  10.659  0.2913  0.0760 -0.2962
   79loPI   GL1 1253   8.721  13.993  10.274 -0.0493  0.0307  0.3120
   79loPI   GL2 1254   8.838  14.228   9.941 -0.4470  0.0904  0.1924
   79loPI   C1A 1255   8.356  14.228   9.994 -0.1023  0.1749 -0.0431
   79loPI   C2A 1256   8.301  14.332   9.551  0.1823  0.1448  0.2261
   79loPI   C3A 1257   8.183  14.476   9.165 -0.0950  0.0378  0.2642
   79loPI   C4A 1258   8.014  14.627   8.813 -0.0898  0.1347  0.0143
   79loPI   C5A 1259   7.998  14.706   8.371  0.0331  0.2484  0.0070
   79loPI   C6A 1260   7.913  15.114   8.166 -0.1703  0.2553 -0.1651
   79loPI   C1B 1261   8.805  14.334   9.506  0.0783 -0.1535  0.0344
   79loPI   C2B 1262   8.784  14.388   9.036 -0.2903  0.2931  0.0794
   79loPI   C3B 1263   8.826  14.250   8.580 -0.0359  0.6315  0.0171
   79loPI   C4B 1264   9.069  14.285   8.219 -0.0209  0.0194  0.1726
   80loPI    C1 1265  10.335   3.361  10.686  0.0336 -0.0828 -0.3116
   80loPI    C2 1266  10.056   3.570  10.490 -0.1015 -0.0322 -0.0690
   80loPI    C3 1267   9.965   3.389  10.835  0.1548 -0.0511 -0.0093
   80loPI   PO4 1268  10.516   3.520  10.677 -0.0572 -0.0551  0.1523
   80loPI   GL1 1269  10.660   3.459  10.189  0.1361 -0.0198  0.0391
   80loPI   GL2 1270  10.397   3.269  10.161 -0.1142  0.0301 -0.0302
   80loPI   C1A 1271  10.707   3.705   9.754  0.1148 -0.2872  0.1062
   80loPI   C2A 1272  10.716   3.679   9.336 -0.0020 -0.0618  0.0033
   80loPI   C3A 1273  10.649   3.660   8.891 -0.2635  0.0899  0.2394
   80loPI   C4A 1274  10.307   3.876   8.507  0.2207  0.0720  0.0759
   80loPI   C5A 1275  10.287   3.862   8.033 -0.1424  0.0122 -0.0121
   80loPI   C6A 1276  10.259   4.159   7.742  0.4028  0.0381  0.3893
   80loPI   C1B 1277  10.371   3.323   9.749 -0.1375 -0.0724 -0.0906
   80loPI   C2B 1278  10.231   3.374   9.240  0.0498  0.0554 -0.0230
   80loPI   C3B 1279  10.241   3.362   8.773 -0.0190  0.0833 -0.0354
   80loPI   C4B 1280  10.204   3.416   8.330 -0.1750  0.0507  0.3702
   81loPI    C1 1281   7.616   3.979  11.127 -0.0335 -0.2004  0.1403
   81loPI    C2 1282   7.373   4.037  11.439  0.0349  0.1616  0.1313
   81loPI    C3 1283   7.769   4.042  11.491  0.0457  0.1323  0.0527
   81loPI   PO4 1284   7.460   4.014  10.925  0.1240 -0.2238  0.0394
   81loPI   GL1 1285   7.727   4.009  10.570  0.0589  0.1904 -0.0536
   81loPI   GL2 1286   7.878   3.801  10.710 -0.2114  0.2340 -0.4516
   81loPI   C1A 1287   7.428   4.052  10.246  0.2572  0.2554 -0.0723
   81loPI   C2A 1288   7.330   4.061   9.841 -0.1863 -0.0642  0.1209
   81loPI   C3A 1289   7.434   4.034   9.454  0.1203  0.1870  0.0031
   81loPI   C4A 1290   7.464   3.789   9.073 -0.0769 -0.0421  0.0494
   81loPI   C5A 1291   7.387   3.760   8.699 -0.0374  0.0995 -0.0490
   81loPI   C6A 1292   7.170   3.428   8.510 -0.2503  0.0359  0.0854
   81loPI   C1B 1293   7.852   3.850  10.130 -0.3170  0.2939  0.1361
   81loPI   C2B 1294   7.920   3.801   9.641  0.0907  0.0100 -0.1373
   81loPI   C3B 1295   7.944   3.806   9.288  0.0914 -0.0878  0.2654
   81loPI   C4B 1296   7.896   3.710   8.890 -0.0210  0.0255 -0.0472
   82loPI    C1 1297  14.918  16.770  11.304  0.1519 -0.1933 -0.1844
   82loPI    C2 1298  14.925  16.418  11.493 -0.2636 -0.1127 -0.0081
   82loPI    C3 1299  15.082  16.742  11.668 -0.1338 -0.1526 -0.0495
   82loPI   PO4 1300  14.962  16.787  11.077 -0.0180  0.1850  0.2504
   82loPI   GL1 1301  14.888  17.043  10.746 -0.3206  0.2371  0.0663
   82loPI   GL2 1302  15.008  17.191  10.564 -0.4011  0.0253  0.1356
   82loPI   C1A 1303  14.590  17.177  10.330 -0.1643 -0.0649  0.1088
   82loPI   C2A 1304  14.594  17.294   9.954 -0.0444 -0.1741  0.2223
   82loPI   C3A 1305  14.610  17.261   9.450  0.0588 -0.0138  0.0822
   82loPI   C4A 1306  14.713  17.324   9.101  0.0801  0.2289 -0.0024
   82loPI   C5A 1307  14.995  17.484   8.711 -0.2090 -0.4640 -0.0082
   82loPI   C6A 1308  15.106  17.971   8.715  0.2781  0.1920  0.3275
   82loPI   C1B 1309  15.056  17.204  10.148  0.2310  0.2625  0.0373
   82loPI   C2B 1310  15.046  17.186   9.753 -0.3067  0.0732  0.1504
   82loPI   C3B 1311  15.135  17.147   9.348  0.1524 -0.0156  0.2280
   82loPI   C4B 1312  15.227  17.058   8.881  0.2135  0.1679  0.1276
   83loPI    C1 1313  16.677  15.666  11.259 -0.0876  0.2126  0.1391
   83loPI    C2 1314  16.555  15.776  11.623 -0.2660 -0.0693  0.1681
   83loPI    C3 1315  16.470  15.410  11.487  0.0307 -0.0593 -0.0530
   83loPI   PO4 1316  16.562  15.886  11.060  0.0454 -0.3789 -0.2981
   83loPI   GL1 1317  16.157  15.962  10.843 -0.0254 -0.0420  0.0577
   83loPI   GL2 1318  16.332  15.786  10.629 -0.0861  0.0697  0.1597
   83loPI   C1A 1319  15.959  16.053  10.493  0.2687  0.1748 -0.0985
   83loPI   C2A 1320  15.850  16.114  10.009  0.0373  0.1436 -0.1018
   83loPI   C3A 1321  15.808  16.003   9.735 -0.2015  0.2366  0.2162
   83loPI   C4A 1322  15.822  16.095   9.244 -0.1538  0.0251  0.3683
   83loPI   C5A 1323  15.932  16.245   8.850  0.0540  0.0630 -0.0633
   83loPI   C6A 1324  15.697  16.334   8.540  0.0661 -0.4437 -0.0058
   83loPI   C1B 1325  16.348  15.886  10.207  0.0563  0.0054  0.1611
   83loPI   C2B 1326  16.365  15.938   9.839 -0.1741 -0.0276 -0.3538
   83loPI   C3B 1327  16.259  15.986   9.388  0.2227  0.0844 -0.1519
   83loPI   C4B 1328  16.422  15.972   8.945 -0.1868 -0.2357 -0.0673
   84loPI    C1 1329  17.782   3.305  10.430  0.3065  0.1449  0.0562
   84loPI    C2 1330  17.574   3.442  10.743  0.1795  0.0552  0.0121
   84loPI    C3 1331  17.721   3.070  10.749  0.2544  0.0846  0.0022
   84loPI   PO4 1332  17.598   3.323  10.207  0.0916 -0.0446 -0.0168
   84loPI   GL1 1333  17.420   3.072   9.922  0.3056  0.1666  0.2581
   84loPI   GL2 1334  17.179   2.888   9.772  0.0323 -0.0734  0.1471
   84loPI   C1A 1335  17.475   3.363   9.602 -0.1137 -0.2016  0.1442
   84loPI   C2A 1336  17.493   3.357   9.159 -0.0447 -0.2209 -0.0327
   84loPI   C3A 1337  17.397   3.374   8.676 -0.1202  0.0751 -0.1699
   84loPI   C4A 1338  17.475   3.373   8.248  0.0507 -0.1592 -0.1103
   84loPI   C5A 1339  17.420   3.579   7.846  0.1369  0.0293 -0.0488
   84loPI   C6A 1340  17.121   3.783   7.628 -0.0087  0.2951  0.2376
   84loPI   C1B 1341  17.250   2.987   9.396  0.0081 -0.1192  0.2961
   84loPI   C2B 1342  17.224   2.858   8.969  0.1781  0.2167 -0.1018
   84loPI   C3B 1343  16.979   2.818   8.643  0.1744  0.1399 -0.2569
   84loPI   C4B 1344  16.603   2.867   8.535 -0.1404  0.1694 -0.1011
   85loPI    C1 1345   0.132  15.511  11.127 -0.0574  0.1705  0.1379
   85loPI    C2 1346   0.408  15.652  11.381  0.0710  0.0858  0.0470
   85loPI    C3 1347   0.104  15.430  11.517  0.0679  0.1485  0.1429
   85loPI   PO4 1348   0.132  15.668  10.972  0.0419 -0.0883 -0.1463
   85loPI   GL1 1349   0.027  16.021  10.809 -0.1183  0.0795  0.0314
   85loPI   GL2 1350  -0.154  16.296  10.815  0.2823  0.1496  0.1306
   85loPI   C1A 1351   0.274  16.015  10.438  0.0612  0.0295 -0.2900
   85loPI   C2A 1352   0.233  16.035  10.017  0.2185 -0.1020  0.1603
   85loPI   C3A 1353   0.322  15.957   9.601  0.0060  0.0320 -0.0246
   85loPI   C4A 1354   0.175  15.980   9.101 -0.1700 -0.1416 -0.0028
   85loPI   C5A 1355  -0.087  16.227   8.858 -0.1553 -0.0355  0.2540
   85loPI   C6A 1356  -0.097  16.651   8.719  0.0506  0.0141 -0.2133
   85loPI   C1B 1357  -0.232  16.041  10.412  0.1207  0.4509  0.3637
   85loPI   C2B 1358  -0.229  16.050  10.083  0.0584 -0.0024 -0.0740
   85loPI   C3B 1359  -0.170  16.100   9.613 -0.3639  0.1347 -0.1622
   85loPI   C4B 1360  -0.323  15.921   9.303 -0.1186  0.1731  0.3642
   86loPI    C1 1361  11.590  13.056  11.141  0.1175 -0.0647 -0.0453
   86loPI    C2 1362  11.591  12.665  11.225 -0.2222 -0.0131  0.2219
   86loPI    C3 1363  11.393  12.920  11.461 -0.1415  0.3015 -0.0424
   86loPI   PO4 1364  11.656  13.065  10.840 -0.1188 -0.3822 -0.2486
   86loPI   GL1 1365  11.864  12.976  10.310  0.0768 -0.1679  0.0867
   86loPI   GL2 1366  11.912  12.659  10.181  0.0103  0.1130 -0.0134
   86loPI   C1A 1367  11.762  13.126   9.936  0.0867  0.0109  0.0330
   86loPI   C2A 1368  11.862  13.219   9.563 -0.2150 -0.3222 -0.0383
   86loPI   C3A 1369  11.709  13.460   9.232 -0.1734 -0.0224  0.2237
   86loPI   C4A 1370  11.694  13.604   8.795 -0.1066  0.0365 -0.0506
   86loPI   C5A 1371  11.747  13.587   8.384  0.0259 -0.0331  0.1863
   86loPI   C6A 1372  12.014  13.543   8.037 -0.2979  0.4057  0.0458
   86loPI   C1B 1373  11.909  12.608   9.768  0.0471 -0.1309 -0.2842
   86loPI   C2B 1374  11.910  12.799   9.357  0.0161 -0.0764 -0.1745
   86loPI   C3B 1375  11.915  12.986   8.950  0.0876  0.2389 -0.2003
   86loPI   C4B 1376  11.717  13.087   8.593  0.1867 -0.0066  0.1744
   87loPI    C1 1377  16.793  16.689  11.362  0.2078 -0.0614 -0.0763
   87loPI    C2 1378  17.089  16.883  11.549 -0.0673  0.1606  0.1380
   87loPI    C3 1379  16.727  17.050  11.520 -0.1260 -0.0273 -0.2857
   87loPI   PO4 1380  16.823  16.534  11.089 -0.1214  0.0787 -0.0371
   87loPI   GL1 1381  17.046  16.537  10.755  0.1691  0.0574 -0.1561
   87loPI   GL2 1382  17.125  16.827  10.618  0.0198 -0.1446 -0.1565
   87loPI   C1A 1383  16.692  16.682  10.438  0.0481 -0.3336 -0.2041
   87loPI   C2A 1384  16.561  16.836  10.087 -0.0576  0.1909  0.1982
   87loPI   C3A 1385  16.485  16.732   9.635  0.0308 -0.1846  0.1435
   87loPI   C4A 1386  16.566  16.778   9.168  0.0492  0.0488  0.2319
   87loPI   C5A 1387  16.463  16.586   8.761 -0.0269 -0.0813  0.1804
   87loPI   C6A 1388  16.107  16.740   8.610 -0.0879 -0.0366 -0.2960
   87loPI   C1B 1389  17.154  16.618  10.181  0.3292 -0.0295 -0.6476
   87loPI   C2B 1390  17.005  16.599   9.790  0.0059 -0.2336  0.0084
   87loPI   C3B 1391  17.117  16.591   9.412 -0.1380  0.0211 -0.2326
   87loPI   C4B 1392  17.098  16.625   8.966 -0.0544  0.2958 -0.1816
   88loPI    C1 1393   1.434   3.820  10.200 -0.1876  0.0709 -0.0764
   88loPI    C2 1394   1.107   3.956  10.014 -0.3829  0.0665  0.2557
   88loPI    C3 1395   1.071   3.708  10.326 -0.0457 -0.3259 -0.0074
   88loPI   PO4 1396   1.615   3.816  10.042 -0.0163  0.1836  0.2494
   88loPI   GL1 1397   1.447   3.774   9.660  0.0694  0.0520 -0.1543
   88loPI   GL2 1398   1.380   4.126   9.618 -0.0553  0.2750  0.2741
   88loPI   C1A 1399   1.239   3.355   9.542 -0.4043 -0.0148  0.3128
   88loPI   C2A 1400   1.011   3.153   9.453 -0.0302 -0.3658 -0.1983
   88loPI   C3A 1401   1.013   2.998   8.955  0.1343  0.2290 -0.1492
   88loPI   C4A 1402   1.207   3.189   8.558  0.0573  0.3037  0.2283
   88loPI   C5A 1403   1.248   3.384   8.140 -0.1541 -0.0222  0.1357
   88loPI   C6A 1404   1.302   3.242   7.763 -0.2034 -0.0854  0.0588
   88loPI   C1B 1405   1.397   4.003   9.180 -0.4096  0.1494  0.0868
   88loPI   C2B 1406   1.520   4.049   8.763  0.0119 -0.0321 -0.1046
   88loPI   C3B 1407   1.706   4.029   8.386  0.2684 -0.0953 -0.3623
   88loPI   C4B 1408   2.041   4.025   8.083  0.2045  0.0939 -0.2060
   89loPI    C1 1409   7.620   1.467  11.442  0.0440  0.0588 -0.1247
   89loPI    C2 1410   7.222   1.502  11.420  0.0540  0.2959  0.0349
   89loPI    C3 1411   7.437   1.782  11.607  0.2760  0.0553  0.1454
   89loPI   PO4 1412   7.689   1.486  11.140 -0.1033  0.2051  0.0181
   89loPI   GL1 1413   7.683   1.590  10.678  0.0941  0.1902  0.1890
   89loPI   GL2 1414   7.981   1.526  10.562 -0.0140  0.1407 -0.3278
   89loPI   C1A 1415   7.659   1.592  10.200  0.2300  0.0314 -0.0779
   89loPI   C2A 1416   7.507   1.498   9.859  0.2593 -0.3922  0.0710
   89loPI   C3A 1417   7.427   1.565   9.387 -0.0561  0.2313  0.0960
   89loPI   C4A 1418   7.455   1.607   9.031  0.1389 -0.3390  0.0091
   89loPI   C5A 1419   7.679   1.638   8.634 -0.1280 -0.0206  0.0363
   89loPI   C6A 1420   8.097   1.491   8.572 -0.2171  0.0058  0.0703
   89loPI   C1B 1421   8.098   1.371  10.214  0.1109  0.1287  0.2269
   89loPI   C2B 1422   8.003   1.293   9.777  0.0914 -0.1444 -0.3582
   89loPI   C3B 1423   7.885   1.339   9.366 -0.2097 -0.2384  0.1982
   89loPI   C4B 1424   7.895   1.279   8.975 -0.3009 -0.3671  0.1668
   90loPI    C1 1425   0.951  13.501  11.098 -0.1434 -0.1611 -0.0177
   90loPI    C2 1426   1.256  13.245  11.127  0.0907  0.0868 -0.2325
   90loPI    C3 1427   1.154  13.470  11.441  0.0943 -0.0335 -0.1442
   90loPI   PO4 1428   1.037  13.655  10.833 -0.1913  0.0783  0.2063
   90loPI   GL1 1429   0.995  13.553  10.430 -0.0530  0.0531  0.1380
   90loPI   GL2 1430   0.739  13.647  10.247 -0.1801  0.0154  0.0487
   90loPI   C1A 1431   1.219  13.707  10.019  0.0392 -0.3287  0.0861
   90loPI   C2A 1432   1.277  13.828   9.623  0.2731 -0.0309  0.1480
   90loPI   C3A 1433   1.261  13.825   9.103  0.2569 -0.1240 -0.2010
   90loPI   C4A 1434   1.341  13.842   8.714  0.3549  0.0449  0.0110
   90loPI   C5A 1435   1.755  14.040   8.539 -0.2301  0.2064  0.0989
   90loPI   C6A 1436   2.032  13.874   8.393  0.1400 -0.2043 -0.0721
   90loPI   C1B 1437   0.766  13.787   9.828 -0.0935 -0.0935  0.0054
   90loPI   C2B 1438   0.828  13.905   9.420  0.2384  0.1397  0.0584
   90loPI   C3B 1439   0.685  13.866   8.977  0.1847  0.0106 -0.2033
   90loPI   C4B 1440   0.795  14.077   8.582 -0.1436  0.1510  0.3088
   91loPI    C1 1441   9.029   3.600  10.734  0.0446  0.1191  0.1242
   91loPI    C2 1442   8.790   3.300  10.622 -0.1353  0.3988 -0.2639
   91loPI    C3 1443   8.785   3.429  11.001 -0.4443  0.2620 -0.2180
   91loPI   PO4 1444   9.225   3.543  10.631  0.0190  0.0732 -0.4011
   91loPI   GL1 1445   9.170   3.288  10.267  0.1123  0.0582  0.1312
   91loPI   GL2 1446   8.900   3.043  10.162 -0.2475 -0.1030  0.1626
   91loPI   C1A 1447   9.345   3.359   9.838 -0.1573  0.1203 -0.2013
   91loPI   C2A 1448   9.412   3.304   9.401  0.0594 -0.1046  0.0498
   91loPI   C3A 1449   9.290   3.162   8.922 -0.0649  0.2699  0.2678
   91loPI   C4A 1450   9.346   3.074   8.513  0.0125 -0.4112 -0.2185
   91loPI   C5A 1451   9.153   3.082   8.207 -0.0050 -0.1717  0.0540
   91loPI   C6A 1452   9.057   2.743   7.972  0.0946 -0.0983  0.0630
   91loPI   C1B 1453   8.991   3.013   9.706  0.0027  0.0138  0.0754
   91loPI   C2B 1454   8.998   2.973   9.265 -0.1233 -0.0057  0.0012
   91loPI   C3B 1455   8.979   2.761   8.860  0.2855 -0.0896  0.0991
   91loPI   C4B 1456   8.895   2.735   8.465 -0.2782 -0.0181  0.3112
   92loPI    C1 1457  12.244  16.708  11.039 -0.2616  0.1825  0.1101
   92loPI    C2 1458  12.137  16.483  11.352 -0.2799  0.1163  0.0567
   92loPI    C3 1459  12.257  16.860  11.409 -0.2314  0.0876  0.1484
   92loPI   PO4 1460  12.118  16.733  10.816  0.2321 -0.0991  0.0697
   92loPI   GL1 1461  12.089  17.070  10.422 -0.1601  0.3075 -0.0717
   92loPI   GL2 1462  11.722  16.941  10.460 -0.3123 -0.2144  0.1555
   92loPI   C1A 1463  12.273  17.069  10.081 -0.1391  0.2084  0.2887
   92loPI   C2A 1464  12.301  17.085   9.634 -0.2435  0.0561 -0.1909
   92loPI   C3A 1465  12.302  17.149   9.112  0.5288  0.3314 -0.0364
   92loPI   C4A 1466  12.366  17.242   8.642  0.3972  0.0748 -0.2162
   92loPI   C5A 1467  12.480  17.651   8.592  0.0327  0.0896  0.1583
   92loPI   C6A 1468  12.857  17.971   8.625  0.1758  0.2057 -0.0717
   92loPI   C1B 1469  11.827  16.987  10.006 -0.0168  0.0171  0.0107
   92loPI   C2B 1470  11.822  16.866   9.662  0.1335  0.1122  0.0862
   92loPI   C3B 1471  11.923  16.793   9.265  0.1643  0.0293  0.3695
   92loPI   C4B 1472  11.923  16.916   8.865  0.3297 -0.0287 -0.0198
   93loPI    C1 1473  13.779   8.943  10.190 -0.0747  0.0790 -0.0445
   93loPI    C2 1474  13.734   8.575  10.341 -0.1044  0.0967 -0.0102
   93loPI    C3 1475  13.755   8.891  10.586  0.0133  0.1084 -0.0351
   93loPI   PO4 1476  13.607   8.968  10.058  0.2762  0.0405  0.0556
   93loPI   GL1 1477  13.651   8.953   9.628  0.0527 -0.0470  0.2212
   93loPI   GL2 1478  13.621   8.674   9.519 -0.0222 -0.0210  0.3414
   93loPI   C1A 1479  13.724   9.272   9.395 -0.1813 -0.0216  0.2002
   93loPI   C2A 1480  13.756   9.360   8.962 -0.1267 -0.2426  0.0290
   93loPI   C3A 1481  13.545   9.431   8.634 -0.1371 -0.3185  0.1136
   93loPI   C4A 1482  13.523   9.651   8.176 -0.1971  0.4319  0.1265
   93loPI   C5A 1483  13.558   9.921   7.859 -0.0156 -0.1188  0.2681
   93loPI   C6A 1484  13.271  10.089   7.666  0.3665  0.1239 -0.0683
   93loPI   C1B 1485  13.696   8.818   9.096 -0.3560 -0.0017 -0.2995
   93loPI   C2B 1486  13.675   8.830   8.710  0.0963 -0.0371 -0.1798
   93loPI   C3B 1487  13.484   8.731   8.312  0.2080  0.1483  0.2583
   93loPI   C4B 1488  13.452   8.841   7.882 -0.0583 -0.0692 -0.1048
   94loPI    C1 1489   2.659  16.460  11.338 -0.1138 -0.2092  0.1565
   94loPI    C2 1490   2.752  16.847  11.369 -0.2342 -0.1426 -0.2588
   94loPI    C3 1491   2.973  16.573  11.559 -0.1045  0.1211 -0.0208
   94loPI   PO4 1492   2.703  16.445  11.070 -0.1065  0.2269  0.1263
   94loPI   GL1 1493   2.581  16.583  10.612  0.3796  0.2132  0.1512
   94loPI   GL2 1494   2.375  16.871  10.409  0.3001  0.0236 -0.0424
   94loPI   C1A 1495   2.785  16.374  10.188  0.0749  0.1500 -0.2761
   94loPI   C2A 1496   2.589  16.219   9.965 -0.0497 -0.0782 -0.0613
   94loPI   C3A 1497   2.504  16.228   9.539  0.2791 -0.0859  0.1704
   94loPI   C4A 1498   2.482  16.306   9.093  0.0566  0.1159 -0.1226
   94loPI   C5A 1499   2.301  16.312   8.734 -0.1361  0.2651  0.0877
   94loPI   C6A 1500   1.883  16.093   8.639 -0.0712  0.4348 -0.0611
   94loPI   C1B 1501   2.400  16.721   9.959  0.2501 -0.0809  0.0616
   94loPI   C2B 1502   2.341  16.709   9.475 -0.1342 -0.0085 -0.1203
   94loPI   C3B 1503   2.434  16.803   9.133 -0.0264  0.3753 -0.2562
   94loPI   C4B 1504   2.315  16.797   8.707 -0.0810  0.0122  0.1923
   95loPI    C1 1505  14.659   7.681  10.141  0.1063  0.0196  0.1729
   95loPI    C2 1506  14.327   7.790  10.335 -0.1521 -0.2239 -0.1207
   95loPI    C3 1507  14.518   7.454  10.438 -0.0298 -0.1163  0.0070
   95loPI   PO4 1508  14.598   7.785   9.863 -0.1429 -0.2608 -0.2312
   95loPI   GL1 1509  14.747   7.931   9.558  0.1922  0.0137  0.1427
   95loPI   GL2 1510  15.035   7.717   9.424  0.3276 -0.3524 -0.1004
   95loPI   C1A 1511  14.668   7.860   9.123  0.0663 -0.1462  0.2134
   95loPI   C2A 1512  14.656   7.936   8.669  0.1725  0.1218 -0.0778
   95loPI   C3A 1513  14.595   8.070   8.251 -0.2476 -0.1287  0.2387
   95loPI   C4A 1514  14.664   8.261   7.921 -0.1278 -0.2507  0.1680
   95loPI   C5A 1515  14.740   8.270   7.430 -0.0058  0.2197 -0.1202
   95loPI   C6A 1516  14.677   8.089   7.106  0.0422  0.2724  0.0192
   95loPI   C1B 1517  15.106   7.637   9.035 -0.0426 -0.2294 -0.1406
   95loPI   C2B 1518  15.135   7.776   8.640  0.1323 -0.0691 -0.1172
   95loPI   C3B 1519  15.050   7.896   8.230 -0.1373  0.1550 -0.0444
   95loPI   C4B 1520  14.873   7.818   7.765 -0.1660  0.1662  0.0667
   96loPI    C1 1521  15.601  11.985  10.624 -0.1262  0.0305  0.0271
   96loPI    C2 1522  15.866  11.915  10.915  0.0128  0.0172 -0.1010
   96loPI    C3 1523  15.478  11.838  10.974  0.0140  0.1861  0.1437
   96loPI   PO4 1524  15.653  12.192  10.572  0.1713  0.0047 -0.1327
   96loPI   GL1 1525  15.823  12.384  10.240  0.1239 -0.1078  0.0034
   96loPI   GL2 1526  15.485  12.419  10.172  0.1677  0.1644 -0.0898
   96loPI   C1A 1527  15.896  12.324   9.818  0.0977 -0.4089  0.1791
   96loPI   C2A 1528  15.859  12.348   9.391 -0.1467 -0.1362  0.0251
   96loPI   C3A 1529  15.752  12.368   8.947 -0.2101 -0.2140  0.2269
   96loPI   C4A 1530  15.924  12.295   8.465  0.1642  0.1879  0.2360
   96loPI   C5A 1531  16.065  12.112   8.144  0.1666  0.0259  0.1320
   96loPI   C6A 1532  15.904  11.725   7.917 -0.0950 -0.0353  0.0829
   96loPI   C1B 1533  15.381  12.465   9.764 -0.2187  0.1375 -0.2015
   96loPI   C2B 1534  15.380  12.544   9.271  0.1086  0.3106 -0.2006
   96loPI   C3B 1535  15.304  12.596   8.877  0.0965 -0.0010  0.2415
   96loPI   C4B 1536  15.507  12.496   8.505 -0.0128 -0.0758 -0.1350
   97loPI    C1 1537   7.374   8.137  10.455  0.3077  0.1575 -0.0714
   97loPI    C2 1538   7.642   8.327  10.684  0.2298  0.1185  0.0524
   97loPI    C3 1539   7.386   8.066  10.848  0.2628 -0.0111 -0.0997
   97loPI   PO4 1540   7.466   8.039  10.266  0.1414  0.2372  0.0175
   97loPI   GL1 1541   7.217   7.794   9.936 -0.0455 -0.0754 -0.0717
   97loPI   GL2 1542   7.325   8.126   9.761 -0.0072  0.3076  0.0007
   97loPI   C1A 1543   7.192   7.485   9.653 -0.1940 -0.0958 -0.0631
   97loPI   C2A 1544   7.271   7.378   9.291  0.1108 -0.1025 -0.0528
   97loPI   C3A 1545   7.280   7.358   8.841 -0.0470 -0.1312  0.1140
   97loPI   C4A 1546   7.255   7.293   8.500 -0.1887 -0.1241 -0.0763
   97loPI   C5A 1547   7.197   7.335   8.118  0.0852 -0.0629  0.4884
   97loPI   C6A 1548   7.042   7.098   7.732  0.1066  0.0908  0.2067
   97loPI   C1B 1549   7.373   7.951   9.368  0.3239 -0.0468 -0.2908
   97loPI   C2B 1550   7.349   7.940   8.883  0.2043 -0.2479 -0.1274
   97loPI   C3B 1551   7.294   7.917   8.571  0.1002 -0.0930 -0.1909
   97loPI   C4B 1552   7.248   7.828   8.133  0.3266 -0.0627  0.3469
   98loPI    C1 1553   5.425  16.733  11.121 -0.2689  0.1021  0.0245
   98loPI    C2 1554   5.710  16.747  11.402 -0.0843 -0.1722 -0.1440
   98loPI    C3 1555   5.572  17.085  11.239  0.1452 -0.0367 -0.0603
   98loPI   PO4 1556   5.400  16.423  11.098 -0.0477  0.1114  0.3378
   98loPI   GL1 1557   5.375  16.296  10.629  0.0172 -0.0267 -0.0679
   98loPI   GL2 1558   5.612  16.562  10.610  0.1809  0.3007 -0.0995
   98loPI   C1A 1559   5.381  16.219  10.215  0.0982  0.2268  0.0528
   98loPI   C2A 1560   5.298  16.276   9.773 -0.1644  0.0351 -0.2975
   98loPI   C3A 1561   5.354  16.397   9.415 -0.0449 -0.1787 -0.2167
   98loPI   C4A 1562   5.342  16.363   8.960 -0.1865  0.2627 -0.0675
   98loPI   C5A 1563   5.088  16.347   8.544  0.1994  0.0997 -0.1814
   98loPI   C6A 1564   4.926  16.311   8.138 -0.1646  0.3091 -0.0586
   98loPI   C1B 1565   5.673  16.619  10.198 -0.1967  0.0853  0.0507
   98loPI   C2B 1566   5.714  16.631   9.717 -0.0338  0.2295  0.0207
   98loPI   C3B 1567   5.729  16.725   9.261 -0.1568 -0.2133  0.1425
   98loPI   C4B 1568   5.882  16.886   8.845  0.4289 -0.0536  0.2702
   99loPI    C1 1569  10.797  15.765  11.351 -0.1708 -0.1510 -0.1002
   99loPI    C2 1570  11.024  15.573  11.618 -0.2372 -0.2097 -0.0855
   99loPI    C3 1571  10.775  15.862  11.739  0.0167  0.0345 -0.1339
   99loPI   PO4 1572  10.920  15.738  11.081 -0.3614  0.1460 -0.1136
   99loPI   GL1 1573  10.794  15.803  10.700  0.0095 -0.1748 -0.1171
   99loPI   GL2 1574  10.675  16.152  10.575  0.0240  0.0026  0.2481
   99loPI   C1A 1575  10.673  15.595  10.344  0.2160  0.2392 -0.1337
   99loPI   C2A 1576  10.848  15.705  10.002 -0.2008 -0.1929  0.1441
   99loPI   C3A 1577  10.696  15.738   9.683  0.5597  0.0690 -0.4842
   99loPI   C4A 1578  10.785  15.810   9.222  0.0887 -0.2322  0.3697
   99loPI   C5A 1579  10.858  15.819   8.755 -0.1574  0.1490  0.1635
   99loPI   C6A 1580  10.866  15.605   8.454 -0.1054  0.0217 -0.0616
   99loPI   C1B 1581  10.620  16.122  10.150  0.2100 -0.1417 -0.0340
   99loPI   C2B 1582  10.547  16.235   9.766  0.2233  0.2834 -0.0985
   99loPI   C3B 1583  10.670  16.215   9.447  0.0701  0.2961  0.3252
   99loPI   C4B 1584  10.714  16.258   8.976 -0.1127  0.0710 -0.2275
  100loPI    C1 1585   7.533  17.414  11.135 -0.1795 -0.0564 -0.1309
  100loPI    C2 1586   7.456  17.070  11.324  0.2201 -0.0432  0.0659
  100loPI    C3 1587   7.456  17.415  11.527  0.1445  0.0347 -0.0649
  100loPI   PO4 1588   7.452  17.394  10.873  0.1348  0.1393  0.2525
  100loPI   GL1 1589   7.211  17.319  10.595  0.2636  0.2149  0.1995
  100loPI   GL2 1590   6.962  17.196  10.320 -0.0789 -0.2005 -0.1304
  100loPI   C1A 1591   7.413  17.561  10.211  0.0516 -0.1345  0.1102
  100loPI   C2A 1592   7.525  17.592   9.799 -0.0901  0.2381  0.1296
  100loPI   C3A 1593   7.607  17.528   9.393  0.0517  0.1362  0.0323
  100loPI   C4A 1594   7.519  17.535   8.898 -0.2523 -0.1377  0.1902
  100loPI   C5A 1595   7.439  17.713   8.499  0.1049 -0.2062  0.4646
  100loPI   C6A 1596   7.213  17.832   8.120  0.1884  0.0046 -0.0794
  100loPI   C1B 1597   7.086  17.303   9.899 -0.2611  0.0432 -0.3730
  100loPI   C2B 1598   7.160  17.359   9.479  0.1411  0.0087  0.1051
  100loPI   C3B 1599   7.085  17.294   8.978  0.0521 -0.1469 -0.2466
  100loPI   C4B 1600   7.116  17.237   8.558 -0.0411  0.3163 -0.0550
  101loPI    C1 1601  14.300   1.920  11.194  0.0407 -0.1777  0.2451
  101loPI    C2 1602  14.042   2.128  11.417 -0.0898  0.0433 -0.1031
  101loPI    C3 1603  14.089   1.736  11.479 -0.1677  0.0882  0.2666
  101loPI   PO4 1604  14.337   2.104  10.986 -0.1479 -0.2468  0.0369
  101loPI   GL1 1605  14.514   2.111  10.535 -0.0535 -0.1541  0.0508
  101loPI   GL2 1606  14.247   2.232  10.463  0.1569 -0.0847 -0.1312
  101loPI   C1A 1607  14.721   1.944  10.160  0.1361 -0.0744  0.1795
  101loPI   C2A 1608  14.488   1.909   9.708  0.1753 -0.1834 -0.2361
  101loPI   C3A 1609  14.475   1.797   9.257 -0.0162 -0.2823 -0.1055
  101loPI   C4A 1610  14.477   1.797   8.856 -0.0419 -0.0431 -0.0442
  101loPI   C5A 1611  14.653   1.758   8.341 -0.4099 -0.0313 -0.0059
  101loPI   C6A 1612  14.792   1.444   8.167  0.2358 -0.0792  0.1042
  101loPI   C1B 1613  14.373   2.339   9.999 -0.2229  0.1720 -0.2098
  101loPI   C2B 1614  14.157   2.207   9.484 -0.0129  0.0626 -0.0445
  101loPI   C3B 1615  14.078   2.016   9.113 -0.2468 -0.0904  0.1518
  101loPI   C4B 1616  13.986   1.852   8.688  0.0280 -0.0281 -0.0465
  102loPI    C1 1617  15.429  14.717  11.016 -0.1382 -0.1096 -0.1593
  102loPI    C2 1618  15.577  14.431  11.254 -0.0610  0.1637  0.1277
  102loPI    C3 1619  15.487  14.791  11.405 -0.3436  0.2315 -0.1891
  102loPI   PO4 1620  15.460  14.755  10.801 -0.1866  0.1704  0.3322
  102loPI   GL1 1621  15.438  14.641  10.428  0.2215  0.3763  0.1976
  102loPI   GL2 1622  15.669  14.541  10.310 -0.0500  0.0060  0.0102
  102loPI   C1A 1623  15.310  14.720  10.006 -0.3112 -0.3105 -0.1086
  102loPI   C2A 1624  15.246  14.758   9.559  0.1061  0.0687 -0.3062
  102loPI   C3A 1625  15.034  14.839   9.110 -0.2786  0.2614  0.0368
  102loPI   C4A 1626  14.846  14.745   8.772 -0.1569  0.1484  0.3801
  102loPI   C5A 1627  14.749  14.378   8.708 -0.0178  0.5384  0.1506
  102loPI   C6A 1628  15.038  13.979   8.574 -0.3325  0.0117  0.3573
  102loPI   C1B 1629  15.820  14.596   9.956  0.0845 -0.2160  0.1370
  102loPI   C2B 1630  15.725  14.598   9.491 -0.1916  0.0103 -0.2305
  102loPI   C3B 1631  15.741  14.741   9.068  0.3566 -0.2118  0.1184
  102loPI   C4B 1632  15.885  14.796   8.638 -0.0147  0.3349 -0.2392
  103loPI    C1 1633  10.812  11.979  10.815  0.0492  0.0060  0.1079
  103loPI    C2 1634  10.904  12.064  11.195 -0.0919 -0.0408  0.1528
  103loPI    C3 1635  10.523  12.005  11.090 -0.0576  0.0143 -0.0049
  103loPI   PO4 1636  10.938  12.159  10.678  0.0114 -0.0908  0.0899
  103loPI   GL1 1637  10.791  12.269  10.318  0.3682  0.0460 -0.1241
  103loPI   GL2 1638  10.680  11.931  10.282 -0.0495  0.0634 -0.2357
  103loPI   C1A 1639  10.989  12.395   9.828  0.2281 -0.1976  0.0681
  103loPI   C2A 1640  10.915  12.566   9.376  0.0181  0.1038  0.1286
  103loPI   C3A 1641  10.939  12.685   8.945 -0.3320  0.2080 -0.0850
  103loPI   C4A 1642  11.017  12.937   8.545  0.1593 -0.0168 -0.4634
  103loPI   C5A 1643  11.316  13.296   8.405  0.2303 -0.0047  0.0401
  103loPI   C6A 1644  11.342  13.726   8.153 -0.1374  0.0732 -0.2365
  103loPI   C1B 1645  10.760  11.944   9.812  0.0754 -0.2745  0.0684
  103loPI   C2B 1646  11.024  11.978   9.459  0.1251 -0.0731  0.2015
  103loPI   C3B 1647  11.067  12.121   8.962 -0.0651 -0.0392 -0.2278
  103loPI   C4B 1648  11.194  12.454   8.587  0.2673  0.0372 -0.1014
  104loPI    C1 1649  11.977   4.441  10.512 -0.0692  0.0877  0.1126
  104loPI    C2 1650  12.088   4.339  10.882  0.0250  0.2835  0.1397
  104loPI    C3 1651  11.810   4.622  10.827 -0.0728  0.1735  0.0619
  104loPI   PO4 1652  11.925   4.293  10.367 -0.0005 -0.1106  0.1277
  104loPI   GL1 1653  11.893   4.488   9.993  0.0385  0.0227  0.3743
  104loPI   GL2 1654  11.877   4.176   9.787  0.1775 -0.3619 -0.1457
  104loPI   C1A 1655  11.828   4.622   9.562 -0.1010  0.0601  0.0195
  104loPI   C2A 1656  11.811   4.660   9.070  0.1894  0.1505  0.2131
  104loPI   C3A 1657  11.951   4.650   8.714  0.0232 -0.1797 -0.0106
  104loPI   C4A 1658  11.981   4.836   8.365  0.1901  0.1545 -0.0688
  104loPI   C5A 1659  11.928   4.738   7.948 -0.2155 -0.1824 -0.0266
  104loPI   C6A 1660  12.115   4.534   7.579 -0.0599 -0.2232 -0.0398
  104loPI   C1B 1661  11.942   4.193   9.287 -0.0088 -0.4353 -0.1138
  104loPI   C2B 1662  12.058   4.238   8.943 -0.0559  0.3130 -0.0699
  104loPI   C3B 1663  12.255   4.226   8.525 -0.1451 -0.1592  0.3798
  104loPI   C4B 1664  12.205   4.396   8.182 -0.2482  0.3790  0.5810
  105loPI    C1 1665   3.536   3.906  10.758 -0.1772  0.0067 -0.1999
  105loPI    C2 1666   3.176   4.036  10.875 -0.1442 -0.1344  0.0637
  105loPI    C3 1667   3.488   4.286  10.874 -0.1456 -0.1299  0.2781
  105loPI   PO4 1668   3.477   3.738  10.595  0.0053  0.0516 -0.1517
  105loPI   GL1 1669   3.469   3.758  10.178  0.0741 -0.3116 -0.0208
  105loPI   GL2 1670   3.494   3.662   9.848  0.1170  0.1188  0.1983
  105loPI   C1A 1671   3.837   3.998  10.011 -0.1519  0.1505  0.2056
  105loPI   C2A 1672   4.014   4.025   9.539  0.0701  0.0751 -0.1632
  105loPI   C3A 1673   4.154   3.948   9.105  0.0695  0.0135  0.0534
  105loPI   C4A 1674   4.263   3.945   8.704  0.1020  0.1231 -0.0233
  105loPI   C5A 1675   4.197   3.961   8.239  0.2400 -0.1254  0.0870
  105loPI   C6A 1676   3.858   4.081   7.878 -0.1477 -0.1059  0.1729
  105loPI   C1B 1677   3.614   3.658   9.438 -0.0109 -0.0516  0.1835
  105loPI   C2B 1678   3.827   3.637   9.055 -0.1028  0.0596  0.1170
  105loPI   C3B 1679   3.901   3.659   8.617  0.3168 -0.2264  0.1274
  105loPI   C4B 1680   3.852   3.555   8.211 -0.3212 -0.4256  0.2150
  106loPI    C1 1681  17.637   5.061  10.340 -0.0584  0.0740 -0.0397
  106loPI    C2 1682  17.542   4.690  10.456  0.0224  0.1193  0.1743
  106loPI    C3 1683  17.886   4.857  10.577 -0.1115  0.3424  0.2541
  106loPI   PO4 1684  17.610   5.085  10.064 -0.3130  0.1329  0.1227
  106loPI   GL1 1685  17.706   5.225   9.769  0.3596 -0.2128 -0.0463
  106loPI   GL2 1686  17.931   4.949   9.692 -0.0320  0.2567  0.0817
  106loPI   C1A 1687  17.727   5.355   9.386  0.3400  0.1108  0.2137
  106loPI   C2A 1688  17.812   5.258   8.974 -0.1053 -0.0899 -0.1545
  106loPI   C3A 1689  17.881   5.219   8.586  0.0887  0.1500  0.0535
  106loPI   C4A 1690  17.978   5.342   8.229 -0.1436 -0.1280  0.1001
  106loPI   C5A 1691  18.257   5.376   7.931 -0.0270 -0.0712  0.3887
  106loPI   C6A 1692  18.559   5.227   7.606 -0.0848  0.2113 -0.0632
  106loPI   C1B 1693  17.957   4.893   9.304  0.2361 -0.1685 -0.0057
  106loPI   C2B 1694  18.027   4.764   8.961 -0.0041  0.0552 -0.0562
  106loPI   C3B 1695  18.080   4.625   8.584  0.0770 -0.0681  0.0982
  106loPI   C4B 1696  18.108   4.739   8.198 -0.1566  0.0636  0.0931
  107loPI    C1 1697  16.469   0.591  11.078  0.0147 -0.1164  0.1385
  107loPI    C2 1698  16.629   0.314  11.318 -0.1716 -0.1032  0.2796
  107loPI    C3 1699  16.264   0.460  11.396 -0.0951  0.1465  0.1787
  107loPI   PO4 1700  16.352   0.541  10.822 -0.0629  0.0434 -0.0054
  107loPI   GL1 1701  16.132   0.501  10.543  0.0555  0.1265  0.3227
  107loPI   GL2 1702  15.997   0.789  10.358 -0.1905 -0.1178 -0.1043
  107loPI   C1A 1703  16.171   0.258  10.144 -0.3514  0.3611  0.0344
  107loPI   C2A 1704  16.126   0.262   9.764 -0.3709  0.2556  0.2670
  107loPI   C3A 1705  16.186   0.267   9.354 -0.2786  0.2666  0.0329
  107loPI   C4A 1706  16.267   0.353   8.961  0.1661 -0.0220 -0.2982
  107loPI   C5A 1707  16.213   0.154   8.608 -0.0708  0.0610 -0.0032
  107loPI   C6A 1708  16.280  -0.162   8.296 -0.2542 -0.2895  0.1178
  107loPI   C1B 1709  15.966   0.691   9.894 -0.0521  0.2080 -0.4005
  107loPI   C2B 1710  15.964   0.700   9.456  0.3404  0.0395 -0.0615
  107loPI   C3B 1711  16.130   0.839   9.063 -0.1672 -0.2218  0.0804
  107loPI   C4B 1712  16.154   0.765   8.684  0.1369  0.0342  0.1262
  108loPI    C1 1713   0.450   0.881  11.049 -0.0103  0.0285 -0.3328
  108loPI    C2 1714   0.765   0.742  11.252 -0.1147  0.0870 -0.1285
  108loPI    C3 1715   0.406   0.573  11.300 -0.1631  0.1751 -0.1773
  108loPI   PO4 1716   0.530   0.899  10.793  0.4386 -0.1915 -0.2442
  108loPI   GL1 1717   0.660   0.664  10.454  0.0786 -0.2170  0.1646
  108loPI   GL2 1718   0.600   0.350  10.352 -0.2988  0.0974  0.0993
  108loPI   C1A 1719   0.938   0.717  10.133  0.2773 -0.0909  0.2068
  108loPI   C2A 1720   1.059   0.630   9.691  0.2200  0.1823 -0.1304
  108loPI   C3A 1721   1.059   0.414   9.389 -0.5094 -0.0697  0.0274
  108loPI   C4A 1722   1.009   0.541   8.972 -0.0900 -0.3257  0.2662
  108loPI   C5A 1723   1.043   0.544   8.538  0.2117  0.2184 -0.0279
  108loPI   C6A 1724   0.909   0.698   8.086  0.0604 -0.2554  0.3778
  108loPI   C1B 1725   0.610   0.312   9.929 -0.3858  0.1593  0.0308
  108loPI   C2B 1726   0.676   0.093   9.577 -0.0327 -0.1656 -0.1707
  108loPI   C3B 1727   0.620   0.101   9.126  0.2007 -0.0536  0.0001
  108loPI   C4B 1728   0.691   0.143   8.718 -0.1219 -0.1110  0.0832
  109loPI    C1 1729  13.495  12.805  10.951  0.1388  0.2349  0.2172
  109loPI    C2 1730  13.693  12.665  10.633 -0.3750 -0.1521  0.0538
  109loPI    C3 1731  13.756  12.505  10.994 -0.2293 -0.1210  0.0425
  109loPI   PO4 1732  13.134  12.853  10.801  0.0187  0.1752 -0.0909
  109loPI   GL1 1733  13.032  13.002  10.405 -0.4397  0.0915  0.2102
  109loPI   GL2 1734  13.377  12.960  10.337  0.0237  0.0226 -0.0101
  109loPI   C1A 1735  13.239  13.045   9.902 -0.0758  0.3850 -0.0972
  109loPI   C2A 1736  13.338  13.064   9.488 -0.4987  0.2448  0.1387
  109loPI   C3A 1737  13.240  13.037   9.063  0.0687  0.1720 -0.4420
  109loPI   C4A 1738  13.076  13.173   8.734 -0.0225 -0.1590  0.1179
  109loPI   C5A 1739  13.011  13.177   8.360 -0.0919  0.0995  0.0200
  109loPI   C6A 1740  12.738  13.065   7.986  0.3147  0.3509 -0.3327
  109loPI   C1B 1741  13.731  12.789   9.993 -0.0410  0.0871 -0.3160
  109loPI   C2B 1742  13.748  12.848   9.610 -0.1917 -0.1403 -0.0231
  109loPI   C3B 1743  13.701  12.839   9.105 -0.1383  0.1210  0.1652
  109loPI   C4B 1744  13.349  12.599   8.819 -0.0130  0.3469  0.0442
  110loPI    C1 1745   7.008  13.498  11.042  0.2557  0.0098 -0.1522
  110loPI    C2 1746   6.870  13.129  11.115  0.0832  0.0586 -0.2277
  110loPI    C3 1747   6.885  13.399  11.410  0.3239 -0.0442 -0.1438
  110loPI   PO4 1748   6.962  13.500  10.824 -0.0170  0.0515 -0.0202
  110loPI   GL1 1749   6.731  13.487  10.393  0.0575  0.0806 -0.2858
  110loPI   GL2 1750   6.408  13.404  10.256 -0.0940 -0.2061  0.3578
  110loPI   C1A 1751   7.076  13.568  10.147  0.2989  0.0129  0.4141
  110loPI   C2A 1752   7.137  13.309   9.707 -0.0008  0.0094  0.1667
  110loPI   C3A 1753   7.052  13.263   9.302  0.2053 -0.0037 -0.0863
  110loPI   C4A 1754   7.005  13.067   8.883 -0.0046 -0.0080 -0.0295
  110loPI   C5A 1755   6.946  13.012   8.438 -0.0008  0.1883 -0.0183
  110loPI   C6A 1756   7.074  12.596   8.245  0.1911 -0.3516 -0.0818
  110loPI   C1B 1757   6.386  13.727  10.012  0.0889  0.5022 -0.2285
  110loPI   C2B 1758   6.354  14.074   9.761  0.0209  0.1253  0.1190
  110loPI   C3B 1759   6.460  14.156   9.391 -0.2336 -0.0154  0.0506
  110loPI   C4B 1760   6.305  14.113   8.985  0.0822  0.1307  0.1803
  111loPI    C1 1761   0.172  13.978  11.171 -0.1917 -0.0741 -0.0343
  111loPI    C2 1762   0.397  13.663  11.272  0.1523  0.2176  0.1300
  111loPI    C3 1763   0.234  13.891  11.557 -0.0552  0.2182  0.0124
  111loPI   PO4 1764   0.028  13.867  10.968 -0.0331  0.4362 -0.1851
  111loPI   GL1 1765   0.094  13.831  10.539 -0.2854  0.0098 -0.1224
  111loPI   GL2 1766   0.271  13.563  10.336 -0.0448 -0.2872 -0.0164
  111loPI   C1A 1767   0.099  14.187  10.334 -0.1031  0.2010 -0.0519
  111loPI   C2A 1768   0.103  14.297   9.925 -0.0878  0.3410 -0.0142
  111loPI   C3A 1769   0.136  14.378   9.478  0.4327 -0.1059 -0.0233
  111loPI   C4A 1770   0.144  14.546   9.103 -0.1208  0.1534 -0.0674
  111loPI   C5A 1771  -0.074  14.642   8.690 -0.2614 -0.0788 -0.0450
  111loPI   C6A 1772  -0.393  14.548   8.356 -0.3807 -0.2214  0.0300
  111loPI   C1B 1773   0.314  13.810   9.954 -0.0011  0.1588 -0.1311
  111loPI   C2B 1774   0.269  13.925   9.592 -0.1246  0.2105  0.3658
  111loPI   C3B 1775   0.216  14.003   9.179 -0.3314 -0.1835  0.0202
  111loPI   C4B 1776   0.248  14.187   8.760 -0.3207  0.1528 -0.0749
  112loPI    C1 1777  16.288  17.963  11.401  0.0253  0.0629 -0.0585
  112loPI    C2 1778  15.908  18.053  11.490 -0.0094 -0.0410 -0.1005
  112loPI    C3 1779  16.160  17.942  11.780  0.0154  0.1232 -0.0584
  112loPI   PO4 1780  16.284  17.730  11.175  0.0539  0.0248  0.1351
  112loPI   GL1 1781  16.250  17.609  10.790 -0.0153  0.3437  0.0990
  112loPI   GL2 1782  16.491  17.301  10.813  0.1686  0.3272  0.0359
  112loPI   C1A 1783  15.934  17.420  10.481  0.2790  0.0147 -0.0531
  112loPI   C2A 1784  16.016  17.395  10.011  0.1048 -0.1337 -0.2425
  112loPI   C3A 1785  15.890  17.433   9.681  0.1159 -0.0474 -0.0366
  112loPI   C4A 1786  15.974  17.471   9.225 -0.2393 -0.0311  0.1947
  112loPI   C5A 1787  16.045  17.543   8.834  0.2815 -0.1081  0.0545
  112loPI   C6A 1788  16.187  17.310   8.493 -0.1371  0.0783  0.1867
  112loPI   C1B 1789  16.482  17.223  10.529  0.2651  0.3470  0.2279
  112loPI   C2B 1790  16.496  17.334  10.102 -0.2988 -0.1208  0.1036
  112loPI   C3B 1791  16.427  17.223   9.716 -0.1160  0.1389 -0.0242
  112loPI   C4B 1792  16.436  17.282   9.313  0.2079 -0.1336 -0.3645
  113loPI    C1 1793   9.831   4.339  11.056 -0.1048 -0.1201 -0.0937
  113loPI    C2 1794  10.183   4.225  11.207 -0.1738 -0.1182  0.0707
  113loPI    C3 1795   9.892   4.350  11.451 -0.2936 -0.1338 -0.0631
  113loPI   PO4 1796   9.760   4.261  10.859  0.0656 -0.0790 -0.1245
  113loPI   GL1 1797   9.866   4.071  10.413  0.0134  0.0282 -0.0940
  113loPI   GL2 1798   9.671   4.344  10.374  0.1743 -0.0770 -0.0029
  113loPI   C1A 1799  10.236   4.291  10.254  0.3384  0.2429 -0.3296
  113loPI   C2A 1800  10.258   4.474   9.799  0.1683  0.0384  0.1893
  113loPI   C3A 1801  10.212   4.519   9.434  0.1243  0.1961  0.1924
  113loPI   C4A 1802  10.110   4.457   9.034 -0.1284 -0.0080 -0.3586
  113loPI   C5A 1803  10.115   4.395   8.657  0.1120  0.0155  0.1143
  113loPI   C6A 1804  10.204   4.277   8.277  0.2074  0.2534 -0.1724
  113loPI   C1B 1805   9.832   4.274   9.921  0.2560  0.1593  0.0481
  113loPI   C2B 1806   9.751   4.206   9.498  0.1046  0.1179  0.2588
  113loPI   C3B 1807   9.714   4.184   9.036 -0.0028 -0.0056  0.0297
  113loPI   C4B 1808   9.818   3.963   8.668  0.1326  0.1694 -0.1698
  114loPI    C1 1809  16.359   8.829   9.982 -0.2656 -0.0870 -0.0637
  114loPI    C2 1810  16.029   9.029  10.089 -0.1557  0.0563  0.0120
  114loPI    C3 1811  16.381   9.122  10.254 -0.0869 -0.1374 -0.0230
  114loPI   PO4 1812  16.326   8.794   9.733 -0.1326  0.3677  0.1386
  114loPI   GL1 1813  16.584   8.727   9.369  0.1044 -0.3190  0.2382
  114loPI   GL2 1814  16.386   9.049   9.325  0.1358 -0.3278  0.0599
  114loPI   C1A 1815  16.659   8.538   8.978  0.0235 -0.3875  0.0038
  114loPI   C2A 1816  16.574   8.602   8.532 -0.0349  0.0430  0.0839
  114loPI   C3A 1817  16.356   8.894   8.233  0.0371 -0.3837 -0.3359
  114loPI   C4A 1818  15.990   8.936   7.874  0.1803  0.0632  0.0017
  114loPI   C5A 1819  15.646   8.974   7.562 -0.2617 -0.0529 -0.0095
  114loPI   C6A 1820  15.295   8.862   7.345  0.1550 -0.1908  0.2308
  114loPI   C1B 1821  16.562   9.088   8.957  0.0799 -0.1549 -0.2414
  114loPI   C2B 1822  16.371   9.246   8.592  0.0558 -0.1931 -0.2620
  114loPI   C3B 1823  16.345   9.627   8.387  0.1667  0.1119 -0.0765
  114loPI   C4B 1824  16.102   9.769   8.024 -0.0668  0.1121 -0.0709
  115loPI    C1 1825   1.758  17.984  11.266  0.0922 -0.0138 -0.0717
  115loPI    C2 1826   1.685  18.371  11.333  0.0057  0.0135 -0.3106
  115loPI    C3 1827   1.993  18.191  11.514 -0.0566  0.1489 -0.0650
  115loPI   PO4 1828   1.689  17.866  11.049  0.2580 -0.1136 -0.0608
  115loPI   GL1 1829   1.560  17.669  10.721 -0.0102  0.1952  0.0307
  115loPI   GL2 1830   1.511  17.970  10.582  0.2581 -0.3628  0.2944
  115loPI   C1A 1831   1.666  17.501  10.242 -0.1467  0.0564 -0.1282
  115loPI   C2A 1832   1.773  17.453   9.837 -0.0851  0.2778  0.0584
  115loPI   C3A 1833   1.816  17.364   9.481 -0.1994 -0.0050  0.0267
  115loPI   C4A 1834   1.735  17.370   9.010  0.2327 -0.0986 -0.1027
  115loPI   C5A 1835   1.785  17.538   8.641  0.0816  0.1165 -0.0316
  115loPI   C6A 1836   1.869  17.878   8.502  0.2192 -0.0336  0.2094
  115loPI   C1B 1837   1.630  18.023  10.150 -0.0783  0.3035 -0.1179
  115loPI   C2B 1838   1.700  17.893   9.682  0.2423  0.3641  0.2663
  115loPI   C3B 1839   1.588  17.837   9.264 -0.0539  0.2505  0.0291
  115loPI   C4B 1840   1.596  17.938   8.915 -0.0064 -0.0906 -0.0757
  116loPI    C1 1841  16.055  12.403  10.969  0.1239 -0.0162  0.0265
  116loPI    C2 1842  16.401  12.519  11.133  0.0326 -0.0328  0.2334
  116loPI    C3 1843  16.285  12.137  11.160  0.1215 -0.0832 -0.0629
  116loPI   PO4 1844  16.030  12.455  10.698 -0.0938  0.1236 -0.0509
  116loPI   GL1 1845  16.038  12.830  10.454  0.0456 -0.0456  0.1804
  116loPI   GL2 1846  16.112  13.007  10.245  0.2815 -0.3760  0.0804
  116loPI   C1A 1847  16.226  12.539  10.044 -0.0750  0.4618  0.1743
  116loPI   C2A 1848  16.272  12.598   9.551  0.1200 -0.3758 -0.2818
  116loPI   C3A 1849  16.252  12.537   9.063  0.0238 -0.0371 -0.3299
  116loPI   C4A 1850  16.241  12.679   8.645  0.2183  0.0358 -0.0367
  116loPI   C5A 1851  16.351  12.945   8.339 -0.0634  0.0003 -0.1114
  116loPI   C6A 1852  16.747  13.058   8.086 -0.1081  0.1360 -0.0908
  116loPI   C1B 1853  16.149  12.998   9.849  0.0754  0.1584 -0.0820
  116loPI   C2B 1854  16.153  13.125   9.436 -0.1230  0.1318  0.1479
  116loPI   C3B 1855  16.061  13.230   9.054  0.0655 -0.2048 -0.0480
  116loPI   C4B 1856  16.004  13.229   8.675 -0.0643 -0.1238  0.2342
  117loPI    C1 1857   1.815   3.597  10.451 -0.1074 -0.0504  0.0218
  117loPI    C2 1858   1.466   3.426  10.546 -0.0894 -0.0509  0.0878
  117loPI    C3 1859   1.674   3.625  10.824 -0.2116  0.2586 -0.0378
  117loPI   PO4 1860   1.909   3.416  10.285  0.0703 -0.1245 -0.2990
  117loPI   GL1 1861   2.095   3.298   9.932  0.2061 -0.4724 -0.0992
  117loPI   GL2 1862   1.837   3.469   9.773 -0.4335  0.0343  0.0805
  117loPI   C1A 1863   2.199   3.331   9.460  0.1550 -0.0744 -0.0589
  117loPI   C2A 1864   2.185   3.343   9.056  0.1162 -0.0350  0.2213
  117loPI   C3A 1865   2.131   3.156   8.650 -0.2211  0.1851  0.0169
  117loPI   C4A 1866   2.207   2.974   8.237  0.2304  0.3615  0.0141
  117loPI   C5A 1867   2.180   2.744   7.844 -0.1993 -0.2320 -0.2043
  117loPI   C6A 1868   1.957   2.452   7.755  0.0088  0.2393  0.0155
  117loPI   C1B 1869   1.715   3.332   9.322  0.1073  0.0239 -0.1760
  117loPI   C2B 1870   1.361   3.390   9.067 -0.0436 -0.0410  0.0257
  117loPI   C3B 1871   1.160   3.715   8.848 -0.2573 -0.2120  0.2057
  117loPI   C4B 1872   1.197   3.747   8.407  0.0850 -0.0141  0.0718
  118loPI    C1 1873   4.456   2.957  10.819  0.3667  0.0277 -0.0626
  118loPI    C2 1874   4.270   3.264  10.994  0.1549  0.0064 -0.2465
  118loPI    C3 1875   4.366   2.940  11.208 -0.0430  0.0072 -0.1541
  118loPI   PO4 1876   4.300   2.875  10.545 -0.1874  0.1551 -0.0788
  118loPI   GL1 1877   4.262   2.943  10.094 -0.0145  0.0570 -0.0008
  118loPI   GL2 1878   4.024   2.756  10.161  0.3207 -0.2223  0.1942
  118loPI   C1A 1879   4.252   3.015   9.656  0.1111  0.0087  0.0431
  118loPI   C2A 1880   4.311   2.986   9.176 -0.0305  0.1856  0.1046
  118loPI   C3A 1881   4.402   2.959   8.735  0.0813  0.0609 -0.1032
  118loPI   C4A 1882   4.484   2.880   8.322 -0.0284 -0.0808 -0.4390
  118loPI   C5A 1883   4.466   2.856   7.924  0.2823 -0.0621  0.0183
  118loPI   C6A 1884   4.238   2.549   8.005 -0.0635 -0.4358 -0.1302
  118loPI   C1B 1885   3.800   2.738   9.792 -0.0353  0.2482  0.0933
  118loPI   C2B 1886   3.940   2.633   9.390  0.1687 -0.1480  0.1849
  118loPI   C3B 1887   3.923   2.612   8.964 -0.2563  0.1851  0.0341
  118loPI   C4B 1888   4.011   2.709   8.541 -0.0297 -0.1464 -0.0311
  119loPI    C1 1889   3.348   1.599  10.962  0.0344 -0.1398  0.1156
  119loPI    C2 1890   3.169   1.805  11.254  0.1100 -0.0339  0.0878
  119loPI    C3 1891   3.007   1.464  11.122 -0.1838  0.1654 -0.0785
  119loPI   PO4 1892   3.393   1.846  10.797 -0.2173 -0.1877  0.0169
  119loPI   GL1 1893   3.699   1.906  10.453  0.1124  0.1590 -0.3169
  119loPI   GL2 1894   4.013   1.877  10.482  0.0678  0.1410 -0.1185
  119loPI   C1A 1895   3.591   1.741  10.021  0.2867 -0.2578 -0.0844
  119loPI   C2A 1896   3.554   1.752   9.626  0.1311 -0.0924  0.1859
  119loPI   C3A 1897   3.590   1.709   9.208 -0.0564  0.2488 -0.0219
  119loPI   C4A 1898   3.657   1.807   8.803 -0.4651 -0.1148 -0.0262
  119loPI   C5A 1899   3.879   1.786   8.390 -0.1652 -0.1269  0.2528
  119loPI   C6A 1900   4.226   1.491   8.194  0.0327 -0.2879 -0.0724
  119loPI   C1B 1901   4.103   1.599  10.125  0.1174 -0.3130  0.0576
  119loPI   C2B 1902   4.124   1.571   9.686  0.1163  0.0049  0.2157
  119loPI   C3B 1903   4.075   1.552   9.212 -0.0810  0.1589 -0.1398
  119loPI   C4B 1904   4.225   1.563   8.769  0.4667  0.0196  0.1821
  120loPI    C1 1905   7.022   7.257  10.506 -0.0631 -0.0332  0.0119
  120loPI    C2 1906   7.307   7.241  10.786 -0.1160  0.0864  0.0732
  120loPI    C3 1907   6.961   7.427  10.862 -0.1474  0.0826 -0.0569
  120loPI   PO4 1908   6.945   7.071  10.476 -0.0054 -0.2605  0.3549
  120loPI   GL1 1909   6.991   6.757  10.229 -0.0402  0.2045 -0.1451
  120loPI   GL2 1910   6.753   6.522  10.133  0.2085 -0.2248  0.2625
  120loPI   C1A 1911   7.051   7.025   9.853 -0.1633  0.3296  0.1308
  120loPI   C2A 1912   7.166   6.886   9.456  0.1876 -0.0712 -0.1840
  120loPI   C3A 1913   7.416   6.840   9.190 -0.2100  0.2815  0.0725
  120loPI   C4A 1914   7.470   6.723   8.820 -0.1226 -0.1897 -0.2946
  120loPI   C5A 1915   7.477   6.702   8.404  0.1091  0.1408 -0.3595
  120loPI   C6A 1916   7.533   6.973   8.077  0.0465 -0.1117 -0.0425
  120loPI   C1B 1917   6.964   6.456   9.774  0.0872 -0.2694  0.1171
  120loPI   C2B 1918   6.975   6.437   9.387  0.1725  0.0463  0.1437
  120loPI   C3B 1919   7.009   6.575   8.971 -0.2807 -0.1943  0.0573
  120loPI   C4B 1920   7.130   6.411   8.610 -0.1279  0.0778  0.0162
  121loPI    C1 1921  15.212  17.196  11.376  0.0127 -0.0843  0.1920
  121loPI    C2 1922  15.600  17.159  11.464  0.0240  0.1273  0.2362
  121loPI    C3 1923  15.344  17.291  11.742 -0.0625  0.0881  0.1753
  121loPI   PO4 1924  15.262  17.181  11.043 -0.0662 -0.1150 -0.0911
  121loPI   GL1 1925  15.492  17.476  10.730  0.0621  0.1541 -0.0376
  121loPI   GL2 1926  15.275  17.766  10.740  0.1238 -0.2295  0.0356
  121loPI   C1A 1927  15.517  17.519  10.243 -0.0441 -0.1402  0.0110
  121loPI   C2A 1928  15.444  17.567   9.800  0.0104  0.1287  0.0148
  121loPI   C3A 1929  15.444  17.554   9.435  0.0170  0.1205  0.3298
  121loPI   C4A 1930  15.400  17.504   9.031  0.0514  0.0390  0.0325
  121loPI   C5A 1931  15.530  17.666   8.649 -0.0845 -0.2029 -0.0285
  121loPI   C6A 1932  15.717  17.918   8.417 -0.0516  0.0492  0.1882
  121loPI   C1B 1933  15.335  18.016  10.386  0.3971 -0.0604  0.0066
  121loPI   C2B 1934  15.299  18.023   9.953  0.2826  0.2142 -0.1739
  121loPI   C3B 1935  15.274  18.036   9.539  0.0026 -0.0080  0.1422
  121loPI   C4B 1936  15.417  18.061   9.085  0.1761 -0.1186  0.3184
  122loPI    C1 1937  10.406   6.396  10.504  0.0604 -0.0765  0.0575
  122loPI    C2 1938  10.511   6.691  10.753  0.0632  0.0442 -0.0850
  122loPI    C3 1939  10.788   6.511  10.528  0.1045 -0.2475  0.1922
  122loPI   PO4 1940  10.295   6.482  10.313  0.1565  0.2122 -0.1354
  122loPI   GL1 1941  10.035   6.482  10.019  0.0354  0.0014  0.1955
  122loPI   GL2 1942  10.400   6.645   9.868  0.0216  0.0218  0.0867
  122loPI   C1A 1943  10.147   6.391   9.552 -0.0506 -0.3011  0.1871
  122loPI   C2A 1944  10.096   6.281   9.114 -0.3168  0.0748 -0.0723
  122loPI   C3A 1945   9.802   6.268   8.839  0.0591  0.1616 -0.1681
  122loPI   C4A 1946   9.792   6.154   8.339 -0.1083 -0.1201 -0.1912
  122loPI   C5A 1947   9.791   6.178   7.915  0.1187  0.2619 -0.1050
  122loPI   C6A 1948   9.934   6.422   7.663  0.0270  0.1305  0.1764
  122loPI   C1B 1949  10.760   6.837   9.682  0.2450  0.0133 -0.2603
  122loPI   C2B 1950  10.824   6.957   9.285 -0.1867  0.0566 -0.2028
  122loPI   C3B 1951  10.756   6.732   8.965  0.0506  0.1757 -0.0124
  122loPI   C4B 1952  10.644   6.506   8.608 -0.2236 -0.1865 -0.0582
  123loPI    C1 1953   0.960   5.569  10.264 -0.0806  0.2419  0.0903
  123loPI    C2 1954   1.239   5.453  10.526  0.0195  0.1046 -0.0755
  123loPI    C3 1955   0.856   5.353  10.584  0.0439  0.0590  0.0084
  123loPI   PO4 1956   1.069   5.508   9.987  0.2051  0.1408 -0.0280
  123loPI   GL1 1957   1.077   5.610   9.529 -0.3496  0.0582 -0.2090
  123loPI   GL2 1958   1.132   5.916   9.620 -0.2138  0.1305 -0.0064
  123loPI   C1A 1959   1.090   5.561   9.110 -0.0975  0.3175 -0.2756
  123loPI   C2A 1960   1.062   5.578   8.704  0.3393  0.0909  0.2224
  123loPI   C3A 1961   1.129   5.720   8.396 -0.0429 -0.1339  0.2976
  123loPI   C4A 1962   1.241   5.842   8.007 -0.0128 -0.3513  0.1459
  123loPI   C5A 1963   1.012   6.030   7.700  0.0212  0.0758  0.0585
  123loPI   C6A 1964   0.695   6.152   7.531  0.0207  0.3467  0.0781
  123loPI   C1B 1965   1.459   5.970   9.275  0.0145  0.1847  0.0750
  123loPI   C2B 1966   1.433   5.938   8.826 -0.1809 -0.0176  0.1883
  123loPI   C3B 1967   1.586   5.922   8.439  0.1633  0.1177  0.2784
  123loPI   C4B 1968   1.764   5.905   8.035 -0.0008 -0.2409 -0.1766
  124loPI    C1 1969  11.055   1.979  10.897  0.0815 -0.1545 -0.0369
  124loPI    C2 1970  11.148   2.090  11.270 -0.0469 -0.1321 -0.0110
  124loPI    C3 1971  10.978   2.352  11.020  0.0078 -0.1571 -0.0749
  124loPI   PO4 1972  11.265   1.927  10.763 -0.3140 -0.1085  0.0311
  124loPI   GL1 1973  11.092   1.764  10.407 -0.1265 -0.1739  0.0294
  124loPI   GL2 1974  11.029   1.458  10.265 -0.0232 -0.4369 -0.1520
  124loPI   C1A 1975  11.452   1.643  10.135 -0.1560 -0.2662  0.0958
  124loPI   C2A 1976  11.498   1.656   9.717  0.1606 -0.0721 -0.0392
  124loPI   C3A 1977  11.584   1.631   9.192  0.3844 -0.0033 -0.2807
  124loPI   C4A 1978  11.713   1.628   8.812 -0.1147 -0.2608  0.1166
  124loPI   C5A 1979  11.853   1.925   8.400 -0.1508 -0.0057 -0.1010
  124loPI   C6A 1980  11.685   2.397   8.212  0.0618 -0.1529  0.2666
  124loPI   C1B 1981  11.051   1.449   9.862 -0.1413 -0.1719 -0.1084
  124loPI   C2B 1982  11.171   1.413   9.456  0.0859 -0.1037  0.0330
  124loPI   C3B 1983  11.307   1.228   9.006 -0.0532 -0.1091 -0.1951
  124loPI   C4B 1984  11.488   1.223   8.572  0.3238  0.2654  0.2708
  125loPI    C1 1985   2.122  15.046  11.160  0.0541  0.0496 -0.0169
  125loPI    C2 1986   2.374  15.083  11.468 -0.1432 -0.2813  0.1908
  125loPI    C3 1987   2.305  14.723  11.309  0.1101 -0.0906 -0.3781
  125loPI   PO4 1988   2.105  15.255  10.985 -0.2545  0.2010 -0.0598
  125loPI   GL1 1989   2.033  15.515  10.668  0.1081 -0.0756  0.4394
  125loPI   GL2 1990   1.753  15.473  10.702 -0.4511 -0.0337  0.2485
  125loPI   C1A 1991   1.923  15.563  10.262 -0.1044 -0.1333  0.3256
  125loPI   C2A 1992   1.706  15.619   9.976 -0.1976 -0.1314  0.0204
  125loPI   C3A 1993   1.776  15.529   9.571  0.0896 -0.3910 -0.0144
  125loPI   C4A 1994   1.865  15.447   9.109  0.0872  0.2234  0.2393
  125loPI   C5A 1995   1.598  15.299   8.774  0.0103 -0.0407 -0.0365
  125loPI   C6A 1996   1.515  15.131   8.317 -0.1127 -0.1417  0.0909
  125loPI   C1B 1997   1.463  15.489  10.381  0.1298 -0.0845 -0.1166
  125loPI   C2B 1998   1.222  15.637  10.061  0.0995 -0.1564  0.1023
  125loPI   C3B 1999   1.318  15.665   9.679  0.4350 -0.1254 -0.0140
  125loPI   C4B 2000   1.260  15.643   9.301 -0.4163  0.0953 -0.2081
  126loPI    C1 2001  12.506  16.263  11.055 -0.1349  0.0163  0.0529
  126loPI    C2 2002  12.707  16.543  11.257  0.0788  0.0029 -0.1367
  126loPI    C3 2003  12.641  16.186  11.423 -0.0575  0.1106  0.0447
  126loPI   PO4 2004  12.564  16.307  10.802 -0.0365  0.2597  0.0142
  126loPI   GL1 2005  12.756  16.284  10.478  0.1371 -0.1378  0.1150
  126loPI   GL2 2006  12.579  16.031  10.264  0.0038 -0.1072 -0.1697
  126loPI   C1A 2007  12.877  16.485  10.179  0.0030 -0.2472  0.2176
  126loPI   C2A 2008  12.894  16.421   9.841 -0.2330  0.2915 -0.1404
  126loPI   C3A 2009  12.913  16.402   9.483  0.3798 -0.0661  0.1120
  126loPI   C4A 2010  12.903  16.504   9.060  0.0149  0.1390 -0.0517
  126loPI   C5A 2011  12.962  16.328   8.707 -0.0226  0.3553  0.1338
  126loPI   C6A 2012  13.149  16.036   8.517 -0.0391 -0.2321 -0.1224
  126loPI   C1B 2013  12.547  16.075   9.919 -0.1748 -0.3391  0.4682
  126loPI   C2B 2014  12.529  16.053   9.522  0.1438 -0.0054  0.0141
  126loPI   C3B 2015  12.480  16.134   9.170  0.0399 -0.0655 -0.0641
  126loPI   C4B 2016  12.477  16.213   8.763  0.2893  0.0219  0.0489
  127loPI    C1 2017  14.463  10.997  10.606 -0.1767 -0.0405  0.1594
  127loPI    C2 2018  14.585  10.617  10.632 -0.0403 -0.0029  0.0742
  127loPI    C3 2019  14.791  10.906  10.816  0.0485  0.0712 -0.1384
  127loPI   PO4 2020  14.375  11.014  10.291 -0.0127  0.0894  0.1145
  127loPI   GL1 2021  14.154  11.231  10.017  0.2037  0.1178 -0.0744
  127loPI   GL2 2022  14.475  11.383   9.985  0.6074  0.1868  0.0529
  127loPI   C1A 2023  13.862  11.245   9.798 -0.0966  0.1497 -0.2533
  127loPI   C2A 2024  13.796  11.394   9.353 -0.1621 -0.2356  0.0763
  127loPI   C3A 2025  13.794  11.402   8.894  0.3581  0.2671  0.1131
  127loPI   C4A 2026  13.651  11.588   8.549 -0.1309 -0.1835 -0.1812
  127loPI   C5A 2027  13.737  11.548   8.169 -0.0316 -0.1393  0.5029
  127loPI   C6A 2028  13.989  11.641   7.810 -0.1645  0.3299 -0.0621
  127loPI   C1B 2029  14.308  11.393   9.536  0.1754  0.0839  0.0446
  127loPI   C2B 2030  14.288  11.328   9.120  0.1083  0.1123 -0.0177
  127loPI   C3B 2031  14.284  11.416   8.692 -0.1495  0.1619 -0.1054
  127loPI   C4B 2032  14.203  11.493   8.382 -0.0216  0.0221  0.2266
  128loPI    C1 2033   7.629  16.622  11.076 -0.1904  0.3254  0.1073
  128loPI    C2 2034   7.414  16.298  11.170 -0.1322  0.2440 -0.0373
  128loPI    C3 2035   7.492  16.574  11.449 -0.2399  0.1676  0.0695
  128loPI   PO4 2036   7.643  16.539  10.720  0.0218 -0.0977 -0.0397
  128loPI   GL1 2037   7.592  16.450  10.293  0.2626  0.0141 -0.0064
  128loPI   GL2 2038   7.381  16.306  10.351  0.1696 -0.2161  0.0552
  128loPI   C1A 2039   7.870  16.572   9.958 -0.0931 -0.1027  0.2180
  128loPI   C2A 2040   8.038  16.677   9.626  0.1146  0.2297 -0.0877
  128loPI   C3A 2041   8.108  16.853   9.229 -0.2795  0.1827  0.0691
  128loPI   C4A 2042   8.185  16.963   8.800 -0.1810 -0.2193 -0.0372
  128loPI   C5A 2043   7.855  17.168   8.445 -0.2216 -0.0167 -0.1855
  128loPI   C6A 2044   7.405  16.896   8.357  0.0976 -0.0996 -0.3746
  128loPI   C1B 2045   7.136  16.215  10.035 -0.0274 -0.2570  0.1878
  128loPI   C2B 2046   7.200  16.180   9.573  0.1925  0.1497 -0.0187
  128loPI   C3B 2047   7.238  16.277   9.168 -0.5003 -0.4833 -0.1305
  128loPI   C4B 2048   7.251  16.228   8.734  0.2079  0.2937  0.1554
  129loPI    C1 2049   7.626   0.362  11.140  0.0753  0.4068 -0.0557
  129loPI    C2 2050   7.343   0.281  10.870  0.2411 -0.1903 -0.0660
  129loPI    C3 2051   7.253   0.282  11.259  0.0495  0.4604 -0.0999
  129loPI   PO4 2052   7.692   0.647  11.057 -0.2423  0.3112 -0.3222
  129loPI   GL1 2053   7.473   0.771  10.744  0.1014  0.2821 -0.1052
  129loPI   GL2 2054   7.174   0.647  10.583 -0.1595  0.1356 -0.1302
  129loPI   C1A 2055   7.585   1.045  10.373 -0.3265  0.0170 -0.0671
  129loPI   C2A 2056   7.663   0.969   9.978  0.0163 -0.0333 -0.1210
  129loPI   C3A 2057   7.506   1.039   9.556  0.0302 -0.1642  0.1626
  129loPI   C4A 2058   7.469   1.107   9.120  0.1621  0.0129 -0.0051
  129loPI   C5A 2059   7.477   1.205   8.744 -0.1037  0.2146 -0.1517
  129loPI   C6A 2060   7.844   1.050   8.440  0.2462  0.1010  0.0821
  129loPI   C1B 2061   7.146   0.490  10.089 -0.0870 -0.0598 -0.0590
  129loPI   C2B 2062   7.122   0.516   9.687 -0.1742  0.0158  0.2963
  129loPI   C3B 2063   7.190   0.700   9.290  0.0024 -0.3246  0.0147
  129loPI   C4B 2064   7.187   0.637   8.849 -0.2513  0.0907  0.0357
  130loPI    C1 2065  11.333   8.187  10.745  0.0118 -0.1160  0.0255
  130loPI    C2 2066  11.715   8.093  10.821 -0.0079 -0.0297  0.2393
  130loPI    C3 2067  11.591   8.471  10.858 -0.1006 -0.0466  0.1103
  130loPI   PO4 2068  11.242   8.131  10.523 -0.0006  0.1376  0.0839
  130loPI   GL1 2069  11.332   8.065  10.129 -0.0355  0.1082  0.0831
  130loPI   GL2 2070  10.963   7.912  10.055  0.1433 -0.0027 -0.2088
  130loPI   C1A 2071  11.410   7.957   9.783  0.1249 -0.1631 -0.0365
  130loPI   C2A 2072  11.417   8.065   9.352  0.1354 -0.2615 -0.2089
  130loPI   C3A 2073  11.287   8.298   8.939  0.4436 -0.1416 -0.2217
  130loPI   C4A 2074  11.217   7.966   8.698  0.0810 -0.0488  0.0604
  130loPI   C5A 2075  10.865   7.924   8.329 -0.1915  0.2594 -0.3830
  130loPI   C6A 2076  10.533   8.098   8.051  0.1039 -0.3036 -0.1596
  130loPI   C1B 2077  10.814   8.144   9.675  0.1135  0.0791  0.0732
  130loPI   C2B 2078  10.852   8.094   9.268 -0.1568  0.0013 -0.0482
  130loPI   C3B 2079  10.735   8.068   8.815 -0.1573  0.5139  0.2101
  130loPI   C4B 2080  10.578   8.357   8.474 -0.1151  0.0912  0.3236
  131loPI    C1 2081   6.036   9.307  10.601 -0.0881  0.2070 -0.1431
  131loPI    C2 2082   6.331   9.550  10.717 -0.2441  0.3796 -0.1023
  131loPI    C3 2083   6.272   9.203  10.906 -0.0193  0.3075 -0.1615
  131loPI   PO4 2084   6.105   9.383  10.240  0.1106 -0.1653 -0.1770
  131loPI   GL1 2085   6.040   9.241   9.956  0.3651  0.0261  0.1960
  131loPI   GL2 2086   5.923   8.879   9.821  0.1926 -0.2589 -0.0314
  131loPI   C1A 2087   5.769   9.249   9.498 -0.3401  0.0576  0.0231
  131loPI   C2A 2088   5.876   9.232   9.034  0.0137 -0.1313 -0.0008
  131loPI   C3A 2089   5.856   9.173   8.656 -0.2199  0.1777 -0.2108
  131loPI   C4A 2090   5.516   9.270   8.272  0.1360 -0.0828  0.3855
  131loPI   C5A 2091   5.116   9.347   8.160  0.1367  0.2270  0.1109
  131loPI   C6A 2092   4.800   9.712   8.025 -0.1442  0.1589  0.1588
  131loPI   C1B 2093   5.954   8.762   9.400 -0.1059 -0.2530  0.1452
  131loPI   C2B 2094   5.911   8.694   8.906  0.3367 -0.1234  0.1695
  131loPI   C3B 2095   5.867   8.572   8.504 -0.2491  0.0340  0.2024
  131loPI   C4B 2096   5.647   8.811   8.129 -0.0259  0.0812  0.1697
  132loPI    C1 2097  14.773   1.032  10.923  0.1009 -0.1062  0.2070
  132loPI    C2 2098  14.621   0.832  11.234  0.1577 -0.1288  0.2204
  132loPI    C3 2099  14.745   1.210  11.281 -0.1314 -0.0219  0.1489
  132loPI   PO4 2100  14.980   0.815  10.809  0.0406  0.2301 -0.0218
  132loPI   GL1 2101  15.187   0.515  10.443 -0.0946 -0.0040 -0.0940
  132loPI   GL2 2102  15.357   0.845  10.470  0.1943  0.2759 -0.2513
  132loPI   C1A 2103  15.040   0.623  10.006 -0.2418 -0.2414 -0.0074
  132loPI   C2A 2104  15.077   0.620   9.638  0.0977 -0.0121  0.1411
  132loPI   C3A 2105  15.139   0.461   9.264  0.0365  0.0078 -0.1296
  132loPI   C4A 2106  15.188   0.463   8.854 -0.1712 -0.1583  0.2285
  132loPI   C5A 2107  15.468   0.336   8.638  0.1995  0.3375  0.2371
  132loPI   C6A 2108  15.855   0.436   8.438  0.0862  0.0949 -0.1355
  132loPI   C1B 2109  15.506   0.900  10.011 -0.1001  0.0800 -0.1109
  132loPI   C2B 2110  15.505   0.896   9.552  0.2428  0.0016 -0.0346
  132loPI   C3B 2111  15.579   1.012   9.172 -0.0115  0.0820 -0.2257
  132loPI   C4B 2112  15.659   0.969   8.749  0.0300  0.5254  0.2768
  133loPI    C1 2113   2.690   8.684   9.974  0.1340 -0.0264  0.1653
  133loPI    C2 2114   2.530   9.024  10.110  0.1178 -0.0588  0.2278
  133loPI    C3 2115   2.926   8.994  10.063  0.1279 -0.0642  0.3155
  133loPI   PO4 2116   2.482   8.603   9.803 -0.0079 -0.1015 -0.2052
  133loPI   GL1 2117   2.262   8.708   9.445 -0.0173  0.1765 -0.0060
  133loPI   GL2 2118   1.994   8.536   9.413 -0.1781 -0.0488  0.0771
  133loPI   C1A 2119   2.344   8.657   9.012 -0.1285  0.0419  0.1852
  133loPI   C2A 2120   2.284   8.604   8.603 -0.1292  0.0944 -0.3261
  133loPI   C3A 2121   2.120   8.478   8.128 -0.0932 -0.4844 -0.3465
  133loPI   C4A 2122   1.927   8.521   7.715  0.1399  0.4963  0.1091
  133loPI   C5A 2123   1.379   8.546   7.611  0.1954  0.2728  0.0874
  133loPI   C6A 2124   0.906   8.724   7.527  0.1441 -0.1123  0.0661
  133loPI   C1B 2125   1.777   8.488   8.979  0.0812  0.1118  0.2524
  133loPI   C2B 2126   1.790   8.545   8.530  0.0591  0.0844  0.1127
  133loPI   C3B 2127   1.591   8.651   8.099 -0.2478  0.1006  0.0710
  133loPI   C4B 2128   1.674   8.987   7.775  0.0120 -0.1737  0.0490
  134loPI    C1 2129   6.337   4.632  10.566 -0.2649 -0.4733  0.1182
  134loPI    C2 2130   6.707   4.591  10.712 -0.1578 -0.0868 -0.0320
  134loPI    C3 2131   6.397   4.633  10.962 -0.0250  0.1815  0.0920
  134loPI   PO4 2132   6.268   4.432  10.344  0.1856  0.2610  0.2817
  134loPI   GL1 2133   6.357   4.438  10.052 -0.1678  0.0885  0.0439
  134loPI   GL2 2134   6.337   4.693   9.921  0.1441  0.0600 -0.2077
  134loPI   C1A 2135   6.404   4.209   9.630 -0.0858  0.3086 -0.3453
  134loPI   C2A 2136   6.520   4.254   9.247  0.2793  0.1851 -0.3770
  134loPI   C3A 2137   6.403   4.189   8.849  0.0247  0.0499 -0.1159
  134loPI   C4A 2138   6.538   4.092   8.489 -0.0931 -0.3615  0.0767
  134loPI   C5A 2139   6.435   3.975   8.145 -0.0339 -0.0122 -0.0721
  134loPI   C6A 2140   6.097   4.125   7.957 -0.2060  0.2887  0.0742
  134loPI   C1B 2141   6.345   4.729   9.486  0.0631  0.3334  0.0331
  134loPI   C2B 2142   6.364   4.670   9.091  0.0739  0.0549 -0.0095
  134loPI   C3B 2143   6.367   4.619   8.649 -0.0867  0.0332  0.0559
  134loPI   C4B 2144   6.375   4.580   8.300 -0.0584  0.0131 -0.2482
  135loPI    C1 2145   1.116   8.263   9.845 -0.1209 -0.0559 -0.0786
  135loPI    C2 2146   0.928   8.574   9.677  0.0387  0.1229  0.0703
  135loPI    C3 2147   1.089   8.610  10.042  0.1076 -0.1177  0.0653
  135loPI   PO4 2148   0.964   8.011   9.785  0.0438  0.0424  0.1851
  135loPI   GL1 2149   0.606   7.842   9.680  0.0070  0.0435 -0.0449
  135loPI   GL2 2150   0.368   7.669   9.462  0.2053  0.1409 -0.2284
  135loPI   C1A 2151   0.800   7.597   9.199 -0.3347 -0.3630  0.1775
  135loPI   C2A 2152   0.770   7.617   8.777  0.0088 -0.1261  0.2840
  135loPI   C3A 2153   0.813   7.652   8.357  0.0114  0.0393  0.1384
  135loPI   C4A 2154   0.465   7.900   8.086 -0.1359 -0.1857  0.2125
  135loPI   C5A 2155   0.280   7.955   7.666  0.2259  0.2102  0.1119
  135loPI   C6A 2156  -0.146   7.819   7.486 -0.1535  0.0346 -0.2617
  135loPI   C1B 2157   0.327   7.640   9.050  0.1340 -0.4059  0.4256
  135loPI   C2B 2158   0.337   7.698   8.537  0.0748  0.0094 -0.1170
  135loPI   C3B 2159   0.326   7.437   8.143  0.0954  0.0010  0.1804
  135loPI   C4B 2160   0.101   7.401   7.715 -0.1265 -0.0030 -0.0416
  136loPI    C1 2161  11.974  15.172  11.212  0.1062 -0.0673 -0.2422
  136loPI    C2 2162  11.673  15.421  11.127  0.0428 -0.1633 -0.3015
  136loPI    C3 2163  11.968  15.539  11.371  0.0092 -0.0336 -0.3227
  136loPI   PO4 2164  11.906  14.905  11.047  0.1469  0.1837  0.1507
  136loPI   GL1 2165  11.865  14.790  10.565  0.0183 -0.3504 -0.2706
  136loPI   GL2 2166  12.070  14.513  10.306  0.2908 -0.4504 -0.3645
  136loPI   C1A 2167  11.957  14.967  10.280 -0.1855  0.0380  0.0707
  136loPI   C2A 2168  12.209  15.085  10.063  0.0819 -0.3650 -0.0016
  136loPI   C3A 2169  12.114  15.143   9.684 -0.0466 -0.0236  0.1524
  136loPI   C4A 2170  12.246  15.167   9.357 -0.1665 -0.0783 -0.0333
  136loPI   C5A 2171  12.273  15.238   8.925 -0.1220  0.1607 -0.2655
  136loPI   C6A 2172  12.086  15.405   8.393 -0.0345  0.2071  0.1968
  136loPI   C1B 2173  12.051  14.574   9.907  0.3202  0.0132 -0.0829
  136loPI   C2B 2174  12.052  14.738   9.399  0.1034 -0.2053  0.0915
  136loPI   C3B 2175  11.899  14.841   9.023 -0.0540  0.3436 -0.1767
  136loPI   C4B 2176  11.865  14.846   8.578  0.3992 -0.2565 -0.3009
  137loPI    C1 2177   3.209   1.112  10.825  0.2142  0.2716  0.2092
  137loPI    C2 2178   2.961   0.937  11.086  0.1252  0.3105  0.1507
  137loPI    C3 2179   3.337   1.022  11.194  0.0963  0.3034  0.2582
  137loPI   PO4 2180   3.163   1.000  10.641  0.0229  0.2168  0.2250
  137loPI   GL1 2181   3.319   0.915  10.300 -0.1258 -0.2711 -0.0779
  137loPI   GL2 2182   3.586   0.688  10.399 -0.0198 -0.0596  0.0799
  137loPI   C1A 2183   3.300   0.947   9.861 -0.1361 -0.0816  0.3402
  137loPI   C2A 2184   3.330   0.857   9.454 -0.2372  0.2961 -0.1301
  137loPI   C3A 2185   3.342   0.882   8.930 -0.0467 -0.2573 -0.0978
  137loPI   C4A 2186   3.376   0.830   8.525  0.0521  0.0225 -0.1180
  137loPI   C5A 2187   3.637   0.718   8.275 -0.2135  0.4434  0.2163
  137loPI   C6A 2188   4.133   0.832   8.146 -0.0110 -0.2924  0.1522
  137loPI   C1B 2189   3.825   0.820  10.020  0.0168 -0.0259 -0.1156
  137loPI   C2B 2190   3.790   0.766   9.688 -0.1492  0.0984  0.1383
  137loPI   C3B 2191   3.795   0.729   9.223  0.0566  0.0317  0.1052
  137loPI   C4B 2192   3.814   0.727   8.773 -0.3139 -0.0286 -0.0255
  138loPI    C1 2193   3.028  15.599  10.904  0.3328  0.0255  0.0007
  138loPI    C2 2194   3.100  15.663  11.292 -0.0711 -0.0618  0.0948
  138loPI    C3 2195   3.231  15.328  11.117  0.1383 -0.0082  0.1460
  138loPI   PO4 2196   3.072  15.845  10.820 -0.0937  0.3593  0.0056
  138loPI   GL1 2197   2.981  15.982  10.459 -0.0845 -0.0353 -0.1141
  138loPI   GL2 2198   2.702  16.131  10.629 -0.1734  0.2291 -0.2145
  138loPI   C1A 2199   3.041  15.988   9.994 -0.2372 -0.1391 -0.0854
  138loPI   C2A 2200   2.991  16.123   9.553  0.0418 -0.2612  0.2368
  138loPI   C3A 2201   2.976  16.139   9.081 -0.0346 -0.3677 -0.0039
  138loPI   C4A 2202   2.789  16.232   8.642  0.0792  0.3142  0.0230
  138loPI   C5A 2203   2.902  16.324   8.306 -0.1282  0.1245  0.1309
  138loPI   C6A 2204   3.172  16.437   7.963 -0.1092  0.3249  0.0170
  138loPI   C1B 2205   2.298  15.966  10.389  0.0876 -0.1086  0.2050
  138loPI   C2B 2206   2.156  15.882   9.941  0.2883 -0.1673  0.1848
  138loPI   C3B 2207   2.132  15.819   9.499  0.2416  0.0330 -0.1862
  138loPI   C4B 2208   2.098  15.902   9.073 -0.0644 -0.0865 -0.1389
  139loPI    C1 2209  17.910  14.986  11.284 -0.0328  0.1366 -0.1605
  139loPI    C2 2210  17.780  15.063  11.654 -0.1915  0.1163 -0.2112
  139loPI    C3 2211  17.803  14.685  11.525  0.3203  0.0870 -0.0591
  139loPI   PO4 2212  17.739  15.165  11.088 -0.0720  0.1120 -0.3137
  139loPI   GL1 2213  17.840  15.315  10.666 -0.0165 -0.0671 -0.0125
  139loPI   GL2 2214  17.878  15.545  10.558  0.1255 -0.2158 -0.0461
  139loPI   C1A 2215  17.959  15.139  10.313  0.1324  0.1090 -0.1525
  139loPI   C2A 2216  17.944  15.098   9.871  0.1075  0.1374 -0.1714
  139loPI   C3A 2217  17.979  14.913   9.485  0.0740 -0.2441 -0.2070
  139loPI   C4A 2218  17.910  15.053   9.002  0.1949 -0.2078 -0.1149
  139loPI   C5A 2219  17.986  15.094   8.614  0.1035 -0.1696  0.3143
  139loPI   C6A 2220  18.145  15.364   8.306 -0.1768 -0.0122  0.0714
  139loPI   C1B 2221  18.033  15.591  10.162  0.1671 -0.0780  0.0104
  139loPI   C2B 2222  17.958  15.628   9.680 -0.3140 -0.2596 -0.1257
  139loPI   C3B 2223  17.818  15.465   9.257  0.1067 -0.1825  0.1122
  139loPI   C4B 2224  17.769  15.528   8.818 -0.2500  0.2644 -0.2123
  140loPI    C1 2225  12.863  10.552  10.697  0.0912  0.0521  0.0107
  140loPI    C2 2226  12.554  10.649  10.931  0.0924 -0.0496  0.0554
  140loPI    C3 2227  12.830  10.391  11.062  0.1074 -0.0864 -0.0483
  140loPI   PO4 2228  12.680  10.630  10.435 -0.0347  0.1006  0.0133
  140loPI   GL1 2229  12.607  10.517   9.986  0.0459 -0.0448 -0.2185
  140loPI   GL2 2230  12.978  10.640   9.893 -0.1053 -0.1114  0.1405
  140loPI   C1A 2231  12.522  10.750   9.645  0.1153 -0.0835  0.0000
  140loPI   C2A 2232  12.465  10.903   9.140  0.1243  0.0803 -0.3624
  140loPI   C3A 2233  12.441  10.868   8.743 -0.2083  0.2893  0.1768
  140loPI   C4A 2234  12.307  10.976   8.324  0.0504 -0.0943  0.0550
  140loPI   C5A 2235  12.461  11.267   8.132 -0.0259 -0.1351  0.0189
  140loPI   C6A 2236  12.371  11.486   7.780 -0.1037 -0.5674 -0.0679
  140loPI   C1B 2237  13.152  10.815   9.554 -0.1567  0.1354  0.1438
  140loPI   C2B 2238  13.105  10.810   9.069 -0.1642  0.0361  0.2263
  140loPI   C3B 2239  12.981  10.806   8.630 -0.2241 -0.3455 -0.1575
  140loPI   C4B 2240  12.826  10.938   8.207  0.0587  0.0294 -0.1020
  141loPI    C1 2241   3.081   4.613  10.698 -0.1505 -0.1282 -0.1630
  141loPI    C2 2242   2.707   4.756  10.692 -0.1110 -0.0241 -0.1700
  141loPI    C3 2243   2.960   4.867  10.982 -0.1396 -0.2354 -0.0616
  141loPI   PO4 2244   3.381   4.714  10.484  0.0201 -0.1433 -0.0259
  141loPI   GL1 2245   3.571   4.702  10.101  0.1267  0.2068  0.1342
  141loPI   GL2 2246   3.464   4.817   9.879 -0.2155  0.1825  0.1355
  141loPI   C1A 2247   3.852   4.468   9.869 -0.2049 -0.2658  0.3867
  141loPI   C2A 2248   4.005   4.595   9.539  0.1331  0.3038 -0.0516
  141loPI   C3A 2249   4.044   4.503   9.078  0.2831  0.2356  0.0246
  141loPI   C4A 2250   4.149   4.380   8.609 -0.2437 -0.0883 -0.1123
  141loPI   C5A 2251   4.068   4.442   8.180 -0.1082 -0.2413 -0.4967
  141loPI   C6A 2252   4.018   4.556   7.771 -0.0117 -0.1328  0.1580
  141loPI   C1B 2253   3.452   4.689   9.500  0.1493 -0.0178  0.0392
  141loPI   C2B 2254   3.626   4.721   9.173  0.0859 -0.1800  0.1941
  141loPI   C3B 2255   3.621   4.605   8.645 -0.0009 -0.1171 -0.1612
  141loPI   C4B 2256   3.594   4.748   8.249  0.1439  0.1613  0.1079
  142loPI    C1 2257   0.252   6.132  10.226 -0.0910  0.0136 -0.1281
  142loPI    C2 2258   0.039   5.849  10.413  0.1287 -0.1377 -0.1025
  142loPI    C3 2259  -0.079   6.232  10.428  0.0061 -0.1829  0.1334
  142loPI   PO4 2260   0.293   6.026   9.970  0.0439 -0.0968 -0.4861
  142loPI   GL1 2261   0.547   5.829   9.644 -0.0135  0.2451  0.0532
  142loPI   GL2 2262   0.649   5.544   9.719  0.3961 -0.1170  0.3676
  142loPI   C1A 2263   0.647   5.707   9.278 -0.3506 -0.1179 -0.3103
  142loPI   C2A 2264   0.587   5.668   8.821 -0.0630 -0.2407  0.0545
  142loPI   C3A 2265   0.646   5.518   8.433  0.1818  0.0527  0.0444
  142loPI   C4A 2266   0.808   5.456   8.058  0.0564  0.0544 -0.0074
  142loPI   C5A 2267   0.929   5.535   7.673 -0.2429 -0.0459  0.0996
  142loPI   C6A 2268   1.090   5.654   7.279  0.2647  0.0424 -0.0568
  142loPI   C1B 2269   0.764   5.236   9.426  0.2137  0.1363  0.3269
  142loPI   C2B 2270   0.802   5.147   9.029  0.0880 -0.2261  0.1482
  142loPI   C3B 2271   0.918   5.020   8.623  0.1329  0.2290  0.0730
  142loPI   C4B 2272   0.988   4.846   8.191 -0.0835 -0.0555 -0.1929
  143loPI    C1 2273  16.774   0.955  10.970  0.0839 -0.1420  0.0215
  143loPI    C2 2274  16.917   1.179  11.268  0.1366 -0.1286 -0.0138
  143loPI    C3 2275  16.532   1.206  11.165  0.0634 -0.3018  0.2047
  143loPI   PO4 2276  16.861   1.023  10.791  0.1158 -0.1186  0.1040
  143loPI   GL1 2277  17.078   0.997  10.477  0.2662 -0.2697  0.3452
  143loPI   GL2 2278  17.192   0.597  10.345  0.2463  0.1222  0.1153
  143loPI   C1A 2279  16.861   1.019  10.072  0.1516 -0.0216 -0.0967
  143loPI   C2A 2280  16.862   1.058   9.582  0.0044 -0.2098 -0.2300
  143loPI   C3A 2281  16.926   1.054   9.163 -0.1565  0.0960 -0.1003
  143loPI   C4A 2282  17.063   1.007   8.717 -0.0587 -0.0571  0.0954
  143loPI   C5A 2283  17.233   0.824   8.437  0.2985 -0.1076 -0.4889
  143loPI   C6A 2284  17.194   0.457   8.102  0.0324  0.0218  0.2294
  143loPI   C1B 2285  16.994   0.552  10.002 -0.0456  0.2796 -0.1681
  143loPI   C2B 2286  16.999   0.501   9.579  0.2339  0.2131  0.0970
  143loPI   C3B 2287  17.073   0.557   9.219 -0.2288 -0.2361  0.1053
  143loPI   C4B 2288  17.149   0.529   8.832 -0.3782  0.0421 -0.2187
  144loPI    C1 2289   9.298  11.353  10.784 -0.1661  0.0034  0.1767
  144loPI    C2 2290   9.259  11.037  11.025  0.1323 -0.1328  0.0517
  144loPI    C3 2291   9.239  11.407  11.175 -0.1177 -0.2101  0.2144
  144loPI   PO4 2292   9.444  11.255  10.605  0.0275 -0.3686 -0.0504
  144loPI   GL1 2293   9.543  11.368  10.196 -0.2605  0.1876 -0.0048
  144loPI   GL2 2294   9.372  11.562  10.019 -0.5125 -0.0746  0.1264
  144loPI   C1A 2295   9.675  11.218   9.843 -0.1249  0.1853 -0.2415
  144loPI   C2A 2296   9.616  11.195   9.459  0.1755  0.0649  0.0591
  144loPI   C3A 2297   9.686  11.116   9.005  0.0990  0.1178 -0.0286
  144loPI   C4A 2298   9.796  11.270   8.660  0.2198 -0.1889 -0.0177
  144loPI   C5A 2299   9.896  11.257   8.337  0.3292 -0.3897  0.1316
  144loPI   C6A 2300  10.206  11.329   8.080 -0.0165  0.0867 -0.1833
  144loPI   C1B 2301   9.200  11.373   9.628 -0.2876 -0.0731 -0.1705
  144loPI   C2B 2302   9.089  11.400   9.295 -0.0276 -0.1275  0.0173
  144loPI   C3B 2303   9.331  11.441   8.845 -0.0529  0.0269 -0.2832
  144loPI   C4B 2304   9.394  11.336   8.456  0.1430  0.2918 -0.0454
  145loPI    C1 2305   9.992  17.399  11.450  0.0216  0.0438  0.2204
  145loPI    C2 2306   9.752  17.719  11.431 -0.1464 -0.0931 -0.0188
  145loPI    C3 2307   9.965  17.648  11.762  0.0194  0.3548 -0.0232
  145loPI   PO4 2308  10.081  17.361  11.174 -0.3375 -0.0500  0.0388
  145loPI   GL1 2309  10.363  17.341  10.756 -0.1344 -0.1416  0.3422
  145loPI   GL2 2310  10.099  17.267  10.633  0.1129  0.1226  0.0704
  145loPI   C1A 2311  10.571  17.212  10.340  0.0063  0.3142 -0.0674
  145loPI   C2A 2312  10.436  17.241   9.898  0.2419  0.0753 -0.1709
  145loPI   C3A 2313  10.377  17.196   9.469 -0.1567 -0.0530 -0.4045
  145loPI   C4A 2314  10.376  17.141   8.971  0.1380 -0.0789  0.2085
  145loPI   C5A 2315  10.180  16.980   8.622  0.1047 -0.1684 -0.1496
  145loPI   C6A 2316   9.790  16.836   8.403 -0.1556 -0.0940  0.1246
  145loPI   C1B 2317  10.061  17.325  10.223  0.2304  0.0630  0.0896
  145loPI   C2B 2318   9.932  17.491   9.856  0.0635  0.0078  0.1818
  145loPI   C3B 2319   9.895  17.375   9.383 -0.0140  0.0625 -0.0525
  145loPI   C4B 2320   9.932  17.357   8.929  0.2291 -0.0918 -0.0050
  146loPI    C1 2321  15.782  13.281  11.043  0.1181 -0.0884 -0.0657
  146loPI    C2 2322  15.860  13.663  10.954  0.0461 -0.0912 -0.1412
  146loPI    C3 2323  16.139  13.438  11.130  0.0354  0.0397  0.0457
  146loPI   PO4 2324  15.689  13.178  10.807  0.1501 -0.1187  0.1313
  146loPI   GL1 2325  15.602  13.151  10.354  0.0725 -0.0719 -0.0937
  146loPI   GL2 2326  15.362  13.335  10.353 -0.0986 -0.1395  0.1984
  146loPI   C1A 2327  15.575  12.903   9.994 -0.0009  0.2814 -0.1942
  146loPI   C2A 2328  15.709  12.865   9.592  0.0350  0.1968 -0.0110
  146loPI   C3A 2329  15.810  12.824   9.198  0.0627  0.2248 -0.1370
  146loPI   C4A 2330  15.698  12.868   8.783 -0.1160  0.2166 -0.0547
  146loPI   C5A 2331  15.854  12.805   8.328 -0.0581 -0.0674 -0.2405
  146loPI   C6A 2332  16.033  12.578   8.071 -0.0518  0.1575  0.0995
  146loPI   C1B 2333  15.434  13.302   9.845 -0.1243 -0.1095  0.3466
  146loPI   C2B 2334  15.486  13.314   9.401  0.2090  0.0679  0.1812
  146loPI   C3B 2335  15.516  13.357   9.061  0.3221 -0.1330 -0.0705
  146loPI   C4B 2336  15.509  13.423   8.697  0.2277  0.4012 -0.0376
  147loPI    C1 2337  17.236  13.287  10.818 -0.0178 -0.0065  0.0421
  147loPI    C2 2338  17.264  13.188  11.204 -0.0084 -0.1242  0.0115
  147loPI    C3 2339  17.526  13.444  11.045  0.1467 -0.2745  0.0223
  147loPI   PO4 2340  17.103  13.085  10.682  0.0268  0.0606 -0.1159
  147loPI   GL1 2341  17.030  12.913  10.360  0.1226  0.1180  0.0007
  147loPI   GL2 2342  16.929  12.644  10.360 -0.3901 -0.0112 -0.1327
  147loPI   C1A 2343  16.977  13.193  10.042 -0.0589  0.1116 -0.1156
  147loPI   C2A 2344  17.115  13.319   9.652 -0.1467  0.1448 -0.2897
  147loPI   C3A 2345  16.986  13.296   9.317 -0.3150  0.1810 -0.1575
  147loPI   C4A 2346  16.876  13.349   8.899  0.1493 -0.2607  0.0053
  147loPI   C5A 2347  16.758  13.394   8.470 -0.0560  0.0465 -0.1391
  147loPI   C6A 2348  16.903  13.638   8.195  0.1228 -0.3503 -0.2385
  147loPI   C1B 2349  16.618  12.871  10.019 -0.1596  0.2568  0.2230
  147loPI   C2B 2350  16.703  12.960   9.635  0.1506 -0.2997  0.2072
  147loPI   C3B 2351  16.584  13.049   9.163 -0.3964  0.1320 -0.0996
  147loPI   C4B 2352  16.462  13.098   8.780 -0.0939  0.0572  0.1290
  148loPI    C1 2353  12.284  12.587  10.922 -0.2612  0.0009 -0.1227
  148loPI    C2 2354  12.056  12.853  11.115 -0.1770 -0.0295  0.0202
  148loPI    C3 2355  12.442  12.813  11.211 -0.1024  0.0434 -0.2419
  148loPI   PO4 2356  12.215  12.614  10.676 -0.0047 -0.0418 -0.0203
  148loPI   GL1 2357  12.358  12.821  10.326 -0.2515  0.0268  0.0757
  148loPI   GL2 2358  12.546  13.143  10.340  0.1157  0.1784 -0.2664
  148loPI   C1A 2359  12.228  13.047   9.895  0.0124 -0.1137 -0.0198
  148loPI   C2A 2360  12.373  13.184   9.520  0.0021  0.2111 -0.0033
  148loPI   C3A 2361  12.252  13.421   9.157  0.1964  0.4040 -0.1644
  148loPI   C4A 2362  12.122  13.347   8.699 -0.2689  0.2226 -0.2269
  148loPI   C5A 2363  12.254  13.149   8.379  0.0345 -0.0697 -0.0999
  148loPI   C6A 2364  12.462  12.734   8.285 -0.1170  0.1218 -0.1151
  148loPI   C1B 2365  12.730  13.425   9.942  0.0188  0.1254  0.3382
  148loPI   C2B 2366  12.696  13.566   9.501  0.1393 -0.2897 -0.0309
  148loPI   C3B 2367  12.708  13.820   9.121 -0.2490 -0.1891 -0.1011
  148loPI   C4B 2368  12.570  14.002   8.769 -0.1570 -0.1783  0.0187
  149loPI    C1 2369  12.118  10.826  10.751 -0.1704  0.1429 -0.0692
  149loPI    C2 2370  12.209  10.933  11.125 -0.1480 -0.2062  0.0291
  149loPI    C3 2371  11.831  10.842  11.029 -0.1605 -0.0796 -0.0440
  149loPI   PO4 2372  12.225  10.963  10.625 -0.2217 -0.0060 -0.2445
  149loPI   GL1 2373  12.420  10.959  10.209  0.1152 -0.0139 -0.3589
  149loPI   GL2 2374  12.493  11.247  10.233 -0.1176 -0.2879  0.0534
  149loPI   C1A 2375  12.137  10.987   9.814  0.0593 -0.1898 -0.2463
  149loPI   C2A 2376  12.052  11.033   9.403 -0.1611 -0.1551 -0.1772
  149loPI   C3A 2377  12.024  11.049   8.956  0.0510 -0.1515  0.1319
  149loPI   C4A 2378  11.848  11.006   8.562 -0.0183  0.0813  0.3204
  149loPI   C5A 2379  11.692  10.896   8.094  0.1776 -0.2788 -0.0863
  149loPI   C6A 2380  11.400  10.707   7.836  0.0513  0.0711  0.2152
  149loPI   C1B 2381  12.410  11.421   9.853  0.2563 -0.0847 -0.0282
  149loPI   C2B 2382  12.382  11.399   9.480 -0.0420 -0.2118  0.1127
  149loPI   C3B 2383  12.402  11.432   9.111 -0.0136 -0.1631 -0.0739
  149loPI   C4B 2384  12.321  11.394   8.640 -0.2036 -0.1253  0.3197
  150loPI    C1 2385   2.279   8.192  10.009  0.1579 -0.0009  0.2441
  150loPI    C2 2386   2.017   8.260  10.304 -0.0350  0.1166  0.0487
  150loPI    C3 2387   2.388   8.406  10.329 -0.0930  0.2457  0.1687
  150loPI   PO4 2388   2.130   8.247   9.803 -0.2654 -0.1203 -0.0728
  150loPI   GL1 2389   2.017   8.011   9.433  0.0832 -0.1763 -0.1229
  150loPI   GL2 2390   2.123   7.733   9.343  0.0025  0.0588  0.2452
  150loPI   C1A 2391   1.719   8.029   9.085  0.0489  0.2360 -0.1735
  150loPI   C2A 2392   1.735   8.033   8.694 -0.0515  0.0123 -0.1768
  150loPI   C3A 2393   1.855   8.077   8.269 -0.2172 -0.0740  0.0394
  150loPI   C4A 2394   2.019   8.048   7.890 -0.1918 -0.1868 -0.2689
  150loPI   C5A 2395   2.300   8.203   7.564 -0.5380  0.0540  0.0685
  150loPI   C6A 2396   2.795   8.098   7.520 -0.0566  0.1778  0.0938
  150loPI   C1B 2397   2.056   7.697   8.929 -0.1925 -0.0024  0.1263
  150loPI   C2B 2398   2.110   7.682   8.519 -0.1346  0.1691 -0.0541
  150loPI   C3B 2399   2.182   7.648   8.108 -0.0446  0.0850  0.1020
  150loPI   C4B 2400   2.004   7.405   7.836  0.1068 -0.0752 -0.0696
  151loPI    C1 2401   5.910  10.471  10.213  0.0964  0.0956 -0.1839
  151loPI    C2 2402   5.819  10.590  10.584 -0.0899  0.0882 -0.2262
  151loPI    C3 2403   6.145  10.367  10.520  0.0004  0.1769 -0.0817
  151loPI   PO4 2404   5.904  10.609  10.108 -0.0961 -0.2704  0.3792
  151loPI   GL1 2405   6.059  10.707   9.779  0.2911 -0.0044  0.2259
  151loPI   GL2 2406   6.468  10.698   9.956  0.1438 -0.1552  0.4370
  151loPI   C1A 2407   6.001  10.830   9.312  0.0382 -0.0907 -0.1266
  151loPI   C2A 2408   5.969  10.906   8.956 -0.0255 -0.0107 -0.1052
  151loPI   C3A 2409   5.910  10.716   8.515  0.0847 -0.1471  0.0435
  151loPI   C4A 2410   5.642  10.472   8.181  0.1801 -0.2058  0.3402
  151loPI   C5A 2411   5.374  10.245   8.231 -0.2387 -0.0565  0.0244
  151loPI   C6A 2412   5.176   9.885   8.365 -0.0322 -0.0118  0.1989
  151loPI   C1B 2413   6.492  10.590   9.455 -0.1292  0.1252 -0.1142
  151loPI   C2B 2414   6.405  10.706   9.007 -0.1042  0.0447  0.2460
  151loPI   C3B 2415   6.331  11.009   8.664 -0.1560 -0.2546  0.3840
  151loPI   C4B 2416   6.348  11.185   8.253 -0.1254 -0.1813  0.3445
  152loPI    C1 2417   2.419  16.914  10.979 -0.0755  0.1406  0.1252
  152loPI    C2 2418   2.563  17.255  10.827 -0.0346  0.1137  0.1033
  152loPI    C3 2419   2.813  16.960  10.927 -0.0822  0.0262 -0.0322
  152loPI   PO4 2420   2.137  17.022  10.980 -0.1567 -0.1582  0.0231
  152loPI   GL1 2421   1.984  17.257  10.580 -0.2269 -0.0282  0.2867
  152loPI   GL2 2422   2.215  17.461  10.538 -0.2125  0.0182  0.4388
  152loPI   C1A 2423   1.945  17.043  10.223  0.2332 -0.3345  0.1565
  152loPI   C2A 2424   1.954  16.930   9.709  0.2527 -0.3893 -0.0128
  152loPI   C3A 2425   1.886  16.799   9.343 -0.0935 -0.0856  0.0134
  152loPI   C4A 2426   1.895  16.884   8.973  0.0237  0.0305  0.2531
  152loPI   C5A 2427   1.916  17.050   8.536 -0.0546 -0.1523  0.0243
  152loPI   C6A 2428   2.174  17.340   8.348 -0.2463  0.0663  0.2945
  152loPI   C1B 2429   2.279  17.430  10.122  0.0083  0.0783  0.0086
  152loPI   C2B 2430   2.267  17.328   9.677 -0.3222 -0.1859 -0.1057
  152loPI   C3B 2431   2.317  17.272   9.343  0.0340 -0.0105  0.0126
  152loPI   C4B 2432   2.240  17.314   8.892 -0.1365  0.3827 -0.0309
  153loPI    C1 2433   4.497  14.898  11.012 -0.0157  0.0175 -0.0144
  153loPI    C2 2434   4.743  14.649  11.205  0.0050 -0.1000 -0.1899
  153loPI    C3 2435   4.387  14.740  11.362 -0.0236 -0.2801 -0.1484
  153loPI   PO4 2436   4.428  14.769  10.790 -0.1443 -0.3429  0.0044
  153loPI   GL1 2437   4.565  14.797  10.362 -0.0831  0.0803 -0.2197
  153loPI   GL2 2438   4.357  14.560  10.349  0.0700  0.0994  0.1836
  153loPI   C1A 2439   4.680  15.116  10.094  0.3275  0.0464  0.0171
  153loPI   C2A 2440   4.796  15.072   9.790  0.1812 -0.0659 -0.0903
  153loPI   C3A 2441   4.789  15.070   9.312  0.1090 -0.0604 -0.1465
  153loPI   C4A 2442   4.791  15.125   8.800 -0.1487 -0.0011  0.0645
  153loPI   C5A 2443   4.781  14.776   8.481 -0.2079 -0.1109  0.4000
  153loPI   C6A 2444   4.649  14.342   8.367 -0.1314 -0.1962 -0.0146
  153loPI   C1B 2445   4.261  14.569   9.935 -0.1633  0.1648 -0.1278
  153loPI   C2B 2446   4.215  14.445   9.609 -0.0026 -0.2084  0.0902
  153loPI   C3B 2447   4.081  14.483   9.214  0.0601 -0.1836  0.0991
  153loPI   C4B 2448   3.861  14.537   8.898  0.0263  0.1366 -0.0286
  154loPI    C1 2449  13.415   1.635  10.946 -0.0755  0.2711 -0.1373
  154loPI    C2 2450  13.200   1.490  11.250 -0.0054 -0.1210 -0.2696
  154loPI    C3 2451  13.549   1.672  11.321 -0.1184  0.0321 -0.0973
  154loPI   PO4 2452  13.481   1.543  10.787  0.1115 -0.0393  0.0205
  154loPI   GL1 2453  13.334   1.219  10.572  0.2488  0.1624 -0.3086
  154loPI   GL2 2454  13.451   1.486  10.274 -0.2478 -0.1196  0.0771
  154loPI   C1A 2455  13.011   1.120  10.344 -0.3555  0.1317  0.0286
  154loPI   C2A 2456  12.857   1.093   9.914  0.1180  0.2733  0.0330
  154loPI   C3A 2457  12.783   0.957   9.410  0.0154  0.0470 -0.0603
  154loPI   C4A 2458  12.819   0.866   9.040  0.0765 -0.1218 -0.3399
  154loPI   C5A 2459  12.701   0.744   8.635  0.0400 -0.0558 -0.0927
  154loPI   C6A 2460  12.584   0.861   8.199 -0.0298  0.0696  0.2332
  154loPI   C1B 2461  13.178   1.477   9.948 -0.0537 -0.1937 -0.0986
  154loPI   C2B 2462  13.090   1.383   9.540 -0.1525  0.0401  0.0139
  154loPI   C3B 2463  13.209   1.312   9.142 -0.0399  0.0207 -0.1902
  154loPI   C4B 2464  13.525   1.469   8.875 -0.0943  0.2048  0.0004
  155loPI    C1 2465   4.542  12.806  10.618 -0.2335  0.2583  0.1113
  155loPI    C2 2466   4.358  13.063  10.863  0.1753  0.0153  0.6969
  155loPI    C3 2467   4.354  12.671  10.945 -0.0959 -0.1349  0.0344
  155loPI   PO4 2468   4.895  12.941  10.491  0.2328  0.1450  0.3073
  155loPI   GL1 2469   5.080  12.933  10.096 -0.1994 -0.2830 -0.0707
  155loPI   GL2 2470   5.328  13.055  10.101 -0.1903  0.0139 -0.1840
  155loPI   C1A 2471   5.099  12.997   9.608  0.0643 -0.2058 -0.0798
  155loPI   C2A 2472   5.104  12.970   9.122 -0.2579 -0.0973  0.0858
  155loPI   C3A 2473   5.103  13.154   8.787  0.0148  0.0489 -0.1739
  155loPI   C4A 2474   5.156  13.187   8.385  0.1488  0.2476  0.1281
  155loPI   C5A 2475   5.385  13.017   8.112 -0.0723 -0.0785 -0.1506
  155loPI   C6A 2476   5.806  13.176   8.120 -0.2379 -0.0456 -0.1527
  155loPI   C1B 2477   5.600  13.275   9.760 -0.2329  0.0405  0.1093
  155loPI   C2B 2478   5.645  13.401   9.429 -0.0820  0.0166 -0.1119
  155loPI   C3B 2479   5.422  13.371   9.030 -0.3702 -0.0002  0.0303
  155loPI   C4B 2480   5.570  13.484   8.606  0.0816  0.1393 -0.1975
  156loPI    C1 2481  11.912   3.541  10.588 -0.1546  0.0180 -0.1602
  156loPI    C2 2482  11.816   3.733  10.925 -0.0239 -0.0998 -0.0544
  156loPI    C3 2483  12.025   3.922  10.641  0.5626 -0.2335  0.2716
  156loPI   PO4 2484  11.719   3.371  10.566  0.0623  0.1887 -0.2728
  156loPI   GL1 2485  11.392   3.234  10.257 -0.1427 -0.2492 -0.0491
  156loPI   GL2 2486  11.648   3.340  10.022 -0.1384  0.0449  0.2467
  156loPI   C1A 2487  11.333   3.007   9.908  0.0953 -0.2758  0.0500
  156loPI   C2A 2488  11.358   2.916   9.519 -0.0561  0.1125  0.0529
  156loPI   C3A 2489  11.172   2.936   9.173  0.0841 -0.2296 -0.2659
  156loPI   C4A 2490  11.026   2.991   8.668 -0.1800  0.2359  0.0623
  156loPI   C5A 2491  11.036   2.962   8.286 -0.0453  0.0980 -0.0619
  156loPI   C6A 2492  11.067   3.442   8.086 -0.1095 -0.0802 -0.2512
  156loPI   C1B 2493  11.626   3.335   9.608  0.1882 -0.2888  0.0247
  156loPI   C2B 2494  11.542   3.292   9.113  0.0838  0.0438 -0.0797
  156loPI   C3B 2495  11.453   3.210   8.665 -0.1301 -0.1569  0.1289
  156loPI   C4B 2496  11.629   2.881   8.435 -0.0927  0.0474 -0.1142
  157loPI    C1 2497   0.899  10.413  10.270 -0.3289 -0.1309 -0.2687
  157loPI    C2 2498   0.996  10.072  10.455 -0.0519  0.1129  0.0474
  157loPI    C3 2499   1.282  10.301  10.295 -0.2346  0.2064 -0.1507
  157loPI   PO4 2500   0.670  10.352  10.193 -0.0261  0.2707 -0.0012
  157loPI   GL1 2501   0.480  10.550   9.870  0.0863 -0.1057 -0.3310
  157loPI   GL2 2502   0.545  10.225   9.684  0.2819  0.0667  0.2253
  157loPI   C1A 2503   0.780  10.629   9.564  0.2805  0.0157  0.3308
  157loPI   C2A 2504   0.768  10.785   9.145 -0.1226  0.0165  0.0408
  157loPI   C3A 2505   0.653  11.032   8.735 -0.1112  0.2886 -0.3587
  157loPI   C4A 2506   0.769  11.035   8.401 -0.0772  0.0566  0.3713
  157loPI   C5A 2507   0.730  11.110   7.921 -0.1293 -0.0364  0.1282
  157loPI   C6A 2508   0.965  11.309   7.637  0.0650 -0.1977 -0.0328
  157loPI   C1B 2509   0.441  10.423   9.275 -0.1163 -0.0103  0.4288
  157loPI   C2B 2510   0.518  10.390   8.820  0.3128 -0.1422 -0.0968
  157loPI   C3B 2511   0.368  10.651   8.593  0.0113 -0.0320  0.0141
  157loPI   C4B 2512   0.366  10.839   8.133  0.0288 -0.0147 -0.0277
  158loPI    C1 2513  13.831  12.118  10.663 -0.0852  0.0233 -0.0894
  158loPI    C2 2514  13.962  11.748  10.741  0.0662  0.0539 -0.1951
  158loPI    C3 2515  13.964  12.026  11.029 -0.1836 -0.0649 -0.0752
  158loPI   PO4 2516  13.636  12.057  10.512  0.3461 -0.1471  0.0892
  158loPI   GL1 2517  13.378  12.145  10.277 -0.2252 -0.0153 -0.0544
  158loPI   GL2 2518  13.380  12.474  10.169  0.0445 -0.1913 -0.1450
  158loPI   C1A 2519  13.313  12.029   9.773 -0.0020 -0.4392 -0.2456
  158loPI   C2A 2520  13.227  12.128   9.379 -0.1283  0.0748 -0.0485
  158loPI   C3A 2521  13.050  12.197   8.937 -0.3150  0.2513 -0.3563
  158loPI   C4A 2522  13.080  12.257   8.537  0.2323 -0.1407  0.2717
  158loPI   C5A 2523  13.312  12.565   8.281 -0.1509  0.1766 -0.2095
  158loPI   C6A 2524  13.509  12.939   8.350 -0.0870  0.1909 -0.0556
  158loPI   C1B 2525  13.248  12.534   9.693  0.1060  0.2094 -0.1285
  158loPI   C2B 2526  13.110  12.641   9.355 -0.0455  0.1934  0.2435
  158loPI   C3B 2527  12.873  12.721   8.985  0.1167 -0.5609  0.0430
  158loPI   C4B 2528  12.889  12.743   8.531  0.1931 -0.2648 -0.2277
  159loPI    C1 2529   7.659  13.135  10.633  0.0181 -0.0032 -0.0505
  159loPI    C2 2530   7.310  13.218  10.455  0.0582  0.2606 -0.0101
  159loPI    C3 2531   7.316  13.090  10.834  0.0026  0.2071 -0.0273
  159loPI   PO4 2532   7.757  12.986  10.468  0.2362  0.2135  0.0861
  159loPI   GL1 2533   7.993  12.919  10.009  0.0421 -0.0921  0.0630
  159loPI   GL2 2534   8.154  13.053   9.940 -0.0949 -0.0392  0.1300
  159loPI   C1A 2535   7.891  12.550   9.745 -0.2147 -0.1031 -0.0272
  159loPI   C2A 2536   7.906  12.594   9.294 -0.0039 -0.0853  0.1159
  159loPI   C3A 2537   7.819  12.543   8.821 -0.0571  0.0199  0.1157
  159loPI   C4A 2538   7.622  12.522   8.453 -0.2193 -0.3951  0.0708
  159loPI   C5A 2539   7.702  12.705   8.058  0.0540 -0.1158  0.1087
  159loPI   C6A 2540   7.842  13.091   7.935 -0.0877  0.3140  0.1367
  159loPI   C1B 2541   8.249  12.858   9.545  0.0450 -0.2572 -0.0553
  159loPI   C2B 2542   8.188  13.118   9.184  0.3367 -0.0752  0.1747
  159loPI   C3B 2543   8.031  13.203   8.794  0.0028  0.0362 -0.0084
  159loPI   C4B 2544   7.880  13.237   8.424  0.0998 -0.0554  0.2877
  160loPI    C1 2545   3.694  16.883  10.918 -0.0075 -0.1317  0.0750
  160loPI    C2 2546   3.775  16.561  11.142 -0.0251 -0.0626  0.1816
  160loPI    C3 2547   3.707  16.914  11.317  0.2991  0.0681  0.0521
  160loPI   PO4 2548   3.504  16.726  10.715 -0.0227 -0.0179 -0.1443
  160loPI   GL1 2549   3.663  16.660  10.360  0.0620  0.1078 -0.1090
  160loPI   GL2 2550   3.341  16.407  10.223 -0.2108 -0.1884 -0.1918
  160loPI   C1A 2551   3.754  16.798   9.811  0.2423  0.2353  0.0853
  160loPI   C2A 2552   3.787  16.767   9.376 -0.1122 -0.2790 -0.3322
  160loPI   C3A 2553   3.682  16.843   9.043 -0.2449 -0.2309 -0.1421
  160loPI   C4A 2554   3.779  16.668   8.650  0.0212 -0.2316 -0.0183
  160loPI   C5A 2555   4.124  16.445   8.538  0.2862  0.3563  0.1952
  160loPI   C6A 2556   4.480  16.392   8.415 -0.2744 -0.0819  0.0814
  160loPI   C1B 2557   3.388  16.471   9.757 -0.0267 -0.2437 -0.2511
  160loPI   C2B 2558   3.343  16.408   9.331  0.1961  0.0765  0.1274
  160loPI   C3B 2559   3.349  16.329   8.875  0.2956 -0.2712 -0.0609
  160loPI   C4B 2560   3.389  16.465   8.397 -0.1680  0.1862 -0.0089
  161loPI    C1 2561   9.091   6.939  10.642  0.1183  0.0972  0.0351
  161loPI    C2 2562   8.813   7.151  10.447 -0.0014 -0.0823  0.0085
  161loPI    C3 2563   8.757   7.051  10.830  0.1657  0.1411  0.0936
  161loPI   PO4 2564   9.299   7.035  10.522  0.0855  0.1490  0.1847
  161loPI   GL1 2565   9.253   7.378  10.328  0.4888  0.0085  0.1219
  161loPI   GL2 2566   9.499   7.622  10.234 -0.0024 -0.1116  0.2025
  161loPI   C1A 2567   9.388   7.290   9.825 -0.2162 -0.1679 -0.2549
  161loPI   C2A 2568   9.394   7.220   9.354 -0.0123  0.0164 -0.2049
  161loPI   C3A 2569   9.372   7.104   8.939 -0.2523  0.1982 -0.0495
  161loPI   C4A 2570   9.341   6.944   8.543 -0.0997  0.1198 -0.1989
  161loPI   C5A 2571   9.083   6.748   8.245 -0.0450  0.1715  0.2240
  161loPI   C6A 2572   9.360   6.462   8.034  0.1767 -0.2409 -0.0612
  161loPI   C1B 2573   9.104   7.698   9.919 -0.2041  0.1717 -0.0899
  161loPI   C2B 2574   9.060   7.755   9.519 -0.0717 -0.2535  0.1227
  161loPI   C3B 2575   9.078   7.648   9.090 -0.2999 -0.1644 -0.3395
  161loPI   C4B 2576   9.135   7.469   8.741 -0.0313 -0.1854  0.0685
  162loPI    C1 2577  11.978  10.047  10.819 -0.2441  0.0483 -0.0639
  162loPI    C2 2578  11.961   9.691  10.999  0.1122  0.1391  0.1610
  162loPI    C3 2579  11.803  10.013  11.177 -0.1731  0.1052 -0.0234
  162loPI   PO4 2580  11.833  10.046  10.523 -0.2526  0.1134  0.0430
  162loPI   GL1 2581  11.756   9.983  10.080  0.0826 -0.1269 -0.4224
  162loPI   GL2 2582  11.873  10.312  10.130 -0.2109  0.0822  0.0983
  162loPI   C1A 2583  11.758  10.115   9.667 -0.0327 -0.1689  0.0228
  162loPI   C2A 2584  11.798  10.201   9.270 -0.3046  0.0034 -0.0230
  162loPI   C3A 2585  11.610  10.275   8.842 -0.0517 -0.2356  0.0125
  162loPI   C4A 2586  11.388  10.089   8.481  0.0115  0.2031 -0.0014
  162loPI   C5A 2587  11.445  10.234   8.030  0.1292  0.0313  0.2898
  162loPI   C6A 2588  11.716  10.361   7.655  0.0469  0.0250 -0.2422
  162loPI   C1B 2589  12.165  10.351   9.728  0.1738 -0.1456  0.3080
  162loPI   C2B 2590  12.162  10.567   9.364  0.3561 -0.2746 -0.0919
  162loPI   C3B 2591  12.071  10.510   8.960 -0.1717  0.0212 -0.1786
  162loPI   C4B 2592  12.050  10.562   8.515  0.0641 -0.3222 -0.1676
  163loPI    C1 2593   0.817   7.236   9.954 -0.1263 -0.1253  0.0620
  163loPI    C2 2594   0.800   6.882   9.769 -0.1849 -0.1020  0.0226
  163loPI    C3 2595   1.107   6.967  10.011 -0.1095 -0.1337 -0.0614
  163loPI   PO4 2596   0.787   7.409   9.775  0.1417  0.0140 -0.2454
  163loPI   GL1 2597   1.188   7.549   9.574  0.2798  0.1759  0.5735
  163loPI   GL2 2598   1.272   7.218   9.600  0.0444 -0.0441  0.2349
  163loPI   C1A 2599   1.282   7.773   9.235  0.0184 -0.0070  0.0108
  163loPI   C2A 2600   1.272   7.842   8.830  0.2695 -0.0302 -0.0472
  163loPI   C3A 2601   1.313   7.913   8.381 -0.2793 -0.1204  0.1406
  163loPI   C4A 2602   1.104   7.831   7.984 -0.0435 -0.1188  0.0758
  163loPI   C5A 2603   0.785   7.758   7.716 -0.0762  0.0301 -0.0507
  163loPI   C6A 2604   0.621   7.353   7.496  0.0660  0.2437  0.0481
  163loPI   C1B 2605   1.207   7.309   9.073  0.0200  0.0143  0.0613
  163loPI   C2B 2606   1.230   7.308   8.721 -0.0011 -0.0811 -0.0413
  163loPI   C3B 2607   1.256   7.359   8.317  0.0563 -0.3568 -0.0363
  163loPI   C4B 2608   1.143   7.239   7.981  0.1566 -0.0123  0.2010
  164loPI    C1 2609   9.217  12.376  10.525 -0.0415 -0.1822  0.1144
  164loPI    C2 2610   9.040  12.327  10.880  0.0463  0.1688  0.2111
  164loPI    C3 2611   9.411  12.191  10.821 -0.0695 -0.1344  0.1629
  164loPI   PO4 2612   9.165  12.585  10.453 -0.1482 -0.0491  0.2603
  164loPI   GL1 2613   9.121  12.659  10.068  0.0136 -0.0097 -0.2288
  164loPI   GL2 2614   8.933  12.477   9.952  0.0783  0.2129 -0.0197
  164loPI   C1A 2615   9.209  12.892   9.692 -0.0083  0.2283 -0.3251
  164loPI   C2A 2616   8.991  12.815   9.255  0.1699 -0.0769 -0.1488
  164loPI   C3A 2617   8.671  13.000   8.955 -0.0667  0.2379  0.3752
  164loPI   C4A 2618   8.490  13.302   8.508 -0.1050 -0.2583 -0.0092
  164loPI   C5A 2619   8.315  13.122   8.067 -0.3662 -0.0037 -0.1827
  164loPI   C6A 2620   8.209  12.833   7.770 -0.0367  0.1940  0.0266
  164loPI   C1B 2621   9.176  12.398   9.578 -0.0899  0.0265 -0.1495
  164loPI   C2B 2622   9.137  12.393   9.023  0.1017 -0.3767 -0.2313
  164loPI   C3B 2623   9.071  12.634   8.720  0.1527  0.0179 -0.2418
  164loPI   C4B 2624   8.686  12.741   8.451  0.2500 -0.2519  0.0011
  165loPI    C1 2625   8.382   6.287  10.967 -0.0823 -0.0132 -0.0303
  165loPI    C2 2626   8.510   6.663  10.925  0.2421 -0.1385 -0.1981
  165loPI    C3 2627   8.352   6.543  11.272  0.4106  0.0720 -0.0464
  165loPI   PO4 2628   8.566   6.176  10.770 -0.1421  0.0103 -0.1923
  165loPI   GL1 2629   8.661   6.198  10.322 -0.0464  0.0640 -0.2304
  165loPI   GL2 2630   8.447   6.389  10.051  0.0191  0.0233 -0.1497
  165loPI   C1A 2631   8.642   5.786  10.118  0.2372 -0.0632 -0.1200
  165loPI   C2A 2632   8.610   5.601   9.730 -0.0067  0.1531  0.1972
  165loPI   C3A 2633   8.574   5.474   9.297  0.0281 -0.0650 -0.2639
  165loPI   C4A 2634   8.519   5.437   8.842 -0.0169  0.1418  0.1066
  165loPI   C5A 2635   8.534   5.349   8.448  0.0496 -0.1375 -0.2967
  165loPI   C6A 2636   8.774   5.302   7.981 -0.0837 -0.0465  0.1461
  165loPI   C1B 2637   8.502   6.073   9.765 -0.1947  0.1243 -0.0705
  165loPI   C2B 2638   8.510   5.997   9.389 -0.0643 -0.0332 -0.4825
  165loPI   C3B 2639   8.477   6.015   8.922 -0.1116 -0.1111 -0.1762
  165loPI   C4B 2640   8.430   5.927   8.489 -0.0912 -0.0989 -0.0098
  166loPI    C1 2641  16.490  11.360  10.518 -0.1413  0.0433  0.0506
  166loPI    C2 2642  16.540  11.742  10.412 -0.0165 -0.0782 -0.3426
  166loPI    C3 2643  16.421  11.652  10.783  0.3808  0.3220 -0.1082
  166loPI   PO4 2644  16.732  11.222  10.435 -0.1991  0.1885 -0.4018
  166loPI   GL1 2645  16.809  11.211   9.996  0.0439  0.1365  0.0760
  166loPI   GL2 2646  16.522  11.428  10.025  0.0059 -0.3018  0.2930
  166loPI   C1A 2647  16.594  11.470   9.552 -0.0435  0.2959  0.0623
  166loPI   C2A 2648  16.571  11.566   9.159 -0.2389 -0.0554 -0.0063
  166loPI   C3A 2649  16.510  11.701   8.787 -0.0894  0.1368  0.2344
  166loPI   C4A 2650  16.350  11.749   8.385  0.0418 -0.0096 -0.0837
  166loPI   C5A 2651  16.579  11.958   8.055  0.1163 -0.1500 -0.1815
  166loPI   C6A 2652  16.980  12.025   8.004 -0.1531 -0.0736  0.0514
  166loPI   C1B 2653  16.708  11.780   9.951  0.0898 -0.1650 -0.0827
  166loPI   C2B 2654  16.793  11.933   9.530  0.1563  0.2361  0.0531
  166loPI   C3B 2655  16.789  12.044   9.167  0.0452 -0.0045 -0.1101
  166loPI   C4B 2656  16.916  12.019   8.770 -0.1740 -0.0034 -0.5023
  167loPI    C1 2657   7.640   5.373  11.041 -0.0578 -0.0795 -0.1305
  167loPI    C2 2658   7.960   5.531  11.222 -0.1078 -0.2946  0.1534
  167loPI    C3 2659   7.628   5.749  11.177  0.0895 -0.0541 -0.1858
  167loPI   PO4 2660   7.673   5.343  10.805 -0.1468 -0.0593 -0.2360
  167loPI   GL1 2661   7.483   5.403  10.280 -0.0985  0.0929  0.0215
  167loPI   GL2 2662   7.533   5.061  10.261  0.0593 -0.1875  0.3005
  167loPI   C1A 2663   7.693   5.431   9.942 -0.1452 -0.2483  0.1207
  167loPI   C2A 2664   7.789   5.424   9.506  0.5779  0.1538  0.0038
  167loPI   C3A 2665   7.742   5.327   9.113 -0.0644 -0.0376 -0.0829
  167loPI   C4A 2666   7.641   5.188   8.761  0.1700 -0.0673  0.2374
  167loPI   C5A 2667   7.756   5.025   8.346 -0.3885  0.1770  0.1001
  167loPI   C6A 2668   7.523   4.846   8.021 -0.0366 -0.0099 -0.1235
  167loPI   C1B 2669   7.860   4.951   9.923  0.0867  0.1184 -0.0196
  167loPI   C2B 2670   7.764   4.833   9.527  0.1455 -0.1125  0.1992
  167loPI   C3B 2671   7.767   4.794   9.135 -0.2800 -0.2117  0.1765
  167loPI   C4B 2672   7.643   4.659   8.690  0.3974 -0.4822  0.1957
  168loPI    C1 2673   1.024   2.507  10.263 -0.0309  0.0195  0.0784
  168loPI    C2 2674   1.063   2.171  10.476  0.2134 -0.0110 -0.0114
  168loPI    C3 2675   1.185   2.520  10.629 -0.1726  0.0625  0.1399
  168loPI   PO4 2676   0.774   2.369  10.097  0.4757 -0.0290 -0.2282
  168loPI   GL1 2677   0.605   2.147   9.809  0.1282  0.3608 -0.0728
  168loPI   GL2 2678   0.304   2.313   9.705 -0.4365  0.1051 -0.1725
  168loPI   C1A 2679   0.578   2.133   9.291 -0.2218 -0.2541 -0.1339
  168loPI   C2A 2680   0.570   1.978   8.814  0.3309 -0.1474 -0.2292
  168loPI   C3A 2681   0.757   2.013   8.351  0.3551  0.2179  0.2505
  168loPI   C4A 2682   0.843   2.008   7.990  0.2073  0.3751  0.0479
  168loPI   C5A 2683   1.070   2.222   7.723  0.0933  0.6916  0.0232
  168loPI   C6A 2684   1.088   2.724   7.727 -0.1557 -0.1406  0.1317
  168loPI   C1B 2685   0.089   2.237   9.477  0.0746  0.2167  0.2257
  168loPI   C2B 2686   0.138   2.225   9.000 -0.3668  0.3360  0.0233
  168loPI   C3B 2687   0.135   2.163   8.601  0.0705  0.1996 -0.1955
  168loPI   C4B 2688  -0.054   1.976   8.281 -0.0927 -0.0232  0.1337
  169loPI    C1 2689   0.675   3.967  10.282  0.1455  0.0965 -0.1955
  169loPI    C2 2690   0.695   3.805  10.648 -0.2407 -0.0521 -0.2359
  169loPI    C3 2691   0.598   4.191  10.605  0.1548  0.0590 -0.1671
  169loPI   PO4 2692   0.530   3.720  10.148 -0.0905 -0.0980 -0.0213
  169loPI   GL1 2693   0.654   3.494   9.800  0.1219 -0.0256  0.0852
  169loPI   GL2 2694   0.917   3.559   9.867  0.4548 -0.3855 -0.0003
  169loPI   C1A 2695   0.501   3.749   9.423  0.0116  0.3622 -0.3665
  169loPI   C2A 2696   0.487   3.817   9.007 -0.3051 -0.0557 -0.0629
  169loPI   C3A 2697   0.375   3.687   8.572  0.0269 -0.0057 -0.1022
  169loPI   C4A 2698   0.237   3.540   8.129  0.0861  0.1468  0.0700
  169loPI   C5A 2699  -0.116   3.258   7.973 -0.0037  0.0960  0.1167
  169loPI   C6A 2700  -0.379   2.926   8.022  0.0647  0.0607 -0.1896
  169loPI   C1B 2701   0.987   3.796   9.543  0.3967 -0.2466  0.0134
  169loPI   C2B 2702   0.848   3.506   9.140  0.0457  0.1754 -0.2142
  169loPI   C3B 2703   0.750   3.390   8.788  0.3186  0.1532  0.0415
  169loPI   C4B 2704   0.760   3.397   8.354  0.2400  0.0436 -0.0875
  170loPI    C1 2705  16.488   2.746  10.650 -0.1245  0.2186 -0.2164
  170loPI    C2 2706  16.835   2.923  10.738 -0.1432  0.1364  0.0288
  170loPI    C3 2707  16.526   2.951  10.991 -0.1999 -0.0999 -0.0125
  170loPI   PO4 2708  16.513   2.672  10.449 -0.1302  0.1926 -0.1390
  170loPI   GL1 2709  16.294   2.411  10.233 -0.0583  0.0725  0.4550
  170loPI   GL2 2710  16.100   2.147  10.027 -0.0612 -0.2441  0.2114
  170loPI   C1A 2711  16.601   2.241   9.899  0.2936 -0.3503 -0.1546
  170loPI   C2A 2712  16.768   2.119   9.603  0.1485 -0.3009  0.0413
  170loPI   C3A 2713  16.645   2.045   9.181  0.0513  0.0885  0.1344
  170loPI   C4A 2714  16.763   1.912   8.719  0.3345 -0.0260 -0.3037
  170loPI   C5A 2715  16.889   1.979   8.391  0.0741 -0.1087  0.2077
  170loPI   C6A 2716  16.614   2.074   8.092 -0.1065 -0.1507  0.1842
  170loPI   C1B 2717  16.186   2.149   9.578  0.2849 -0.0040  0.0443
  170loPI   C2B 2718  16.189   2.281   9.237  0.1675 -0.0846 -0.0985
  170loPI   C3B 2719  16.196   2.172   8.826  0.1382 -0.2291  0.1348
  170loPI   C4B 2720  15.989   2.156   8.360  0.0807 -0.1934 -0.2651
  171loPI    C1 2721  16.783  15.051  11.165  0.3035 -0.0534 -0.1690
  171loPI    C2 2722  16.975  15.287  11.425 -0.0089 -0.0059  0.0238
  171loPI    C3 2723  16.749  14.985  11.558 -0.1729  0.0194 -0.1922
  171loPI   PO4 2724  16.721  15.245  11.032  0.0953  0.0908 -0.0854
  171loPI   GL1 2725  16.866  15.295  10.628 -0.1489  0.4572 -0.2524
  171loPI   GL2 2726  16.842  15.616  10.746  0.0279 -0.1690 -0.0609
  171loPI   C1A 2727  17.036  15.231  10.217 -0.0574 -0.1811  0.0675
  171loPI   C2A 2728  17.056  15.266   9.777 -0.3134  0.0432 -0.0709
  171loPI   C3A 2729  16.947  15.272   9.306 -0.0741  0.0044 -0.1579
  171loPI   C4A 2730  16.897  15.162   8.862 -0.2301  0.0869 -0.0945
  171loPI   C5A 2731  16.622  14.967   8.588 -0.0600  0.5099 -0.4942
  171loPI   C6A 2732  16.493  14.587   8.463  0.1991  0.1105 -0.1156
  171loPI   C1B 2733  16.863  15.716  10.264 -0.2803 -0.0342  0.0013
  171loPI   C2B 2734  16.914  15.839   9.816 -0.0560  0.1209  0.0402
  171loPI   C3B 2735  16.743  15.779   9.378 -0.1445 -0.3177 -0.0459
  171loPI   C4B 2736  16.923  15.741   8.969 -0.2690  0.2517  0.1655
  172loPI    C1 2737  14.673  15.354  11.168 -0.0978  0.0298 -0.1069
  172loPI    C2 2738  14.518  15.055  11.384 -0.2491  0.0997 -0.1167
  172loPI    C3 2739  14.492  15.431  11.516  0.1834  0.0837  0.0292
  172loPI   PO4 2740  14.877  15.141  11.008  0.1932 -0.0927 -0.2054
  172loPI   GL1 2741  15.048  14.996  10.672 -0.1302  0.1195  0.2966
  172loPI   GL2 2742  14.922  14.675  10.689 -0.0890  0.0952  0.3603
  172loPI   C1A 2743  15.092  15.139  10.200  0.1599 -0.0736 -0.1989
  172loPI   C2A 2744  15.061  15.286   9.741  0.0102 -0.2732 -0.0152
  172loPI   C3A 2745  15.013  15.206   9.362 -0.1510 -0.2645 -0.1668
  172loPI   C4A 2746  14.857  15.241   8.824  0.2222  0.4520 -0.0303
  172loPI   C5A 2747  14.753  15.534   8.436 -0.3379 -0.1882  0.2931
  172loPI   C6A 2748  14.991  15.621   7.993  0.3759 -0.2148  0.2008
  172loPI   C1B 2749  14.717  14.841  10.319  0.2983  0.1188  0.0897
  172loPI   C2B 2750  14.683  14.936   9.925  0.3354 -0.3316 -0.1163
  172loPI   C3B 2751  14.597  14.949   9.457  0.0825 -0.0593 -0.2120
  172loPI   C4B 2752  14.528  14.953   9.119 -0.0904 -0.0538  0.3643
  173loPI    C1 2753  10.670   3.934  11.040  0.1904 -0.1071 -0.0103
  173loPI    C2 2754  10.885   3.599  11.078 -0.0189 -0.2302  0.1100
  173loPI    C3 2755  10.498   3.600  11.179 -0.0194  0.0493  0.1120
  173loPI   PO4 2756  10.749   3.998  10.720  0.1834 -0.1792 -0.0699
  173loPI   GL1 2757  10.880   4.043  10.263  0.4136  0.0076 -0.3182
  173loPI   GL2 2758  11.043   3.885  10.129  0.1336  0.1268 -0.0839
  173loPI   C1A 2759  10.719   4.206   9.934 -0.0740  0.3508 -0.1082
  173loPI   C2A 2760  10.638   4.241   9.519 -0.0254  0.1300 -0.0346
  173loPI   C3A 2761  10.633   4.294   9.075  0.0943  0.0156  0.0171
  173loPI   C4A 2762  10.674   4.101   8.679  0.0612  0.2875  0.1149
  173loPI   C5A 2763  10.739   3.742   8.375  0.0218 -0.1537  0.1677
  173loPI   C6A 2764  10.666   3.319   8.502  0.0485  0.0209  0.0059
  173loPI   C1B 2765  11.182   3.475   9.860  0.0166  0.0703 -0.0645
  173loPI   C2B 2766  11.173   3.410   9.421 -0.1296  0.0012 -0.3126
  173loPI   C3B 2767  11.097   3.531   9.046 -0.0194 -0.0388  0.0436
  173loPI   C4B 2768  11.075   3.502   8.652  0.1055 -0.3237  0.0791
  174loPI    C1 2769  17.381  14.419  11.375  0.1596  0.1258  0.2354
  174loPI    C2 2770  17.011  14.566  11.413  0.0725 -0.0466  0.0653
  174loPI    C3 2771  17.253  14.549  11.731 -0.1672 -0.2021  0.2426
  174loPI   PO4 2772  17.380  14.421  11.070 -0.0691  0.0262 -0.1612
  174loPI   GL1 2773  17.478  14.804  10.767 -0.1779 -0.1231  0.3560
  174loPI   GL2 2774  17.789  14.803  10.725  0.0172 -0.0007 -0.0323
  174loPI   C1A 2775  17.484  15.050  10.433  0.1105 -0.1337  0.0185
  174loPI   C2A 2776  17.497  15.017  10.045  0.1027 -0.3360 -0.2365
  174loPI   C3A 2777  17.441  15.059   9.602  0.0254  0.0636  0.1009
  174loPI   C4A 2778  17.356  15.097   9.065 -0.0201 -0.3122 -0.1171
  174loPI   C5A 2779  17.313  14.863   8.767 -0.0176 -0.2971  0.0417
  174loPI   C6A 2780  17.076  14.827   8.406 -0.2242  0.0952 -0.1071
  174loPI   C1B 2781  18.067  14.661  10.615 -0.3588  0.0122 -0.2267
  174loPI   C2B 2782  18.291  14.722  10.248  0.2207 -0.1372 -0.0602
  174loPI   C3B 2783  18.297  14.751   9.813 -0.1883  0.1779 -0.1959
  174loPI   C4B 2784  18.509  14.972   9.393  0.1090 -0.1610 -0.0238
  175loPI    C1 2785  11.081  17.154  11.135  0.0714  0.1350 -0.1284
  175loPI    C2 2786  10.685  17.192  11.093  0.0016 -0.2305  0.1449
  175loPI    C3 2787  10.869  17.355  11.408  0.0878  0.0258 -0.0344
  175loPI   PO4 2788  11.187  17.213  10.940 -0.2095  0.1468  0.2556
  175loPI   GL1 2789  11.388  17.327  10.514  0.1719 -0.0471  0.0936
  175loPI   GL2 2790  11.720  17.445  10.635 -0.1826 -0.0833 -0.0711
  175loPI   C1A 2791  11.380  17.207  10.074 -0.0071 -0.3339 -0.2566
  175loPI   C2A 2792  11.360  17.231   9.654 -0.2058 -0.2505  0.2256
  175loPI   C3A 2793  11.200  17.478   9.272  0.1658 -0.0982 -0.2710
  175loPI   C4A 2794  11.207  17.487   8.905 -0.1944  0.1775 -0.0349
  175loPI   C5A 2795  11.188  17.478   8.526 -0.2348 -0.0098 -0.4037
  175loPI   C6A 2796  11.387  17.439   8.157 -0.2094 -0.1651 -0.0061
  175loPI   C1B 2797  11.803  17.524  10.169  0.1248  0.0389 -0.0966
  175loPI   C2B 2798  11.813  17.387   9.744 -0.1344  0.3518 -0.1441
  175loPI   C3B 2799  11.735  17.281   9.262 -0.1502  0.3954 -0.1250
  175loPI   C4B 2800  11.687  17.396   8.707 -0.3018 -0.1959 -0.0922
  176loPI    C1 2801   1.718   1.231  10.760 -0.1521  0.1012  0.0660
  176loPI    C2 2802   1.881   1.146  10.405 -0.1144 -0.0390  0.1162
  176loPI    C3 2803   2.084   1.070  10.742 -0.1728  0.0412  0.1699
  176loPI   PO4 2804   1.475   1.257  10.683 -0.0486  0.2394  0.1492
  176loPI   GL1 2805   1.394   1.309  10.268 -0.3313  0.0004 -0.1799
  176loPI   GL2 2806   1.568   1.434  10.103 -0.0245 -0.0261 -0.0327
  176loPI   C1A 2807   0.992   1.174  10.042 -0.2340  0.1560  0.0725
  176loPI   C2A 2808   0.862   1.125   9.563  0.0395  0.0232  0.1213
  176loPI   C3A 2809   0.874   1.017   9.209  0.2867 -0.2501  0.1552
  176loPI   C4A 2810   0.971   1.006   8.780 -0.0843  0.1983  0.1863
  176loPI   C5A 2811   0.989   1.151   8.330  0.3655  0.0801 -0.0194
  176loPI   C6A 2812   0.927   1.517   8.108 -0.0105  0.1594 -0.3830
  176loPI   C1B 2813   1.743   1.394   9.671 -0.0829 -0.1235 -0.1703
  176loPI   C2B 2814   1.770   1.271   9.286  0.1073 -0.0203  0.0361
  176loPI   C3B 2815   1.922   1.298   8.880 -0.0353 -0.3445  0.0483
  176loPI   C4B 2816   1.885   1.236   8.384  0.0666 -0.0581  0.0947
  177loPI    C1 2817   4.628   7.321  10.479 -0.1336  0.0390  0.1054
  177loPI    C2 2818   4.852   7.622  10.617 -0.1446  0.1089 -0.0275
  177loPI    C3 2819   4.644   7.394  10.872 -0.0798  0.1688  0.0795
  177loPI   PO4 2820   4.849   7.247  10.292 -0.0861  0.3429 -0.3090
  177loPI   GL1 2821   4.846   7.021   9.854  0.0159 -0.1640  0.0413
  177loPI   GL2 2822   5.098   6.846   9.732  0.0119 -0.0527  0.0437
  177loPI   C1A 2823   4.930   7.144   9.415 -0.0260 -0.2536 -0.1431
  177loPI   C2A 2824   5.020   7.082   8.992 -0.0406 -0.1347  0.0248
  177loPI   C3A 2825   4.752   7.219   8.530  0.0804  0.0749 -0.0384
  177loPI   C4A 2826   4.390   7.210   8.239 -0.1368 -0.0947 -0.0620
  177loPI   C5A 2827   4.343   6.938   7.934  0.0129 -0.0683  0.4597
  177loPI   C6A 2828   4.113   6.634   7.801  0.3042 -0.3422  0.0762
  177loPI   C1B 2829   5.085   6.673   9.270 -0.0988 -0.0470 -0.0801
  177loPI   C2B 2830   5.234   6.581   8.865 -0.0088 -0.1661  0.0723
  177loPI   C3B 2831   5.402   6.538   8.548 -0.2809 -0.1105  0.1474
  177loPI   C4B 2832   5.624   6.875   8.315  0.0666 -0.0084  0.0096
  178loPI    C1 2833   5.302   4.809  10.581 -0.0543 -0.1823 -0.1025
  178loPI    C2 2834   5.142   4.598  10.881  0.1062 -0.4461 -0.1996
  178loPI    C3 2835   5.527   4.707  10.896  0.0738 -0.3250 -0.2388
  178loPI   PO4 2836   5.122   4.719  10.373 -0.0442  0.1070  0.2250
  178loPI   GL1 2837   5.113   4.829  10.010  0.0098 -0.0322 -0.1132
  178loPI   GL2 2838   5.340   5.078   9.873  0.3939 -0.2924  0.0535
  178loPI   C1A 2839   5.106   4.797   9.497  0.0603 -0.1883 -0.2716
  178loPI   C2A 2840   5.136   4.707   9.077 -0.0337  0.1783  0.2685
  178loPI   C3A 2841   5.055   4.752   8.663  0.2623  0.1382  0.0412
  178loPI   C4A 2842   5.175   4.534   8.256  0.4128 -0.0647 -0.4422
  178loPI   C5A 2843   5.569   4.201   7.983  0.0183 -0.0325  0.0176
  178loPI   C6A 2844   5.713   3.844   7.660  0.2945 -0.0273 -0.2384
  178loPI   C1B 2845   5.332   5.225   9.378  0.1080 -0.0293 -0.2787
  178loPI   C2B 2846   5.372   5.238   9.044  0.5812  0.0418  0.0473
  178loPI   C3B 2847   5.463   4.978   8.628 -0.1871  0.1322  0.4006
  178loPI   C4B 2848   5.474   4.985   8.219  0.0150 -0.0618 -0.2444
  179loPI    C1 2849   6.626   8.136  10.498 -0.1584  0.1500  0.1183
  179loPI    C2 2850   6.692   7.894  10.810  0.0995  0.0579 -0.0047
  179loPI    C3 2851   6.920   8.219  10.757  0.0879  0.0472 -0.1230
  179loPI   PO4 2852   6.600   7.943  10.263 -0.0577  0.1852 -0.0434
  179loPI   GL1 2853   6.295   7.913   9.964 -0.0983 -0.2117  0.2562
  179loPI   GL2 2854   6.035   7.691   9.994 -0.0983 -0.0704  0.0393
  179loPI   C1A 2855   6.398   7.655   9.607  0.3832  0.0313  0.0356
  179loPI   C2A 2856   6.329   7.497   9.252 -0.0836  0.0248  0.2879
  179loPI   C3A 2857   6.336   7.280   8.881  0.0550  0.0521 -0.0199
  179loPI   C4A 2858   6.356   7.401   8.459  0.2817  0.2126  0.2505
  179loPI   C5A 2859   6.316   7.615   8.065  0.1579 -0.4111  0.3577
  179loPI   C6A 2860   6.060   7.892   7.904  0.1598  0.1574 -0.3696
  179loPI   C1B 2861   6.030   7.402   9.718  0.1450 -0.3041 -0.1310
  179loPI   C2B 2862   5.856   7.353   9.384 -0.2323 -0.0361  0.0579
  179loPI   C3B 2863   5.880   7.333   8.971  0.0423  0.0069 -0.2287
  179loPI   C4B 2864   5.992   7.066   8.592 -0.0219 -0.0371  0.0017
  180loPI    C1 2865  16.211  17.250  11.483  0.0959 -0.0488  0.1805
  180loPI    C2 2866  15.935  17.491  11.644 -0.0957 -0.0631 -0.1186
  180loPI    C3 2867  16.039  17.154  11.832  0.1491  0.2283  0.2855
  180loPI   PO4 2868  16.172  17.268  11.164  0.0233  0.2580 -0.1862
  180loPI   GL1 2869  16.038  17.092  10.816 -0.0673 -0.1883 -0.0290
  180loPI   GL2 2870  15.689  17.056  10.934  0.1828  0.1921 -0.0402
  180loPI   C1A 2871  16.132  16.982  10.300  0.2141  0.1981  0.1357
  180loPI   C2A 2872  16.006  16.921   9.872 -0.1980  0.0887 -0.0250
  180loPI   C3A 2873  16.003  16.945   9.479  0.2507  0.0586 -0.1170
  180loPI   C4A 2874  16.093  16.991   9.009  0.0170 -0.0157  0.1154
  180loPI   C5A 2875  16.460  17.109   8.809 -0.0369 -0.1122  0.0209
  180loPI   C6A 2876  16.744  17.274   8.677 -0.0207  0.0014 -0.2505
  180loPI   C1B 2877  15.593  17.068  10.402 -0.2240  0.3730  0.0545
  180loPI   C2B 2878  15.567  17.049   9.984 -0.0333 -0.0743 -0.0407
  180loPI   C3B 2879  15.546  17.038   9.659 -0.0535  0.0666  0.0884
  180loPI   C4B 2880  15.641  17.117   9.181  0.1994 -0.0496  0.2160
  181loPI    C1 2881   9.636  10.784  10.727 -0.0226 -0.0761  0.0043
  181loPI    C2 2882   9.955  10.823  10.965 -0.0426  0.1911 -0.0102
  181loPI    C3 2883   9.602  10.717  11.120  0.0421 -0.0640  0.0120
  181loPI   PO4 2884   9.645  10.657  10.590  0.0114 -0.0251 -0.0847
  181loPI   GL1 2885   9.797  10.650  10.197 -0.1040  0.0324  0.1869
  181loPI   GL2 2886   9.561  10.449  10.031 -0.2297  0.0182  0.0290
  181loPI   C1A 2887  10.064  10.894   9.786  0.1619 -0.1584 -0.0073
  181loPI   C2A 2888  10.067  10.978   9.322 -0.2943 -0.1339  0.2008
  181loPI   C3A 2889  10.222  10.997   8.920 -0.0499 -0.0174  0.7328
  181loPI   C4A 2890  10.463  11.135   8.532 -0.3910 -0.2392 -0.1958
  181loPI   C5A 2891  10.695  11.440   8.404  0.0237  0.1351  0.4462
  181loPI   C6A 2892  11.091  11.461   8.126  0.0329 -0.2096 -0.0375
  181loPI   C1B 2893   9.646  10.695   9.657 -0.1333 -0.2198  0.0297
  181loPI   C2B 2894   9.567  10.677   9.211 -0.2951  0.3900  0.0344
  181loPI   C3B 2895   9.820  10.682   8.867 -0.1226 -0.0600  0.3414
  181loPI   C4B 2896  10.152  10.675   8.512 -0.4374  0.2666 -0.0296
  182loPI    C1 2897   9.895  11.565  10.698 -0.0432  0.0530 -0.0051
  182loPI    C2 2898   9.634  11.748  10.940  0.0636 -0.1384  0.2607
  182loPI    C3 2899  10.022  11.735  11.037  0.1054 -0.2315  0.0856
  182loPI   PO4 2900   9.949  11.617  10.475  0.0134  0.0045  0.5417
  182loPI   GL1 2901  10.221  11.602  10.201 -0.0831 -0.1685  0.3595
  182loPI   GL2 2902  10.171  11.317  10.087  0.1425  0.0116  0.2572
  182loPI   C1A 2903  10.291  11.841   9.873  0.1317  0.1609  0.0834
  182loPI   C2A 2904  10.284  11.861   9.479 -0.0024  0.2111  0.2409
  182loPI   C3A 2905  10.128  11.977   9.102 -0.0110 -0.0397  0.1330
  182loPI   C4A 2906  10.138  12.017   8.786 -0.0268 -0.2989 -0.0246
  182loPI   C5A 2907  10.145  12.225   8.435 -0.1121  0.1113 -0.1950
  182loPI   C6A 2908  10.019  12.505   8.064 -0.0369  0.6838 -0.1548
  182loPI   C1B 2909  10.116  11.392   9.588 -0.1722 -0.1651 -0.2012
  182loPI   C2B 2910  10.283  11.492   9.133 -0.1091  0.0006  0.1031
  182loPI   C3B 2911  10.177  11.531   8.701 -0.0649  0.3246 -0.0931
  182loPI   C4B 2912  10.253  11.743   8.368  0.0731 -0.0372  0.3917
  183loPI    C1 2913   0.384   6.977  10.051  0.0984 -0.0171 -0.0204
  183loPI    C2 2914   0.330   6.744  10.371  0.0158  0.1164  0.0638
  183loPI    C3 2915   0.697   6.873  10.277  0.0097  0.2682  0.2410
  183loPI   PO4 2916   0.277   6.912   9.844 -0.1815 -0.1543  0.0534
  183loPI   GL1 2917   0.241   6.772   9.531  0.1642 -0.1127 -0.1198
  183loPI   GL2 2918   0.456   6.543   9.420  0.0558 -0.2334  0.1340
  183loPI   C1A 2919   0.023   6.673   9.128 -0.1982  0.0308 -0.0525
  183loPI   C2A 2920   0.112   6.678   8.703 -0.1401 -0.1156 -0.1272
  183loPI   C3A 2921   0.130   6.685   8.333  0.0176  0.2614  0.2608
  183loPI   C4A 2922   0.177   6.740   7.912 -0.0055 -0.0198  0.1765
  183loPI   C5A 2923  -0.034   6.958   7.620  0.1229 -0.0541 -0.0280
  183loPI   C6A 2924  -0.288   6.958   7.198  0.4296  0.0899  0.0016
  183loPI   C1B 2925   0.540   6.603   8.984 -0.2251 -0.0613 -0.1263
  183loPI   C2B 2926   0.617   6.610   8.518 -0.1810 -0.0185  0.0536
  183loPI   C3B 2927   0.783   6.530   8.170  0.0108 -0.0161 -0.0835
  183loPI   C4B 2928   0.905   6.536   7.740  0.2534  0.2043  0.1644
  184loPI    C1 2929   3.924  13.957  11.000  0.0603 -0.3494 -0.2173
  184loPI    C2 2930   3.650  13.941  11.291  0.1154  0.0600 -0.1364
  184loPI    C3 2931   4.036  13.886  11.377  0.1044 -0.0879 -0.1789
  184loPI   PO4 2932   3.844  14.061  10.758  0.0496 -0.4913  0.1086
  184loPI   GL1 2933   3.611  14.249  10.412  0.1650 -0.0840 -0.0657
  184loPI   GL2 2934   3.879  14.324  10.300  0.3571 -0.1066 -0.0876
  184loPI   C1A 2935   3.542  13.910  10.050  0.0690  0.0116  0.0114
  184loPI   C2A 2936   3.500  13.903   9.610 -0.1494 -0.1419 -0.0150
  184loPI   C3A 2937   3.472  13.979   9.194 -0.1390  0.5579  0.0569
  184loPI   C4A 2938   3.465  14.068   8.730 -0.3039 -0.1193 -0.4544
  184loPI   C5A 2939   3.344  14.070   8.283 -0.3436  0.2049 -0.1286
  184loPI   C6A 2940   3.053  14.139   8.033 -0.1727 -0.1513  0.0042
  184loPI   C1B 2941   3.742  14.309   9.858  0.0759  0.0536  0.4373
  184loPI   C2B 2942   3.683  14.340   9.452 -0.2441  0.0724  0.1361
  184loPI   C3B 2943   3.446  14.496   9.208  0.1541  0.1136  0.0996
  184loPI   C4B 2944   3.323  14.862   9.084  0.0376  0.0750  0.0099
  185loPI    C1 2945  12.228   7.501  10.405 -0.0816 -0.1557  0.0281
  185loPI    C2 2946  12.047   7.686  10.710 -0.0141  0.0883 -0.0776
  185loPI    C3 2947  12.164   7.305  10.748  0.0452  0.1338  0.2210
  185loPI   PO4 2948  12.086   7.581  10.141  0.1510 -0.0956 -0.2302
  185loPI   GL1 2949  11.832   7.778   9.904 -0.1115  0.0672  0.1885
  185loPI   GL2 2950  11.922   8.130   9.945 -0.1295 -0.3042 -0.1598
  185loPI   C1A 2951  11.887   8.002   9.493  0.0284 -0.0561  0.0133
  185loPI   C2A 2952  11.849   8.091   9.078  0.2986 -0.0870 -0.3715
  185loPI   C3A 2953  11.753   7.947   8.643 -0.3442  0.1371  0.0690
  185loPI   C4A 2954  11.733   7.763   8.236 -0.0421 -0.0188  0.1640
  185loPI   C5A 2955  11.433   7.431   7.937 -0.3258  0.1989  0.1232
  185loPI   C6A 2956  11.342   7.072   8.165 -0.0402  0.2119  0.1998
  185loPI   C1B 2957  11.763   8.419   9.718  0.1059 -0.3621 -0.0026
  185loPI   C2B 2958  11.844   8.477   9.385 -0.0090 -0.1970 -0.1722
  185loPI   C3B 2959  11.820   8.608   9.029  0.0964 -0.1664  0.1408
  185loPI   C4B 2960  11.582   8.458   8.629  0.1371  0.0064  0.1534
  186loPI    C1 2961   5.513  15.880  11.032 -0.0052  0.1486 -0.1606
  186loPI    C2 2962   5.174  15.758  11.205  0.1069  0.1830  0.0867
  186loPI    C3 2963   5.434  15.983  11.410  0.3427  0.0444 -0.0560
  186loPI   PO4 2964   5.424  15.782  10.726  0.0472  0.1022 -0.0999
  186loPI   GL1 2965   5.689  15.863  10.455  0.4308  0.1158  0.0877
  186loPI   GL2 2966   5.871  16.123  10.310 -0.1241 -0.0243 -0.1874
  186loPI   C1A 2967   5.545  15.712  10.135 -0.1167  0.0745  0.2490
  186loPI   C2A 2968   5.414  15.751   9.703  0.0490 -0.1991 -0.1542
  186loPI   C3A 2969   5.497  15.788   9.328  0.4489  0.1938 -0.0311
  186loPI   C4A 2970   5.523  15.826   8.901 -0.3024  0.1355 -0.0021
  186loPI   C5A 2971   5.456  15.963   8.548  0.2121 -0.1468 -0.0607
  186loPI   C6A 2972   5.077  15.871   8.285  0.0445 -0.1610  0.0388
  186loPI   C1B 2973   5.892  16.084   9.851  0.1969 -0.4286  0.2501
  186loPI   C2B 2974   5.794  16.180   9.453  0.1308 -0.1605  0.4557
  186loPI   C3B 2975   5.841  16.251   9.106 -0.0270  0.1760 -0.0666
  186loPI   C4B 2976   5.769  16.386   8.625 -0.1858 -0.2132  0.2730
  187loPI    C1 2977  11.285   6.497  10.509  0.1828  0.0852 -0.2145
  187loPI    C2 2978  11.662   6.366  10.535  0.2006  0.1580 -0.0951
  187loPI    C3 2979  11.503   6.578  10.834 -0.0002 -0.0395 -0.0582
  187loPI   PO4 2980  11.193   6.404  10.293  0.2276 -0.1748  0.3860
  187loPI   GL1 2981  11.397   6.219   9.921  0.0617 -0.0778  0.1928
  187loPI   GL2 2982  11.620   6.346   9.985 -0.1245  0.3001 -0.4483
  187loPI   C1A 2983  11.415   5.972   9.560  0.4403 -0.0273 -0.3032
  187loPI   C2A 2984  11.358   5.939   9.149 -0.0719 -0.2517  0.1310
  187loPI   C3A 2985  11.151   5.912   8.846 -0.3642 -0.0399 -0.1922
  187loPI   C4A 2986  10.791   6.020   8.528  0.1820 -0.0130  0.2015
  187loPI   C5A 2987  10.690   6.088   8.117 -0.3192  0.0494 -0.1911
  187loPI   C6A 2988  10.646   6.138   7.660  0.0287  0.0871 -0.2096
  187loPI   C1B 2989  11.865   6.326   9.621 -0.0660 -0.2384  0.2415
  187loPI   C2B 2990  11.761   6.356   9.208  0.1437  0.0125 -0.0281
  187loPI   C3B 2991  11.626   6.204   8.812  0.1461 -0.1206 -0.0849
  187loPI   C4B 2992  11.742   6.157   8.303 -0.0214  0.0675  0.1021
  188loPI    C1 2993  12.316  13.760  10.808 -0.0513 -0.0849  0.2860
  188loPI    C2 2994  11.946  13.862  10.920 -0.1089 -0.0753  0.0917
  188loPI    C3 2995  12.257  14.089  11.027 -0.1603 -0.0737  0.2406
  188loPI   PO4 2996  12.341  13.597  10.638  0.2920 -0.0500 -0.2999
  188loPI   GL1 2997  11.921  13.546  10.494 -0.3143  0.5123 -0.1234
  188loPI   GL2 2998  12.051  13.427  10.245  0.1863  0.1764 -0.0751
  188loPI   C1A 2999  11.591  13.608  10.134 -0.2316 -0.1645  0.4571
  188loPI   C2A 3000  11.627  13.777   9.682 -0.2186  0.0589  0.2695
  188loPI   C3A 3001  11.629  13.932   9.292  0.2971  0.1292 -0.1589
  188loPI   C4A 3002  11.600  14.101   8.997  0.2444 -0.0699 -0.2668
  188loPI   C5A 3003  11.590  14.025   8.566  0.1393 -0.1314  0.1328
  188loPI   C6A 3004  11.508  14.206   8.148 -0.0802  0.0799  0.2082
  188loPI   C1B 3005  12.061  13.554   9.899  0.0272  0.0088 -0.1884
  188loPI   C2B 3006  12.160  13.706   9.540 -0.0215  0.1460  0.2567
  188loPI   C3B 3007  12.143  13.853   9.032 -0.0468  0.0023  0.1981
  188loPI   C4B 3008  12.152  13.818   8.553  0.0387  0.0630  0.2974
  189loPI    C1 3009  17.084   4.992  10.262 -0.1256  0.1062  0.0130
  189loPI    C2 3010  16.688   4.951  10.302 -0.0993 -0.0083  0.1692
  189loPI    C3 3011  16.934   4.779  10.566  0.0545  0.0839  0.0875
  189loPI   PO4 3012  17.124   4.885   9.977 -0.0353 -0.1081  0.5050
  189loPI   GL1 3013  17.030   4.997   9.615 -0.2356 -0.0012 -0.1355
  189loPI   GL2 3014  17.272   5.212   9.443 -0.2225  0.0952  0.0160
  189loPI   C1A 3015  16.884   5.073   9.190 -0.1650 -0.2137  0.2060
  189loPI   C2A 3016  16.834   5.036   8.792  0.1086  0.1290  0.1227
  189loPI   C3A 3017  16.747   4.794   8.444 -0.3829  0.1148  0.0319
  189loPI   C4A 3018  16.774   4.442   8.148 -0.0518 -0.2807 -0.0352
  189loPI   C5A 3019  16.895   4.070   8.000 -0.1010  0.0852 -0.0236
  189loPI   C6A 3020  16.943   3.655   8.104  0.1516 -0.4181  0.2794
  189loPI   C1B 3021  17.289   5.285   8.990 -0.2252  0.0631  0.0087
  189loPI   C2B 3022  17.385   5.251   8.648  0.2610 -0.1900  0.1166
  189loPI   C3B 3023  17.337   5.292   8.257  0.0532  0.1596 -0.3749
  189loPI   C4B 3024  17.013   5.262   7.873  0.0083 -0.3314 -0.1038
  190loPI    C1 3025  13.337   2.451  10.867  0.1444 -0.1449  0.1579
  190loPI    C2 3026  13.032   2.274  11.056  0.1463  0.0076  0.3053
  190loPI    C3 3027  13.232   2.572  11.233  0.1356  0.1656  0.0552
  190loPI   PO4 3028  13.167   2.478  10.570 -0.3000  0.0208  0.2400
  190loPI   GL1 3029  13.190   2.500  10.129  0.1282  0.0702  0.0320
  190loPI   GL2 3030  13.410   2.363   9.912 -0.1356  0.1215  0.0927
  190loPI   C1A 3031  12.788   2.431   9.765  0.0602 -0.0809 -0.0401
  190loPI   C2A 3032  12.810   2.344   9.281  0.0666 -0.0304 -0.3297
  190loPI   C3A 3033  12.704   2.179   8.791  0.1145  0.2183  0.0442
  190loPI   C4A 3034  12.700   1.727   8.515 -0.0434  0.0044 -0.0952
  190loPI   C5A 3035  12.261   1.555   8.390  0.2446 -0.0648  0.0414
  190loPI   C6A 3036  12.166   1.101   8.440  0.0369 -0.0520  0.1795
  190loPI   C1B 3037  13.240   2.442   9.527 -0.0044 -0.0614 -0.0262
  190loPI   C2B 3038  13.406   2.474   9.055  0.3982 -0.0951  0.2785
  190loPI   C3B 3039  13.135   2.434   8.600 -0.0291 -0.1238 -0.4320
  190loPI   C4B 3040  12.821   2.212   8.280 -0.0132 -0.1995  0.0275
  191loPI    C1 3041   2.489  10.669  10.345  0.2014 -0.0872 -0.0542
  191loPI    C2 3042   2.441  10.826  10.709 -0.3310  0.0749 -0.1853
  191loPI    C3 3043   2.413  10.431  10.657 -0.1133  0.0376 -0.0310
  191loPI   PO4 3044   2.364  10.771  10.138 -0.3482  0.0717  0.2656
  191loPI   GL1 3045   2.266  10.774   9.850 -0.0026  0.0641 -0.0862
  191loPI   GL2 3046   2.114  10.510   9.731  0.0933  0.0050  0.0591
  191loPI   C1A 3047   2.279  11.016   9.518 -0.1733  0.1113 -0.1044
  191loPI   C2A 3048   2.332  11.002   9.030 -0.0786 -0.0165  0.0729
  191loPI   C3A 3049   2.334  11.020   8.645 -0.2748  0.0120 -0.0954
  191loPI   C4A 3050   2.295  10.972   8.293  0.0240 -0.1143 -0.2637
  191loPI   C5A 3051   2.367  10.813   7.869  0.1508 -0.1122  0.0227
  191loPI   C6A 3052   2.559  10.494   7.557  0.1515  0.1141  0.1348
  191loPI   C1B 3053   2.003  10.668   9.251  0.0907  0.0692  0.2576
  191loPI   C2B 3054   2.001  10.683   8.820 -0.2220 -0.1330  0.1813
  191loPI   C3B 3055   2.180  10.537   8.457 -0.1704 -0.0803  0.3837
  191loPI   C4B 3056   2.249  10.330   8.026 -0.1212  0.0923 -0.0770
  192loPI    C1 3057   9.449   1.051  10.775  0.2029  0.2949  0.0908
  192loPI    C2 3058   9.270   1.116  11.127 -0.0890  0.1383 -0.0253
  192loPI    C3 3059   9.651   0.997  11.116 -0.0773  0.1455  0.2370
  192loPI   PO4 3060   9.378   1.299  10.626 -0.2608 -0.2272  0.2022
  192loPI   GL1 3061   9.229   1.305  10.254  0.0781  0.0462  0.0769
  192loPI   GL2 3062   9.015   1.153  10.249  0.1607 -0.2265  0.0225
  192loPI   C1A 3063   9.344   1.347   9.765  0.2868 -0.1497 -0.0310
  192loPI   C2A 3064   9.322   1.360   9.323  0.3780  0.2085 -0.1065
  192loPI   C3A 3065   9.441   1.314   8.857 -0.2108 -0.1397 -0.1208
  192loPI   C4A 3066   9.293   1.042   8.517  0.0505 -0.1854  0.1721
  192loPI   C5A 3067   9.381   0.850   8.106  0.1193  0.0106  0.0855
  192loPI   C6A 3068   9.390   1.021   7.691  0.1383  0.2081 -0.1672
  192loPI   C1B 3069   8.950   1.021   9.819 -0.0845 -0.1008  0.0635
  192loPI   C2B 3070   8.958   1.073   9.389  0.1083 -0.3448 -0.1632
  192loPI   C3B 3071   9.034   0.931   8.928 -0.2034  0.2004 -0.0642
  192loPI   C4B 3072   8.723   0.916   8.673 -0.0442  0.2796 -0.1212
  193loPI    C1 3073   9.408   4.597  10.879 -0.1748 -0.0549 -0.0919
  193loPI    C2 3074   9.028   4.476  10.899 -0.0834 -0.2854  0.4115
  193loPI    C3 3075   9.309   4.284  11.109  0.3252 -0.1575 -0.0042
  193loPI   PO4 3076   9.435   4.649  10.665  0.1512 -0.1296 -0.1039
  193loPI   GL1 3077   9.405   4.943  10.346  0.0651 -0.2351 -0.0668
  193loPI   GL2 3078   9.512   5.373  10.306  0.2444 -0.2550 -0.1610
  193loPI   C1A 3079   9.227   4.857   9.913  0.2490 -0.1621  0.2220
  193loPI   C2A 3080   9.130   4.945   9.445 -0.0627 -0.2877 -0.1305
  193loPI   C3A 3081   9.130   4.847   9.011 -0.1431 -0.1988 -0.0590
  193loPI   C4A 3082   9.117   4.605   8.644  0.0601  0.0073 -0.0210
  193loPI   C5A 3083   8.985   4.414   8.352 -0.2053 -0.2273 -0.0699
  193loPI   C6A 3084   8.568   4.143   8.367 -0.0776 -0.0169 -0.1875
  193loPI   C1B 3085   9.618   5.198   9.996 -0.3305  0.2457 -0.1083
  193loPI   C2B 3086   9.510   5.229   9.595  0.2062  0.0089 -0.1600
  193loPI   C3B 3087   9.578   5.126   9.213  0.1490  0.1640 -0.0546
  193loPI   C4B 3088   9.524   5.076   8.678 -0.3559  0.1544 -0.1223
  194loPI    C1 3089   1.939  11.576  10.612  0.0494  0.1745 -0.1226
  194loPI    C2 3090   1.702  11.818  10.825 -0.0540 -0.0236 -0.0097
  194loPI    C3 3091   1.978  11.596  11.010  0.1183  0.0924 -0.1251
  194loPI   PO4 3092   1.790  11.490  10.408  0.3909  0.1657 -0.1394
  194loPI   GL1 3093   1.807  11.603   9.945  0.3192 -0.4044  0.1762
  194loPI   GL2 3094   1.442  11.664   9.967  0.1028  0.0548 -0.2904
  194loPI   C1A 3095   1.864  11.457   9.593 -0.1213 -0.2521  0.0673
  194loPI   C2A 3096   1.781  11.629   9.029 -0.0028 -0.2741  0.3038
  194loPI   C3A 3097   1.664  11.686   8.663 -0.0794  0.1943  0.0904
  194loPI   C4A 3098   1.650  11.590   8.205  0.1205  0.0917 -0.0397
  194loPI   C5A 3099   1.349  11.644   7.738 -0.0668 -0.0468 -0.1049
  194loPI   C6A 3100   1.258  11.764   7.333  0.3694 -0.2086  0.0395
  194loPI   C1B 3101   1.434  11.911   9.539  0.0780 -0.4971 -0.1162
  194loPI   C2B 3102   1.373  11.970   9.115  0.0325  0.1035 -0.0755
  194loPI   C3B 3103   1.564  12.156   8.737 -0.1938 -0.2550 -0.0790
  194loPI   C4B 3104   1.583  12.122   8.380 -0.1033  0.1314 -0.1171
  195loPI    C1 3105   0.474   1.683  10.741  0.0956  0.0749 -0.0337
  195loPI    C2 3106   0.821   1.862  10.826  0.1000  0.1208 -0.1462
  195loPI    C3 3107   0.477   2.056  10.886  0.0868  0.0261  0.0925
  195loPI   PO4 3108   0.510   1.467  10.632  0.0609  0.0469  0.0605
  195loPI   GL1 3109   0.594   1.173  10.310 -0.2606 -0.1373 -0.0075
  195loPI   GL2 3110   0.180   1.064  10.402  0.0991 -0.0911  0.1134
  195loPI   C1A 3111   0.542   0.934   9.948  0.0905  0.2653 -0.3116
  195loPI   C2A 3112   0.550   0.719   9.526  0.0052  0.1544  0.0653
  195loPI   C3A 3113   0.568   0.592   9.076  0.1970  0.4414  0.1598
  195loPI   C4A 3114   0.584   0.625   8.685 -0.0052 -0.0631 -0.3802
  195loPI   C5A 3115   0.462   0.615   8.231 -0.1989 -0.2861 -0.0504
  195loPI   C6A 3116   0.391   0.857   7.845  0.2529  0.1806  0.1524
  195loPI   C1B 3117   0.001   0.833   9.984  0.1338  0.0173 -0.0187
  195loPI   C2B 3118  -0.007   0.868   9.649  0.0011 -0.2062 -0.0827
  195loPI   C3B 3119   0.086   0.744   9.177 -0.0054 -0.2348 -0.1515
  195loPI   C4B 3120   0.005   0.823   8.805 -0.0313 -0.0756  0.2340
  196loPI    C1 3121  14.131  15.790  11.278  0.2229 -0.0995  0.0030
  196loPI    C2 3122  14.167  15.763  11.676 -0.2322  0.1602  0.0689
  196loPI    C3 3123  14.056  16.109  11.508 -0.0601  0.0485 -0.2868
  196loPI   PO4 3124  14.343  15.757  11.133 -0.1156 -0.0565 -0.0246
  196loPI   GL1 3125  14.491  15.668  10.707 -0.0847 -0.0892  0.2682
  196loPI   GL2 3126  14.558  15.282  10.616 -0.0999 -0.0453  0.1158
  196loPI   C1A 3127  14.458  15.816  10.241  0.2047 -0.2085  0.1418
  196loPI   C2A 3128  14.391  15.899   9.809 -0.1764 -0.1573  0.1306
  196loPI   C3A 3129  14.371  15.904   9.394  0.1171  0.0616  0.3122
  196loPI   C4A 3130  14.435  15.931   8.935 -0.0922 -0.1284  0.0268
  196loPI   C5A 3131  14.613  15.994   8.607  0.0895  0.1428 -0.0880
  196loPI   C6A 3132  15.006  16.003   8.469  0.2119 -0.2874 -0.0273
  196loPI   C1B 3133  14.500  15.341  10.191  0.0277  0.0543  0.0537
  196loPI   C2B 3134  14.530  15.442   9.729 -0.0075  0.2853 -0.0715
  196loPI   C3B 3135  14.515  15.446   9.299 -0.0042  0.3561 -0.0432
  196loPI   C4B 3136  14.384  15.430   8.793 -0.0619  0.0077  0.1535
  197loPI    C1 3137  14.839   2.427  10.925 -0.2043 -0.1718 -0.1876
  197loPI    C2 3138  14.913   2.034  10.926  0.0071 -0.1370  0.2377
  197loPI    C3 3139  14.835   2.223  11.269  0.1755  0.2417  0.0730
  197loPI   PO4 3140  15.027   2.471  10.714  0.2155  0.3371  0.2781
  197loPI   GL1 3141  14.848   2.858  10.299 -0.1880  0.2474  0.0645
  197loPI   GL2 3142  14.775   2.466  10.275  0.1625  0.1882 -0.0050
  197loPI   C1A 3143  14.761   2.871   9.854  0.0878  0.0457 -0.0289
  197loPI   C2A 3144  14.748   3.007   9.429  0.0558  0.1490  0.3010
  197loPI   C3A 3145  14.840   2.824   8.998  0.1121  0.3531 -0.2267
  197loPI   C4A 3146  14.780   2.667   8.652 -0.3022 -0.1775 -0.0440
  197loPI   C5A 3147  15.049   2.732   8.198 -0.0048 -0.2438 -0.2150
  197loPI   C6A 3148  15.284   2.996   7.912  0.0161 -0.0435  0.0819
  197loPI   C1B 3149  14.788   2.388   9.769 -0.0202  0.0876 -0.1234
  197loPI   C2B 3150  14.799   2.196   9.328  0.2600  0.6902 -0.2251
  197loPI   C3B 3151  14.889   2.157   8.900  0.1445 -0.1475  0.2059
  197loPI   C4B 3152  14.991   2.105   8.420  0.0861 -0.0794 -0.1063
  198loPI    C1 3153  10.047  16.542  11.275  0.3631  0.1460 -0.1716
  198loPI    C2 3154   9.940  16.870  11.476 -0.0704 -0.1179  0.0447
  198loPI    C3 3155  10.163  16.590  11.654 -0.0977 -0.1573  0.0171
  198loPI   PO4 3156   9.925  16.557  11.063  0.1162 -0.1383 -0.1527
  198loPI   GL1 3157   9.995  16.557  10.665  0.0739 -0.2688  0.1382
  198loPI   GL2 3158  10.273  16.721  10.552  0.2632  0.2531  0.2338
  198loPI   C1A 3159  10.090  16.330  10.279 -0.2292 -0.0927 -0.0117
  198loPI   C2A 3160  10.062  16.310   9.846  0.0503 -0.1947  0.4327
  198loPI   C3A 3161  10.074  16.412   9.434 -0.0153  0.1834 -0.1200
  198loPI   C4A 3162  10.180  16.471   9.043 -0.1609 -0.2379  0.0844
  198loPI   C5A 3163  10.127  16.377   8.560  0.0327  0.0294 -0.0402
  198loPI   C6A 3164  10.236  16.623   8.246 -0.1913  0.0623  0.0756
  198loPI   C1B 3165  10.422  16.682  10.109 -0.0084  0.0883  0.1284
  198loPI   C2B 3166  10.493  16.723   9.629 -0.3279  0.4566 -0.0514
  198loPI   C3B 3167  10.593  16.719   9.197 -0.0158  0.2251  0.4192
  198loPI   C4B 3168  10.631  16.722   8.771  0.0662 -0.1433 -0.2122
  199loPI    C1 3169  13.631  15.171  11.162 -0.1703 -0.1203 -0.0025
  199loPI    C2 3170  13.923  14.901  11.206  0.1760  0.2140 -0.1951
  199loPI    C3 3171  13.663  14.964  11.503  0.3856  0.0122  0.0353
  199loPI   PO4 3172  13.758  15.436  11.106  0.2311 -0.1549 -0.0628
  199loPI   GL1 3173  13.941  15.700  10.768  0.0342 -0.0629 -0.1138
  199loPI   GL2 3174  13.646  15.647  10.667 -0.1056 -0.1136 -0.1909
  199loPI   C1A 3175  14.078  15.450  10.402  0.0635  0.0573  0.1098
  199loPI   C2A 3176  14.042  15.540  10.017  0.3750  0.0729  0.0210
  199loPI   C3A 3177  14.076  15.559   9.538  0.0973 -0.0595 -0.0157
  199loPI   C4A 3178  14.019  15.653   9.133 -0.0565 -0.2114 -0.0435
  199loPI   C5A 3179  13.965  15.701   8.677 -0.2967 -0.1196 -0.0446
  199loPI   C6A 3180  14.257  15.810   8.277  0.0549 -0.2398 -0.1905
  199loPI   C1B 3181  13.536  15.607  10.274 -0.2181 -0.1902 -0.0720
  199loPI   C2B 3182  13.550  15.686   9.858  0.2006 -0.3396 -0.0840
  199loPI   C3B 3183  13.482  15.727   9.417 -0.0769 -0.1483 -0.0865
  199loPI   C4B 3184  13.564  15.778   8.934 -0.0816 -0.0116 -0.1478
  200loPI    C1 3185   9.303  17.069  11.041  0.3241  0.1418 -0.0627
  200loPI    C2 3186   9.108  17.198  11.366  0.2346 -0.1273 -0.0065
  200loPI    C3 3187   9.508  17.186  11.364  0.2363 -0.0891  0.0789
  200loPI   PO4 3188   9.220  17.161  10.837  0.3608  0.3393  0.0278
  200loPI   GL1 3189   8.899  17.013  10.509 -0.1349  0.2587 -0.1854
  200loPI   GL2 3190   9.174  17.095  10.338 -0.1692  0.0358 -0.1079
  200loPI   C1A 3191   8.709  17.097  10.106  0.3144  0.3679  0.3004
  200loPI   C2A 3192   8.821  16.931   9.684 -0.1164 -0.3136 -0.0589
  200loPI   C3A 3193   9.020  17.047   9.378  0.1594 -0.2074 -0.2553
  200loPI   C4A 3194   8.975  17.154   8.964 -0.1951  0.1474 -0.1737
  200loPI   C5A 3195   8.936  17.482   8.648 -0.0626  0.0632 -0.2505
  200loPI   C6A 3196   8.808  17.894   8.518  0.2918  0.1197  0.0593
  200loPI   C1B 3197   9.239  16.971   9.927 -0.1420 -0.2352 -0.1757
  200loPI   C2B 3198   9.503  17.042   9.595  0.2008  0.0719  0.0285
  200loPI   C3B 3199   9.473  16.939   9.205  0.2941  0.1168 -0.1083
  200loPI   C4B 3200   9.442  17.082   8.754  0.2403  0.3184 -0.1159
  201loPI    C1 3201  15.287  10.129  10.312 -0.0005 -0.0691  0.2506
  201loPI    C2 3202  15.064  10.410  10.489  0.0084  0.0426  0.0868
  201loPI    C3 3203  15.462  10.447  10.481  0.0382 -0.1741  0.4098
  201loPI   PO4 3204  15.272  10.075  10.129  0.1880  0.1118 -0.0151
  201loPI   GL1 3205  15.210  10.226   9.696 -0.0724 -0.2209 -0.0105
  201loPI   GL2 3206  15.498  10.310   9.458  0.0540  0.1033 -0.1958
  201loPI   C1A 3207  14.987  10.361   9.338 -0.1322  0.3201  0.1560
  201loPI   C2A 3208  15.147  10.442   9.013 -0.1049  0.3357  0.3012
  201loPI   C3A 3209  15.134  10.510   8.675 -0.1706  0.2757  0.0036
  201loPI   C4A 3210  15.232  10.592   8.241  0.1601 -0.0026  0.0137
  201loPI   C5A 3211  15.434  10.684   7.843 -0.1338 -0.1230 -0.0891
  201loPI   C6A 3212  15.663  11.031   7.756 -0.1282 -0.0383 -0.1613
  201loPI   C1B 3213  15.692  10.603   9.093  0.1480 -0.2349  0.4366
  201loPI   C2B 3214  15.606  10.701   8.683  0.1450  0.0822  0.3588
  201loPI   C3B 3215  15.676  10.991   8.496  0.0900  0.3157 -0.0568
  201loPI   C4B 3216  15.654  11.299   8.149 -0.0229  0.1922 -0.1482
  202loPI    C1 3217   3.262   5.774  10.259 -0.1127 -0.0242  0.1551
  202loPI    C2 3218   3.107   5.681  10.616 -0.0814 -0.2741  0.1058
  202loPI    C3 3219   3.482   5.575  10.527 -0.0535 -0.1200  0.0365
  202loPI   PO4 3220   3.201   5.926  10.140 -0.1198 -0.0723 -0.0645
  202loPI   GL1 3221   2.883   5.880   9.808 -0.0157 -0.0666 -0.0476
  202loPI   GL2 3222   3.128   5.675   9.697 -0.0243 -0.0427 -0.1330
  202loPI   C1A 3223   2.720   5.906   9.432  0.0160 -0.0355 -0.1430
  202loPI   C2A 3224   2.777   5.990   9.009  0.0574  0.0483 -0.0679
  202loPI   C3A 3225   2.935   6.017   8.561 -0.1624 -0.0214  0.3289
  202loPI   C4A 3226   2.997   5.950   8.142  0.0170  0.0899  0.0988
  202loPI   C5A 3227   3.170   5.957   7.696  0.2485  0.3400 -0.1505
  202loPI   C6A 3228   3.599   6.078   7.707 -0.1171 -0.0811 -0.0670
  202loPI   C1B 3229   3.200   5.801   9.320 -0.3060 -0.1974  0.2767
  202loPI   C2B 3230   3.278   5.749   8.905 -0.0117 -0.1552  0.2800
  202loPI   C3B 3231   3.483   5.660   8.485 -0.1366 -0.0971  0.0489
  202loPI   C4B 3232   3.377   5.591   8.045 -0.3097 -0.2448 -0.0869
  203loPI    C1 3233  10.047   8.862  10.364 -0.0294 -0.3161 -0.0482
  203loPI    C2 3234  10.022   9.128  10.662  0.0182 -0.0092 -0.3134
  203loPI    C3 3235  10.040   8.737  10.744 -0.0639  0.0658  0.0808
  203loPI   PO4 3236  10.156   9.056  10.218  0.2585  0.2279  0.0455
  203loPI   GL1 3237  10.185   9.027   9.876 -0.0215  0.1847 -0.1734
  203loPI   GL2 3238   9.954   9.197   9.731  0.0892 -0.1586 -0.0867
  203loPI   C1A 3239  10.417   8.931   9.578 -0.0715  0.1527  0.2112
  203loPI   C2A 3240  10.551   8.900   9.186 -0.0462  0.4797 -0.0971
  203loPI   C3A 3241  10.346   8.839   8.750  0.0136  0.0021 -0.1826
  203loPI   C4A 3242  10.083   8.679   8.482 -0.2453  0.0497 -0.1984
  203loPI   C5A 3243  10.029   8.504   8.066 -0.0757 -0.3225 -0.0469
  203loPI   C6A 3244  10.090   8.272   7.775  0.2423  0.0431 -0.4531
  203loPI   C1B 3245  10.060   9.245   9.263 -0.0915 -0.2174  0.0804
  203loPI   C2B 3246  10.153   9.311   8.869  0.3239  0.1746  0.1219
  203loPI   C3B 3247  10.074   9.149   8.473 -0.1251 -0.2998  0.0210
  203loPI   C4B 3248  10.263   9.042   8.152  0.0749  0.0896  0.0072
  204loPI    C1 3249   6.596  16.626  11.220 -0.1286  0.1098 -0.1741
  204loPI    C2 3250   6.355  16.307  11.199 -0.1314  0.1070 -0.0989
  204loPI    C3 3251   6.292  16.588  11.477 -0.0945  0.1447 -0.1285
  204loPI   PO4 3252   6.618  16.614  10.917  0.1837  0.1362 -0.0453
  204loPI   GL1 3253   6.441  16.401  10.594 -0.3640  0.0045 -0.1026
  204loPI   GL2 3254   6.171  16.590  10.441  0.0665 -0.0616  0.1010
  204loPI   C1A 3255   6.663  16.366  10.215 -0.1628 -0.1280  0.1018
  204loPI   C2A 3256   6.677  16.342   9.756 -0.1891  0.3616 -0.2198
  204loPI   C3A 3257   6.816  16.410   9.339  0.0683 -0.1884 -0.1023
  204loPI   C4A 3258   6.766  16.363   8.868  0.0047 -0.0309  0.0260
  204loPI   C5A 3259   6.887  16.369   8.432  0.0453 -0.1406 -0.0915
  204loPI   C6A 3260   6.719  16.165   8.057  0.1086 -0.0955 -0.4325
  204loPI   C1B 3261   6.196  16.532  10.004 -0.1628  0.4938  0.5177
  204loPI   C2B 3262   6.201  16.447   9.629  0.0383 -0.1190 -0.0717
  204loPI   C3B 3263   6.322  16.566   9.148 -0.0636 -0.1059  0.0586
  204loPI   C4B 3264   6.289  16.560   8.681  0.0235  0.1476  0.0021
  205loPI    C1 3265   8.960  11.748  10.439 -0.1247 -0.3120  0.0290
  205loPI    C2 3266   9.115  11.781  10.806 -0.0485 -0.2917 -0.0048
  205loPI    C3 3267   8.810  11.531  10.740 -0.1310 -0.2187  0.0937
  205loPI   PO4 3268   9.029  11.951  10.338  0.0674  0.0513 -0.1165
  205loPI   GL1 3269   9.167  11.981   9.943 -0.2408  0.0769 -0.1633
  205loPI   GL2 3270   9.428  12.273  10.035  0.0203  0.0349  0.1136
  205loPI   C1A 3271   9.171  11.869   9.521 -0.2411 -0.1288 -0.0256
  205loPI   C2A 3272   9.198  11.921   9.000  0.4233 -0.2939 -0.0020
  205loPI   C3A 3273   9.281  11.837   8.580  0.2454  0.1107 -0.1494
  205loPI   C4A 3274   9.261  12.108   8.202 -0.2116  0.0524  0.0190
  205loPI   C5A 3275   9.127  12.618   8.158  0.1265 -0.0045  0.2588
  205loPI   C6A 3276   9.317  12.911   7.959  0.2048  0.2133 -0.1178
  205loPI   C1B 3277   9.560  12.139   9.614 -0.1573  0.0732  0.3285
  205loPI   C2B 3278   9.619  12.165   9.214 -0.0840 -0.1231  0.1091
  205loPI   C3B 3279   9.637  12.235   8.736 -0.0564 -0.1526 -0.1925
  205loPI   C4B 3280   9.554  12.434   8.368 -0.0544 -0.2542  0.3762
  206loPI    C1 3281   3.200   2.802  10.716 -0.3050 -0.0428 -0.0456
  206loPI    C2 3282   2.891   3.056  10.725 -0.1434  0.1535  0.0484
  206loPI    C3 3283   2.896   2.738  10.968 -0.4283 -0.0400 -0.1929
  206loPI   PO4 3284   3.150   2.739  10.424 -0.0767 -0.0500 -0.0903
  206loPI   GL1 3285   2.877   2.655  10.095 -0.1390 -0.0899 -0.2330
  206loPI   GL2 3286   2.957   2.301  10.107 -0.1709 -0.0848  0.1741
  206loPI   C1A 3287   2.980   2.645   9.560  0.0463 -0.0861  0.0289
  206loPI   C2A 3288   2.985   2.748   9.253 -0.1816  0.3528 -0.2508
  206loPI   C3A 3289   3.044   2.408   8.921  0.2047  0.0402  0.0854
  206loPI   C4A 3290   2.965   2.436   8.437  0.3189  0.0962 -0.1771
  206loPI   C5A 3291   3.199   2.357   8.163  0.1567 -0.0644 -0.1611
  206loPI   C6A 3292   3.443   2.464   7.779  0.4945 -0.3825 -0.3607
  206loPI   C1B 3293   3.131   1.960   9.872 -0.0402  0.1201 -0.4564
  206loPI   C2B 3294   3.042   1.864   9.428 -0.2508 -0.5023 -0.0094
  206loPI   C3B 3295   3.150   1.950   9.042  0.1488  0.3337  0.2324
  206loPI   C4B 3296   3.143   1.927   8.618 -0.0884  0.1116 -0.0863
  207loPI    C1 3297   4.455  13.938  11.107  0.0831  0.1442  0.0906
  207loPI    C2 3298   4.602  14.202  11.369 -0.1345  0.1659  0.1933
  207loPI    C3 3299   4.322  14.316  11.108  0.0777  0.1430 -0.0476
  207loPI   PO4 3300   4.699  13.887  10.985  0.1625  0.1021  0.0289
  207loPI   GL1 3301   4.777  13.933  10.523 -0.1555  0.1472  0.1826
  207loPI   GL2 3302   5.097  14.054  10.449 -0.1543  0.0878 -0.0907
  207loPI   C1A 3303   4.550  14.137  10.141  0.1642  0.1377  0.1308
  207loPI   C2A 3304   4.523  14.085   9.704  0.2869 -0.0915 -0.1081
  207loPI   C3A 3305   4.541  14.233   9.310 -0.0442 -0.3001  0.1984
  207loPI   C4A 3306   4.444  14.242   8.928  0.0239 -0.2186 -0.2445
  207loPI   C5A 3307   4.170  14.288   8.597 -0.2015  0.1541  0.0301
  207loPI   C6A 3308   3.728  14.348   8.412 -0.1895 -0.1271  0.0734
  207loPI   C1B 3309   4.976  13.978  10.020  0.2771  0.2638 -0.2877
  207loPI   C2B 3310   5.045  13.953   9.584 -0.3845 -0.0053  0.1715
  207loPI   C3B 3311   5.002  14.054   9.171 -0.2271 -0.1428 -0.4226
  207loPI   C4B 3312   4.875  14.065   8.790  0.3870  0.0099  0.2547
  208loPI    C1 3313   7.980  11.080  10.467 -0.1386  0.0458 -0.3901
  208loPI    C2 3314   7.581  11.095  10.445 -0.1826 -0.0272  0.1915
  208loPI    C3 3315   7.776  10.772  10.314 -0.2866  0.1088 -0.3225
  208loPI   PO4 3316   8.029  11.358  10.420  0.0060 -0.0226 -0.0826
  208loPI   GL1 3317   8.102  11.675  10.090  0.2275 -0.1890  0.2213
  208loPI   GL2 3318   7.845  11.942  10.126  0.2007  0.0649  0.0002
  208loPI   C1A 3319   8.287  11.769   9.717 -0.1583 -0.1286 -0.0350
  208loPI   C2A 3320   8.190  11.873   9.238  0.0102 -0.4037  0.2625
  208loPI   C3A 3321   8.066  11.835   8.935  0.0592  0.2347 -0.2019
  208loPI   C4A 3322   8.010  11.704   8.482  0.0336  0.2104  0.0492
  208loPI   C5A 3323   8.278  11.841   8.027 -0.2796  0.2732 -0.2983
  208loPI   C6A 3324   8.703  11.860   8.079  0.0738 -0.2408 -0.0373
  208loPI   C1B 3325   7.806  12.088   9.696 -0.1707  0.1463 -0.1247
  208loPI   C2B 3326   7.752  12.138   9.255 -0.0602 -0.4448 -0.1749
  208loPI   C3B 3327   7.581  12.072   8.909  0.1192 -0.2192  0.1081
  208loPI   C4B 3328   7.447  12.080   8.514 -0.0257 -0.1167 -0.0226
  209loPI    C1 3329  17.799  12.763  10.476  0.0005 -0.1347 -0.2001
  209loPI    C2 3330  17.425  12.695  10.598  0.0032 -0.1143 -0.1799
  209loPI    C3 3331  17.653  12.960  10.792  0.0107 -0.0878 -0.2246
  209loPI   PO4 3332  17.814  12.774  10.248 -0.0012  0.1591 -0.0598
  209loPI   GL1 3333  17.637  12.441   9.993 -0.0742 -0.2977  0.1318
  209loPI   GL2 3334  17.388  12.554  10.118  0.0853  0.0796 -0.1045
  209loPI   C1A 3335  17.600  12.598   9.592  0.2661  0.0053 -0.0274
  209loPI   C2A 3336  17.658  12.698   9.130  0.0361 -0.1343  0.3036
  209loPI   C3A 3337  17.669  12.856   8.750  0.1578  0.1781  0.0917
  209loPI   C4A 3338  17.539  12.708   8.384  0.3036  0.1355 -0.0107
  209loPI   C5A 3339  17.193  12.654   8.147  0.1170 -0.2372  0.1614
  209loPI   C6A 3340  16.860  12.389   7.745  0.4353  0.4094 -0.1574
  209loPI   C1B 3341  17.144  12.696   9.869  0.0997  0.1923  0.1242
  209loPI   C2B 3342  17.131  12.821   9.498  0.0152  0.3484  0.1140
  209loPI   C3B 3343  17.142  12.905   9.010 -0.0634  0.2851 -0.1599
  209loPI   C4B 3344  17.027  12.982   8.564  0.3166 -0.0159  0.2321
  210loPI    C1 3345   3.628  14.401  11.060  0.0753  0.2711 -0.0737
  210loPI    C2 3346   3.508  14.534  11.418  0.0388 -0.1367  0.0707
  210loPI    C3 3347   3.878  14.388  11.373  0.2477  0.4435 -0.2014
  210loPI   PO4 3348   3.405  14.500  10.863  0.1091 -0.0495 -0.0813
  210loPI   GL1 3349   3.315  14.718  10.510  0.0106 -0.1281  0.2332
  210loPI   GL2 3350   3.304  15.003  10.343  0.1038 -0.1106 -0.0881
  210loPI   C1A 3351   3.299  14.514  10.122 -0.3363 -0.1314 -0.0959
  210loPI   C2A 3352   3.240  14.539   9.736  0.1088  0.0308  0.0374
  210loPI   C3A 3353   2.980  14.711   9.445  0.1777 -0.0009  0.3044
  210loPI   C4A 3354   2.837  14.740   9.018 -0.0255  0.0734  0.3475
  210loPI   C5A 3355   2.891  14.795   8.560  0.0187  0.2379  0.2027
  210loPI   C6A 3356   3.190  15.093   8.503  0.0593 -0.0243 -0.0759
  210loPI   C1B 3357   3.606  15.305  10.062 -0.3003  0.0810 -0.0394
  210loPI   C2B 3358   3.679  15.371   9.683  0.3073 -0.1178 -0.0999
  210loPI   C3B 3359   4.087  15.289   9.504  0.0235  0.3432  0.0432
  210loPI   C4B 3360   4.311  15.243   9.194  0.0643 -0.2532 -0.0949
  211loPI    C1 3361   2.343   9.936  10.544 -0.1015 -0.1064 -0.1200
  211loPI    C2 3362   2.568   9.628  10.664 -0.1060 -0.0844 -0.0545
  211loPI    C3 3363   2.184   9.651  10.774 -0.0515  0.0503  0.1129
  211loPI   PO4 3364   2.506  10.005  10.282  0.0168  0.1391 -0.1074
  211loPI   GL1 3365   2.556  10.298   9.910 -0.0222  0.0074  0.0872
  211loPI   GL2 3366   2.746  10.577   9.862  0.0216  0.1578 -0.1728
  211loPI   C1A 3367   2.490  10.388   9.421 -0.1782  0.3280  0.2129
  211loPI   C2A 3368   2.465  10.480   9.047 -0.1934  0.0577 -0.0576
  211loPI   C3A 3369   2.631  10.418   8.686  0.0813 -0.3198  0.0817
  211loPI   C4A 3370   2.632  10.618   8.269  0.1417 -0.0326  0.1509
  211loPI   C5A 3371   2.892  10.534   7.926 -0.0687  0.1328  0.0698
  211loPI   C6A 3372   3.003  10.667   7.446  0.0241 -0.2424  0.0354
  211loPI   C1B 3373   2.810  10.795   9.373  0.1907  0.1430  0.1546
  211loPI   C2B 3374   2.778  10.829   8.996 -0.1059  0.0739 -0.1424
  211loPI   C3B 3375   2.892  10.873   8.639  0.0304  0.1592  0.0990
  211loPI   C4B 3376   2.846  11.020   8.197 -0.0274 -0.0730 -0.3104
  212loPI    C1 3377  17.640  10.271  10.081 -0.0951 -0.0590 -0.0772
  212loPI    C2 3378  17.241  10.271  10.095 -0.0941 -0.0252 -0.0488
  212loPI    C3 3379  17.443  10.612  10.149 -0.0618 -0.0398 -0.0768
  212loPI   PO4 3380  17.711  10.146   9.893  0.1926 -0.0917 -0.1376
  212loPI   GL1 3381  17.825   9.786   9.622 -0.2604 -0.0460 -0.2023
  212loPI   GL2 3382  17.589  10.035   9.383  0.0206  0.0761 -0.0157
  212loPI   C1A 3383  17.785   9.592   9.244  0.1193 -0.0809 -0.2426
  212loPI   C2A 3384  17.730   9.634   8.864 -0.0109 -0.1275 -0.0037
  212loPI   C3A 3385  17.744   9.606   8.456  0.0419 -0.0938  0.3035
  212loPI   C4A 3386  17.851   9.389   8.074 -0.0527 -0.0738  0.0493
  212loPI   C5A 3387  18.079   9.472   7.802 -0.2365  0.0496 -0.1856
  212loPI   C6A 3388  18.152   9.569   7.353  0.0718 -0.3983  0.1146
  212loPI   C1B 3389  17.516  10.252   9.011  0.1213  0.1143 -0.0460
  212loPI   C2B 3390  17.373  10.351   8.711 -0.0614 -0.1598  0.0216
  212loPI   C3B 3391  17.340  10.719   8.404  0.0552 -0.1706 -0.1518
  212loPI   C4B 3392  17.315  10.780   7.952  0.1368  0.1748  0.0870
  213loPI    C1 3393  10.443   5.655  10.904 -0.0468  0.1975 -0.0592
  213loPI    C2 3394  10.351   5.868  11.230  0.1332  0.0847  0.0670
  213loPI    C3 3395  10.469   5.487  11.266 -0.1564 -0.0299 -0.1549
  213loPI   PO4 3396  10.597   5.961  10.712  0.2134  0.3168  0.1555
  213loPI   GL1 3397  10.679   5.819  10.285 -0.2075  0.1942  0.1642
  213loPI   GL2 3398  10.711   6.120  10.227 -0.1073  0.0112  0.0104
  213loPI   C1A 3399  10.467   5.747   9.930 -0.0446  0.0823  0.3832
  213loPI   C2A 3400  10.378   5.778   9.482 -0.0236 -0.1486 -0.0743
  213loPI   C3A 3401  10.326   5.692   8.976 -0.1357 -0.4535  0.3083
  213loPI   C4A 3402  10.414   5.662   8.500 -0.1179 -0.1079  0.3362
  213loPI   C5A 3403  10.262   5.907   8.221 -0.3022  0.0046 -0.1435
  213loPI   C6A 3404  10.236   6.353   8.054 -0.1254  0.2188  0.1530
  213loPI   C1B 3405  10.644   6.206   9.795 -0.1471 -0.2017 -0.0304
  213loPI   C2B 3406  10.624   6.399   9.380  0.1101  0.1822 -0.1811
  213loPI   C3B 3407  10.619   6.241   9.010 -0.1121  0.2658 -0.1568
  213loPI   C4B 3408  10.296   6.181   8.656 -0.0369 -0.3725  0.1032
  214loPI    C1 3409  15.079   5.431  10.512 -0.1178  0.0764 -0.1125
  214loPI    C2 3410  14.868   5.647  10.774 -0.1532 -0.0101 -0.0696
  214loPI    C3 3411  15.078   5.330  10.899 -0.3333 -0.1728 -0.1756
  214loPI   PO4 3412  14.844   5.427  10.308  0.1825  0.1183  0.1013
  214loPI   GL1 3413  14.811   5.248   9.851  0.0862 -0.3569  0.1513
  214loPI   GL2 3414  14.510   5.252   9.857 -0.0828 -0.0271 -0.0187
  214loPI   C1A 3415  14.848   5.144   9.457  0.0386 -0.1133  0.1449
  214loPI   C2A 3416  14.693   4.966   9.083 -0.0982  0.3302 -0.0342
  214loPI   C3A 3417  14.494   4.931   8.693 -0.0433  0.1831  0.1213
  214loPI   C4A 3418  14.409   4.734   8.304  0.3314  0.2013  0.0113
  214loPI   C5A 3419  14.197   4.774   7.922 -0.1910 -0.2294  0.3079
  214loPI   C6A 3420  13.850   5.001   7.680 -0.0432  0.2407 -0.1658
  214loPI   C1B 3421  14.245   4.953   9.550  0.1526  0.1252 -0.0630
  214loPI   C2B 3422  14.208   4.793   9.107 -0.2204  0.0985 -0.4697
  214loPI   C3B 3423  13.945   4.732   8.847  0.0725 -0.0024  0.0246
  214loPI   C4B 3424  13.871   4.613   8.415  0.0160 -0.1020  0.0115
  215loPI    C1 3425  15.205  10.929  10.574 -0.1327  0.2257 -0.2379
  215loPI    C2 3426  15.563  10.856  10.735 -0.2087 -0.1327 -0.2225
  215loPI    C3 3427  15.238  10.678  10.883 -0.3452 -0.0890 -0.4640
  215loPI   PO4 3428  15.222  11.136  10.435 -0.0764 -0.2374 -0.1605
  215loPI   GL1 3429  15.306  11.114   9.989 -0.0667 -0.1716 -0.0578
  215loPI   GL2 3430  15.500  11.235   9.852 -0.1814 -0.1466  0.2192
  215loPI   C1A 3431  14.889  11.232   9.732 -0.0678 -0.0307  0.0831
  215loPI   C2A 3432  14.781  11.377   9.310  0.1653  0.2138  0.2331
  215loPI   C3A 3433  14.606  11.720   9.124 -0.1191 -0.2820 -0.0621
  215loPI   C4A 3434  14.489  11.853   8.705  0.0954  0.0870 -0.2746
  215loPI   C5A 3435  14.483  12.023   8.266 -0.3437 -0.0981  0.0592
  215loPI   C6A 3436  14.561  11.713   7.964  0.0315  0.3394  0.1291
  215loPI   C1B 3437  15.255  11.531   9.499 -0.0236 -0.0704  0.1722
  215loPI   C2B 3438  15.155  11.586   9.098 -0.1176 -0.0545 -0.0987
  215loPI   C3B 3439  14.804  11.456   8.734 -0.2057  0.2206 -0.0551
  215loPI   C4B 3440  14.894  11.451   8.305  0.1972  0.1707  0.1923
  216loPI    C1 3441  17.340   1.964  11.138  0.1137  0.0545 -0.0348
  216loPI    C2 3442  17.446   2.284  10.923 -0.0126  0.0945 -0.0385
  216loPI    C3 3443  17.592   2.234  11.292  0.1482  0.0627 -0.1053
  216loPI   PO4 3444  17.419   1.676  11.020 -0.1176 -0.2131  0.0995
  216loPI   GL1 3445  17.394   1.512  10.686 -0.1799 -0.1220  0.2152
  216loPI   GL2 3446  17.528   1.232  10.501  0.3852  0.1039  0.1553
  216loPI   C1A 3447  17.490   1.644  10.235 -0.0399  0.3614  0.0503
  216loPI   C2A 3448  17.673   1.328   9.870 -0.0619 -0.0884  0.0272
  216loPI   C3A 3449  17.766   1.312   9.463 -0.0468 -0.1202 -0.0333
  216loPI   C4A 3450  17.906   1.376   9.088 -0.1119 -0.3402 -0.2354
  216loPI   C5A 3451  17.900   1.239   8.623 -0.1895  0.2507  0.1319
  216loPI   C6A 3452  18.086   0.922   8.307 -0.4406 -0.0560 -0.2552
  216loPI   C1B 3453  17.390   0.975  10.091 -0.2477  0.1955 -0.0025
  216loPI   C2B 3454  17.452   0.940   9.613  0.2509 -0.2481 -0.1617
  216loPI   C3B 3455  17.483   0.954   9.231  0.2002  0.2110  0.1209
  216loPI   C4B 3456  17.529   0.892   8.891 -0.0427 -0.0031  0.0348
  217loPI    C1 3457   8.607   2.908  11.259  0.1022 -0.1776  0.0230
  217loPI    C2 3458   8.594   2.531  11.393 -0.0278 -0.0704  0.3210
  217loPI    C3 3459   8.281   2.774  11.449  0.0410  0.0730  0.0979
  217loPI   PO4 3460   8.790   2.889  10.960 -0.0131  0.0265 -0.0813
  217loPI   GL1 3461   8.693   2.789  10.548 -0.1002  0.0118 -0.0036
  217loPI   GL2 3462   8.889   2.598  10.389  0.0689 -0.1305 -0.2563
  217loPI   C1A 3463   8.297   2.750  10.229  0.2653  0.1510  0.1863
  217loPI   C2A 3464   8.267   2.780   9.823 -0.0121  0.0898  0.1841
  217loPI   C3A 3465   8.103   2.714   9.333  0.1055  0.1657 -0.0922
  217loPI   C4A 3466   8.137   2.659   8.884  0.3366  0.2335 -0.0488
  217loPI   C5A 3467   8.092   2.574   8.484  0.0092  0.3394  0.1483
  217loPI   C6A 3468   8.182   2.328   8.178  0.1667  0.0975 -0.0704
  217loPI   C1B 3469   8.767   2.612  10.001 -0.2651 -0.0497 -0.1070
  217loPI   C2B 3470   8.718   2.599   9.574  0.1956  0.0512  0.4293
  217loPI   C3B 3471   8.541   2.543   9.168 -0.1257 -0.3089 -0.0690
  217loPI   C4B 3472   8.566   2.434   8.665 -0.5178 -0.0409 -0.1477
  218loPI    C1 3473   0.620  17.882  11.071 -0.0778 -0.1442  0.1093
  218loPI    C2 3474   0.802  18.156  11.299  0.0094 -0.1627  0.0619
  218loPI    C3 3475   0.413  18.080  11.351 -0.0057 -0.0586  0.1026
  218loPI   PO4 3476   0.762  17.817  10.966 -0.0321  0.3099 -0.2446
  218loPI   GL1 3477   0.836  17.894  10.565  0.0190 -0.0351  0.1264
  218loPI   GL2 3478   1.022  17.644  10.556  0.0383  0.3868  0.0445
  218loPI   C1A 3479   0.736  17.872  10.134 -0.1321 -0.2401  0.0746
  218loPI   C2A 3480   0.814  17.689   9.784  0.1565  0.0375 -0.3238
  218loPI   C3A 3481   0.767  17.657   9.322 -0.0500  0.0606  0.0526
  218loPI   C4A 3482   0.823  17.613   8.849  0.0595 -0.0348 -0.0642
  218loPI   C5A 3483   0.848  17.626   8.453  0.0972 -0.2491  0.0615
  218loPI   C6A 3484   0.779  17.562   7.928  0.0545 -0.0018 -0.1769
  218loPI   C1B 3485   1.165  17.649  10.154 -0.4677 -0.0445 -0.0049
  218loPI   C2B 3486   1.316  17.531   9.713  0.1081  0.0846  0.1054
  218loPI   C3B 3487   1.219  17.530   9.172  0.0986 -0.0209 -0.0299
  218loPI   C4B 3488   1.268  17.521   8.677  0.1036 -0.0703 -0.3500
  219loPI    C1 3489  10.796  16.224  11.157  0.0457 -0.0029 -0.0371
  219loPI    C2 3490  10.857  16.339  11.535  0.0987 -0.0710 -0.0249
  219loPI    C3 3491  10.503  16.188  11.427  0.0675 -0.0059 -0.0140
  219loPI   PO4 3492  10.887  16.522  11.005  0.4522 -0.2419  0.0099
  219loPI   GL1 3493  10.782  16.909  10.724  0.2894 -0.0910  0.2748
  219loPI   GL2 3494  11.041  17.017  10.504  0.2124  0.0767 -0.1154
  219loPI   C1A 3495  10.858  16.572  10.330 -0.0083  0.0087 -0.0158
  219loPI   C2A 3496  10.904  16.554   9.950 -0.1689 -0.0023  0.1230
  219loPI   C3A 3497  11.011  16.570   9.437  0.3662  0.2960 -0.2075
  219loPI   C4A 3498  11.115  16.595   9.027 -0.0260  0.2441 -0.1685
  219loPI   C5A 3499  11.114  16.750   8.666  0.0755 -0.0364 -0.2564
  219loPI   C6A 3500  10.992  17.003   8.338  0.0448  0.0237 -0.3459
  219loPI   C1B 3501  10.920  17.018  10.001 -0.1043 -0.1277  0.1920
  219loPI   C2B 3502  10.931  17.106   9.502  0.0025  0.0731  0.0092
  219loPI   C3B 3503  10.936  17.067   9.044  0.1164  0.0088  0.1418
  219loPI   C4B 3504  10.760  17.280   8.696  0.2484 -0.1923  0.0529
  220loPI    C1 3505   4.491  12.207  10.786  0.0032 -0.0442  0.0887
  220loPI    C2 3506   4.284  12.206  11.128  0.0629 -0.1290  0.1247
  220loPI    C3 3507   4.680  12.266  11.134  0.0283  0.1180  0.0487
  220loPI   PO4 3508   4.319  12.320  10.509 -0.2459  0.0214  0.0705
  220loPI   GL1 3509   4.508  12.475  10.278  0.0268  0.0851  0.0509
  220loPI   GL2 3510   4.773  12.493  10.090 -0.0481  0.0856  0.3339
  220loPI   C1A 3511   4.311  12.754   9.942 -0.0685 -0.0275  0.0018
  220loPI   C2A 3512   4.243  12.857   9.552 -0.3633 -0.2240  0.3898
  220loPI   C3A 3513   4.221  12.897   9.112  0.0065  0.1855 -0.1404
  220loPI   C4A 3514   4.237  12.856   8.747 -0.1050 -0.1727 -0.0532
  220loPI   C5A 3515   4.242  12.889   8.331  0.1249 -0.2223 -0.2352
  220loPI   C6A 3516   4.474  12.900   7.871 -0.3873 -0.0297  0.1992
  220loPI   C1B 3517   4.791  12.612   9.728 -0.1130  0.0285 -0.1306
  220loPI   C2B 3518   4.707  12.774   9.285 -0.1247 -0.0086  0.1041
  220loPI   C3B 3519   4.736  12.739   8.772  0.3244  0.1813  0.2986
  220loPI   C4B 3520   4.691  12.673   8.310  0.4035  0.0708 -0.2843
  221loPI    C1 3521   4.759   3.395  10.960 -0.1334  0.2333  0.0834
  221loPI    C2 3522   5.017   3.448  11.260  0.1309 -0.0224 -0.0932
  221loPI    C3 3523   4.637   3.354  11.339  0.1745  0.0069  0.1622
  221loPI   PO4 3524   4.816   3.263  10.794  0.3417  0.1913 -0.3076
  221loPI   GL1 3525   4.926   3.032  10.517 -0.2017 -0.0214 -0.1994
  221loPI   GL2 3526   4.712   3.066  10.230  0.0578  0.1390  0.0770
  221loPI   C1A 3527   5.167   2.911  10.154  0.1010  0.3221  0.0721
  221loPI   C2A 3528   5.306   2.725   9.749 -0.0278 -0.2007  0.0437
  221loPI   C3A 3529   5.346   2.585   9.269 -0.1361 -0.0063 -0.3093
  221loPI   C4A 3530   5.369   2.567   8.917  0.1405 -0.1476  0.2506
  221loPI   C5A 3531   5.539   2.774   8.579 -0.2347 -0.2985 -0.3081
  221loPI   C6A 3532   5.268   3.006   8.327  0.2358  0.2781  0.2570
  221loPI   C1B 3533   4.700   2.920   9.801  0.2667  0.0569 -0.1451
  221loPI   C2B 3534   4.809   2.801   9.385  0.0251  0.3354 -0.1311
  221loPI   C3B 3535   4.848   2.752   9.004 -0.0897  0.0408  0.0551
  221loPI   C4B 3536   4.991   2.646   8.519 -0.1312 -0.1540  0.2920
  222loPI    C1 3537   4.239   9.139  10.693  0.0903 -0.1730  0.0846
  222loPI    C2 3538   4.249   9.342  11.037 -0.0495 -0.0462  0.0151
  222loPI    C3 3539   3.975   9.055  10.982 -0.1542  0.0684 -0.0638
  222loPI   PO4 3540   4.202   9.339  10.511  0.1650  0.0125  0.0311
  222loPI   GL1 3541   4.314   9.509  10.231 -0.2316 -0.0288 -0.0726
  222loPI   GL2 3542   4.683   9.527  10.132  0.0442 -0.0632  0.4763
  222loPI   C1A 3543   4.172   9.479   9.791 -0.0823  0.0841  0.3688
  222loPI   C2A 3544   4.278   9.557   9.386 -0.0440  0.1083 -0.0769
  222loPI   C3A 3545   4.212   9.603   8.896  0.0546 -0.0624 -0.1624
  222loPI   C4A 3546   4.156   9.638   8.494 -0.0276  0.1989 -0.1922
  222loPI   C5A 3547   4.224   9.683   8.044  0.3194 -0.4003 -0.0143
  222loPI   C6A 3548   4.330  10.060   7.936 -0.0481  0.1178  0.2672
  222loPI   C1B 3549   4.740   9.471   9.692  0.0499 -0.3083  0.1829
  222loPI   C2B 3550   4.770   9.545   9.271 -0.0021  0.0262 -0.2853
  222loPI   C3B 3551   4.693   9.463   8.871 -0.1660 -0.0588 -0.2904
  222loPI   C4B 3552   4.707   9.491   8.458  0.1435  0.5316  0.0693
  223loPI    C1 3553   4.122   5.075  10.596  0.0116 -0.1403  0.0295
  223loPI    C2 3554   4.210   5.345  10.878  0.1481  0.0099 -0.1552
  223loPI    C3 3555   3.830   5.239  10.815  0.1336 -0.1814  0.2261
  223loPI   PO4 3556   4.342   4.922  10.628  0.1970 -0.0736 -0.3921
  223loPI   GL1 3557   4.638   4.960  10.261  0.0428 -0.0206 -0.1458
  223loPI   GL2 3558   4.656   5.238  10.035  0.3876  0.1713  0.1565
  223loPI   C1A 3559   4.644   4.700   9.846  0.3426  0.1280 -0.2235
  223loPI   C2A 3560   4.669   4.684   9.345  0.0327  0.1521  0.0259
  223loPI   C3A 3561   4.600   4.849   9.017  0.1057 -0.0512 -0.2417
  223loPI   C4A 3562   4.596   4.883   8.522  0.0303  0.0560 -0.1270
  223loPI   C5A 3563   4.454   4.672   8.080 -0.0251 -0.0032  0.2296
  223loPI   C6A 3564   4.555   4.369   7.719 -0.2007 -0.0643 -0.0842
  223loPI   C1B 3565   4.892   5.223   9.604 -0.0609  0.3642  0.2106
  223loPI   C2B 3566   4.910   5.197   9.123  0.0282 -0.1503 -0.1204
  223loPI   C3B 3567   4.959   5.276   8.697 -0.0332 -0.0455  0.1749
  223loPI   C4B 3568   4.985   5.270   8.273 -0.0241  0.0220  0.1310
  224loPI    C1 3569  17.821   2.470  10.647 -0.0956 -0.0875  0.0618
  224loPI    C2 3570  18.216   2.454  10.709 -0.0681  0.1493 -0.0412
  224loPI    C3 3571  17.973   2.587  10.998 -0.0665  0.0631 -0.0000
  224loPI   PO4 3572  17.783   2.400  10.430  0.0128  0.1968 -0.2464
  224loPI   GL1 3573  17.550   2.358   9.969  0.2005 -0.1842  0.2332
  224loPI   GL2 3574  17.867   2.504   9.906 -0.0043  0.3745  0.1559
  224loPI   C1A 3575  17.265   2.369   9.580 -0.2405  0.2801 -0.2615
  224loPI   C2A 3576  17.346   2.399   9.189 -0.0480 -0.1965  0.1268
  224loPI   C3A 3577  17.175   2.356   8.815 -0.0846 -0.2804 -0.0579
  224loPI   C4A 3578  17.124   2.398   8.463  0.1203 -0.0347  0.0975
  224loPI   C5A 3579  17.348   2.438   8.064 -0.1849 -0.2578  0.1495
  224loPI   C6A 3580  17.346   2.276   7.685 -0.0775 -0.0083  0.0711
  224loPI   C1B 3581  17.660   2.723   9.576 -0.0624 -0.1483 -0.1690
  224loPI   C2B 3582  17.802   2.553   9.171  0.1900  0.3183 -0.2651
  224loPI   C3B 3583  17.647   2.565   8.854 -0.1892 -0.2532 -0.1211
  224loPI   C4B 3584  17.606   2.237   8.497 -0.1753 -0.0989  0.1026
  225loPI    C1 3585  15.419   6.292  10.150  0.0219 -0.1752 -0.1438
  225loPI    C2 3586  15.568   6.554  10.412 -0.0750 -0.3711  0.1117
  225loPI    C3 3587  15.803   6.267  10.261  0.0416 -0.1186 -0.1986
  225loPI   PO4 3588  15.276   6.471   9.953  0.0800  0.0504  0.0883
  225loPI   GL1 3589  15.160   6.545   9.487 -0.2394 -0.0148 -0.2013
  225loPI   GL2 3590  15.011   6.712   9.361  0.2605 -0.0760 -0.1422
  225loPI   C1A 3591  15.276   6.599   8.998 -0.3069 -0.0346  0.4452
  225loPI   C2A 3592  15.266   6.689   8.598 -0.2627 -0.1985 -0.2097
  225loPI   C3A 3593  15.228   6.887   8.188 -0.3080 -0.0685 -0.1799
  225loPI   C4A 3594  15.042   6.683   7.791  0.1040  0.2218 -0.0926
  225loPI   C5A 3595  15.182   6.335   7.697 -0.3153 -0.1168  0.2068
  225loPI   C6A 3596  15.523   6.210   7.575  0.1202  0.3150 -0.1891
  225loPI   C1B 3597  14.773   6.849   9.091  0.1966  0.2391 -0.1772
  225loPI   C2B 3598  14.747   6.895   8.620  0.3129 -0.2712 -0.1229
  225loPI   C3B 3599  14.689   6.768   8.220 -0.0817 -0.2915  0.0142
  225loPI   C4B 3600  14.488   6.498   7.968 -0.0746 -0.2934 -0.0798
  226loPI    C1 3601   5.867  17.440  11.026 -0.0698 -0.2668  0.0603
  226loPI    C2 3602   6.226  17.546  11.167 -0.2201  0.2193  0.0971
  226loPI    C3 3603   5.916  17.512  11.417 -0.2731  0.1233  0.0188
  226loPI   PO4 3604   5.743  17.652  10.865 -0.1809  0.1759  0.2148
  226loPI   GL1 3605   5.760  17.644  10.443  0.0923 -0.1681  0.0100
  226loPI   GL2 3606   5.530  17.898  10.506 -0.0634 -0.0321 -0.1608
  226loPI   C1A 3607   5.884  17.557  10.014  0.2073  0.1001  0.0404
  226loPI   C2A 3608   6.083  17.531   9.535 -0.1430 -0.0246  0.3393
  226loPI   C3A 3609   5.976  17.622   9.117 -0.0073 -0.4295  0.0077
  226loPI   C4A 3610   6.123  17.571   8.705  0.2837  0.0657 -0.2728
  226loPI   C5A 3611   5.930  17.568   8.403  0.0846  0.3535 -0.1898
  226loPI   C6A 3612   5.648  17.492   8.094 -0.0534 -0.0225 -0.1362
  226loPI   C1B 3613   5.764  18.101  10.157  0.0271  0.3264  0.0598
  226loPI   C2B 3614   5.843  18.027   9.698 -0.0819 -0.0074 -0.1160
  226loPI   C3B 3615   5.891  18.084   9.230 -0.0750 -0.2530 -0.0324
  226loPI   C4B 3616   6.078  18.037   8.853 -0.1041 -0.3370  0.0375
  227loPI    C1 3617   9.487   9.884  10.648 -0.0792 -0.1917 -0.1030
  227loPI    C2 3618   9.608   9.793  11.018  0.1960  0.0366 -0.1332
  227loPI    C3 3619   9.226   9.892  10.951  0.1542  0.0349  0.0960
  227loPI   PO4 3620   9.656   9.730  10.473  0.1546 -0.0882 -0.0615
  227loPI   GL1 3621   9.680   9.836  10.067  0.0680 -0.3198 -0.1484
  227loPI   GL2 3622   9.379   9.991  10.037 -0.1220 -0.4677  0.0798
  227loPI   C1A 3623   9.536   9.627   9.687 -0.0254  0.0594  0.3078
  227loPI   C2A 3624   9.609   9.331   9.311 -0.0276 -0.1588  0.1436
  227loPI   C3A 3625   9.603   9.292   8.858 -0.1127  0.1599 -0.3849
  227loPI   C4A 3626   9.645   9.405   8.447  0.1384 -0.1491  0.0997
  227loPI   C5A 3627   9.504   9.841   8.196  0.0556 -0.0623  0.0255
  227loPI   C6A 3628   9.228  10.042   7.841  0.2459 -0.0932 -0.4300
  227loPI   C1B 3629   9.537  10.104   9.635  0.2308 -0.0957  0.0182
  227loPI   C2B 3630   9.551  10.153   9.249 -0.0119  0.1168  0.0526
  227loPI   C3B 3631   9.542  10.303   8.851 -0.1179 -0.0497 -0.1400
  227loPI   C4B 3632   9.322  10.131   8.586  0.1156 -0.2351  0.0272
  228loPI    C1 3633  11.496  14.101  11.080 -0.1447  0.0955  0.2731
  228loPI    C2 3634  11.162  14.010  11.280 -0.2792 -0.0809 -0.0256
  228loPI    C3 3635  11.465  13.749  11.267 -0.1482  0.0573  0.2011
  228loPI   PO4 3636  11.432  14.080  10.776  0.2845  0.0552  0.1418
  228loPI   GL1 3637  11.638  13.997  10.459 -0.0708  0.0910  0.0608
  228loPI   GL2 3638  11.607  14.333  10.349 -0.2457  0.1351 -0.0007
  228loPI   C1A 3639  11.824  14.075  10.016  0.2496 -0.0965  0.0877
  228loPI   C2A 3640  11.869  14.247   9.575 -0.4385  0.2219  0.2705
  228loPI   C3A 3641  11.984  14.309   9.162 -0.1469  0.0257 -0.2685
  228loPI   C4A 3642  12.014  14.342   8.758 -0.0519 -0.1977 -0.0270
  228loPI   C5A 3643  11.929  14.422   8.344  0.0250 -0.0829  0.0593
  228loPI   C6A 3644  11.768  14.729   8.075  0.0579 -0.0443 -0.2208
  228loPI   C1B 3645  11.534  14.482   9.842  0.1310 -0.3721  0.2736
  228loPI   C2B 3646  11.559  14.539   9.310 -0.1171 -0.1991  0.0384
  228loPI   C3B 3647  11.487  14.592   8.824  0.1191 -0.1936 -0.2130
  228loPI   C4B 3648  11.424  14.506   8.481  0.0176  0.0000 -0.1940
  229loPI    C1 3649   3.812   0.442  10.767 -0.0459  0.1300 -0.0618
  229loPI    C2 3650   3.753   0.596  11.132 -0.0284 -0.0135  0.0023
  229loPI    C3 3651   3.599   0.239  11.038 -0.1788  0.0993 -0.1878
  229loPI   PO4 3652   4.114   0.473  10.742 -0.0949  0.0416 -0.2143
  229loPI   GL1 3653   4.334   0.492  10.353  0.0451  0.3320 -0.2691
  229loPI   GL2 3654   4.050   0.207  10.290 -0.0947  0.1265 -0.2097
  229loPI   C1A 3655   4.319   0.623   9.901  0.1148  0.0314 -0.0808
  229loPI   C2A 3656   4.265   0.547   9.460  0.1548  0.1027  0.3194
  229loPI   C3A 3657   4.392   0.623   9.129  0.0184 -0.1838  0.1015
  229loPI   C4A 3658   4.385   0.576   8.714  0.0965  0.1899 -0.0995
  229loPI   C5A 3659   4.526   0.473   8.286 -0.0618 -0.1581 -0.1375
  229loPI   C6A 3660   4.701   0.035   7.957  0.0398 -0.0855  0.1186
  229loPI   C1B 3661   3.900   0.343   9.935 -0.0406 -0.4656 -0.1551
  229loPI   C2B 3662   3.931   0.202   9.463  0.1600 -0.0499  0.1799
  229loPI   C3B 3663   4.048   0.251   8.986  0.0221  0.3042  0.2708
  229loPI   C4B 3664   3.971   0.382   8.476  0.0671  0.0222 -0.2209
  230loPI    C1 3665  12.952   7.529  10.119 -0.1046 -0.0669 -0.0095
  230loPI    C2 3666  13.027   7.524  10.512 -0.0434 -0.2600 -0.0226
  230loPI    C3 3667  13.250   7.305  10.263 -0.0282 -0.0735 -0.1759
  230loPI   PO4 3668  12.734   7.429  10.067 -0.4165 -0.1832  0.0273
  230loPI   GL1 3669  12.474   7.192   9.838  0.0745 -0.0353 -0.0152
  230loPI   GL2 3670  12.329   6.843   9.901 -0.1986 -0.2511 -0.2368
  230loPI   C1A 3671  12.505   7.083   9.411  0.0679 -0.2809 -0.0062
  230loPI   C2A 3672  12.388   7.178   8.971  0.0201  0.1938 -0.1798
  230loPI   C3A 3673  12.622   7.259   8.583  0.2521 -0.0571 -0.0009
  230loPI   C4A 3674  12.788   7.427   8.349 -0.2703  0.0282 -0.1064
  230loPI   C5A 3675  12.649   7.720   8.085 -0.0119 -0.2822  0.3754
  230loPI   C6A 3676  12.461   8.095   7.849 -0.0028 -0.1055  0.0619
  230loPI   C1B 3677  12.166   6.784   9.583 -0.0508 -0.0866  0.0310
  230loPI   C2B 3678  12.182   6.730   9.118 -0.2187  0.2036 -0.1683
  230loPI   C3B 3679  12.058   6.510   8.826 -0.0781 -0.0470 -0.0559
  230loPI   C4B 3680  12.124   6.502   8.454  0.1140 -0.0208 -0.2537
  231loPI    C1 3681  17.422  11.312  10.691 -0.1574 -0.1469  0.0623
  231loPI    C2 3682  17.789  11.328  10.851 -0.1018  0.0853 -0.0845
  231loPI    C3 3683  17.492  11.545  11.009 -0.1849 -0.1244  0.0520
  231loPI   PO4 3684  17.490  11.372  10.309 -0.0264 -0.0552 -0.3247
  231loPI   GL1 3685  17.412  11.423   9.889  0.0777  0.2955 -0.1392
  231loPI   GL2 3686  17.167  11.585   9.733 -0.1495  0.0619  0.4146
  231loPI   C1A 3687  17.517  11.392   9.452  0.0322 -0.1638  0.2256
  231loPI   C2A 3688  17.408  11.365   9.005  0.3355 -0.2702  0.4305
  231loPI   C3A 3689  17.344  11.487   8.557  0.0060 -0.1229 -0.1487
  231loPI   C4A 3690  17.327  11.608   8.091  0.0593  0.1766 -0.0448
  231loPI   C5A 3691  17.424  11.874   7.811  0.0245 -0.1033  0.0844
  231loPI   C6A 3692  17.367  12.293   7.778  0.0852  0.1180 -0.1720
  231loPI   C1B 3693  17.229  11.829   9.244  0.0033  0.0888 -0.2423
  231loPI   C2B 3694  17.400  11.867   8.862  0.4767 -0.0504  0.0888
  231loPI   C3B 3695  17.344  11.983   8.466 -0.1224 -0.0178  0.2957
  231loPI   C4B 3696  17.579  12.172   8.208 -0.0060  0.1938  0.0784
  232loPI    C1 3697   6.944   9.040  10.229 -0.0929  0.1203 -0.0431
  232loPI    C2 3698   7.297   9.106  10.406  0.0399  0.0958 -0.2928
  232loPI    C3 3699   6.963   9.080  10.626  0.1807  0.2060 -0.0629
  232loPI   PO4 3700   6.991   8.808  10.116 -0.1357 -0.1459 -0.3049
  232loPI   GL1 3701   6.945   8.535   9.711  0.1050  0.1068 -0.1415
  232loPI   GL2 3702   7.170   8.586   9.549  0.1217  0.1752 -0.1221
  232loPI   C1A 3703   6.821   8.347   9.340 -0.1081 -0.1224 -0.0846
  232loPI   C2A 3704   6.928   8.270   9.020  0.2559 -0.3967 -0.2139
  232loPI   C3A 3705   6.853   8.112   8.623  0.1869 -0.0668  0.0599
  232loPI   C4A 3706   6.836   8.106   8.189  0.2165 -0.0972  0.0250
  232loPI   C5A 3707   6.746   7.907   7.840 -0.0872 -0.1672 -0.1391
  232loPI   C6A 3708   6.469   7.995   7.392 -0.2968  0.3293  0.2350
  232loPI   C1B 3709   7.342   8.453   9.230  0.1831  0.2011 -0.3694
  232loPI   C2B 3710   7.402   8.469   8.746 -0.1385 -0.0414 -0.0663
  232loPI   C3B 3711   7.340   8.349   8.318  0.1126  0.1320 -0.0717
  232loPI   C4B 3712   7.310   8.293   7.943 -0.4687  0.2766 -0.0024
  233loPI    C1 3713   1.844   0.374  10.521 -0.1896  0.2485 -0.2825
  233loPI    C2 3714   1.553   0.370  10.795 -0.0378 -0.0348 -0.1218
  233loPI    C3 3715   1.936   0.343  10.909  0.0472  0.2140 -0.3397
  233loPI   PO4 3716   1.861   0.604  10.418 -0.1301 -0.2311  0.1025
  233loPI   GL1 3717   1.663   0.872  10.084  0.0730  0.0910  0.0185
  233loPI   GL2 3718   1.950   0.766   9.992  0.0433 -0.0957  0.1250
  233loPI   C1A 3719   1.387   0.994   9.755  0.1179  0.0066 -0.0954
  233loPI   C2A 3720   1.352   0.866   9.311 -0.1172 -0.0390  0.2422
  233loPI   C3A 3721   1.395   0.898   8.918 -0.1687  0.0087  0.0905
  233loPI   C4A 3722   1.453   0.867   8.493 -0.1280 -0.0412  0.1331
  233loPI   C5A 3723   1.677   0.764   8.147  0.2169 -0.2421 -0.3108
  233loPI   C6A 3724   1.928   0.505   7.869 -0.0820  0.0351  0.2718
  233loPI   C1B 3725   1.810   0.846   9.524  0.0851  0.0101 -0.3994
  233loPI   C2B 3726   1.841   0.778   9.100 -0.1790 -0.1181 -0.1965
  233loPI   C3B 3727   1.899   0.806   8.684 -0.1240  0.0963  0.3216
  233loPI   C4B 3728   2.164   0.759   8.313  0.1797 -0.0744  0.2769
  234loPI    C1 3729  11.517  12.129  10.644  0.0930  0.1265 -0.0274
  234loPI    C2 3730  11.321  12.345  10.918 -0.1952  0.1496 -0.2475
  234loPI    C3 3731  11.315  11.946  10.937 -0.2807  0.1498 -0.2639
  234loPI   PO4 3732  11.408  12.227  10.388 -0.3615  0.0041  0.1797
  234loPI   GL1 3733  11.537  12.228   9.933  0.2483  0.0666 -0.2000
  234loPI   GL2 3734  11.255  11.979   9.938  0.1457  0.0616 -0.1283
  234loPI   C1A 3735  11.354  12.358   9.504  0.2438 -0.0850 -0.0788
  234loPI   C2A 3736  11.467  12.448   9.111  0.1519 -0.1139  0.2786
  234loPI   C3A 3737  11.559  12.669   8.772 -0.0606 -0.0075  0.0568
  234loPI   C4A 3738  11.456  12.739   8.323  0.1261  0.0552 -0.1360
  234loPI   C5A 3739  11.162  12.961   8.099 -0.1886  0.0768  0.1947
  234loPI   C6A 3740  11.075  13.382   7.882  0.0272  0.0011  0.3071
  234loPI   C1B 3741  11.543  11.876   9.553 -0.1137  0.1071  0.1139
  234loPI   C2B 3742  11.512  11.918   9.148 -0.1873 -0.2710 -0.0456
  234loPI   C3B 3743  11.525  12.067   8.767 -0.0684  0.2013  0.0271
  234loPI   C4B 3744  11.582  12.150   8.245  0.3372 -0.2472  0.0629
  235loPI    C1 3745   3.704   2.663  10.647  0.0702  0.1150 -0.0581
  235loPI    C2 3746   3.940   2.834  10.922  0.0035  0.0930  0.0133
  235loPI    C3 3747   3.572   2.713  11.022 -0.0023  0.0384 -0.0732
  235loPI   PO4 3748   3.665   2.851  10.468 -0.0283  0.2461  0.2202
  235loPI   GL1 3749   3.636   3.074  10.068 -0.1636 -0.0039 -0.3285
  235loPI   GL2 3750   3.333   2.927   9.938  0.2409 -0.1103 -0.2930
  235loPI   C1A 3751   3.633   3.224   9.659 -0.1058  0.0030  0.1859
  235loPI   C2A 3752   3.870   3.136   9.301 -0.1046  0.4785 -0.0632
  235loPI   C3A 3753   3.873   3.115   8.858 -0.1612 -0.1514  0.1430
  235loPI   C4A 3754   4.078   3.196   8.430  0.0715 -0.2723 -0.2307
  235loPI   C5A 3755   4.089   3.153   8.042  0.5344  0.3836 -0.0424
  235loPI   C6A 3756   4.044   3.091   7.669  0.0229 -0.2825  0.0523
  235loPI   C1B 3757   3.394   2.841   9.524 -0.0650  0.0014  0.0338
  235loPI   C2B 3758   3.490   2.729   9.177  0.2266  0.2946 -0.1053
  235loPI   C3B 3759   3.464   2.781   8.778  0.1300  0.3120 -0.0036
  235loPI   C4B 3760   3.215   2.864   8.542 -0.0285  0.0932 -0.1834
  236loPI    C1 3761   3.661   9.537  10.490 -0.2798 -0.0102 -0.1340
  236loPI    C2 3762   3.687   9.438  10.877  0.3715 -0.1606 -0.2044
  236loPI    C3 3763   3.652   9.153  10.599 -0.1014 -0.0527 -0.2653
  236loPI   PO4 3764   3.528   9.781  10.326  0.1019  0.0239  0.0208
  236loPI   GL1 3765   3.710  10.089  10.024 -0.2413 -0.0389 -0.0810
  236loPI   GL2 3766   3.955   9.822  10.065 -0.0465  0.4034 -0.0466
  236loPI   C1A 3767   3.549  10.063   9.654  0.1471 -0.0070 -0.1466
  236loPI   C2A 3768   3.555  10.109   9.203 -0.0160 -0.0148 -0.0890
  236loPI   C3A 3769   3.537  10.298   8.779 -0.2168 -0.1629 -0.1483
  236loPI   C4A 3770   3.472  10.193   8.244  0.0276 -0.0918 -0.5297
  236loPI   C5A 3771   3.839  10.196   7.878  0.0900  0.1434 -0.0122
  236loPI   C6A 3772   3.789  10.324   7.467 -0.1055  0.3295 -0.2971
  236loPI   C1B 3773   4.032   9.986   9.622 -0.1891  0.3044  0.1687
  236loPI   C2B 3774   4.045   9.999   9.166 -0.0300 -0.0515  0.1482
  236loPI   C3B 3775   3.993  10.095   8.812 -0.0018 -0.0765  0.0948
  236loPI   C4B 3776   3.965  10.157   8.360  0.0848 -0.1389 -0.2597
  237loPI    C1 3777  17.421  16.022  11.449  0.0814  0.1490 -0.0923
  237loPI    C2 3778  17.361  16.364  11.647 -0.0575  0.0739 -0.0028
  237loPI    C3 3779  17.594  16.080  11.805 -0.0077  0.0941 -0.0397
  237loPI   PO4 3780  17.420  16.095  11.226  0.0551  0.2273 -0.2051
  237loPI   GL1 3781  17.392  16.094  10.828  0.0998 -0.4252 -0.0714
  237loPI   GL2 3782  16.986  16.053  10.883  0.0840 -0.3020  0.1511
  237loPI   C1A 3783  17.245  16.119  10.446  0.0140  0.0289  0.2039
  237loPI   C2A 3784  17.261  16.140  10.019  0.1244  0.1799  0.2238
  237loPI   C3A 3785  17.322  16.170   9.602 -0.1148  0.1574  0.0430
  237loPI   C4A 3786  17.259  16.169   9.124  0.0028 -0.2060  0.1465
  237loPI   C5A 3787  16.931  16.234   8.688  0.1117 -0.1164 -0.4046
  237loPI   C6A 3788  16.684  16.375   8.253  0.0424  0.1824 -0.2955
  237loPI   C1B 3789  16.691  16.184  10.543  0.0142 -0.0302  0.4095
  237loPI   C2B 3790  16.734  16.218  10.083 -0.0101  0.0568 -0.0095
  237loPI   C3B 3791  16.656  16.278   9.622 -0.1162  0.0031 -0.0586
  237loPI   C4B 3792  16.736  16.313   9.184 -0.2191 -0.1878  0.3028
  238loPI    C1 3793   7.019   0.994  11.377  0.0193  0.1251  0.1529
  238loPI    C2 3794   7.099   0.728  11.089  0.0910  0.3494 -0.0369
  238loPI    C3 3795   7.310   0.723  11.429 -0.1538 -0.0706  0.1163
  238loPI   PO4 3796   6.892   1.175  11.190 -0.2752  0.0509 -0.0946
  238loPI   GL1 3797   6.998   1.111  10.776  0.0890  0.2242 -0.1481
  238loPI   GL2 3798   7.228   1.329  10.625 -0.0551 -0.4477 -0.3626
  238loPI   C1A 3799   7.034   0.982  10.314 -0.1687  0.0681 -0.1801
  238loPI   C2A 3800   7.174   1.029   9.957  0.1033 -0.0186 -0.0958
  238loPI   C3A 3801   7.017   1.163   9.453 -0.1748 -0.0051 -0.0187
  238loPI   C4A 3802   6.946   1.227   8.917 -0.0157  0.0798  0.2210
  238loPI   C5A 3803   6.969   1.649   8.534  0.1717  0.0351 -0.0144
  238loPI   C6A 3804   7.322   1.869   8.311 -0.0181 -0.0737 -0.0301
  238loPI   C1B 3805   7.180   1.504  10.221  0.0174  0.2059 -0.0422
  238loPI   C2B 3806   7.029   1.556   9.832  0.0504 -0.1816  0.0354
  238loPI   C3B 3807   6.929   1.660   9.387  0.0635 -0.1990  0.2139
  238loPI   C4B 3808   6.943   1.714   9.016  0.1796 -0.0701 -0.1692
  239loPI    C1 3809   4.835   8.826  10.805 -0.0696  0.0792 -0.0946
  239loPI    C2 3810   4.475   8.831  10.980  0.0510  0.0953  0.1579
  239loPI    C3 3811   4.728   9.137  11.033  0.2547 -0.0968  0.3108
  239loPI   PO4 3812   4.801   8.635  10.579 -0.1708 -0.1455 -0.0948
  239loPI   GL1 3813   4.841   8.662  10.052  0.1079 -0.2047  0.0113
  239loPI   GL2 3814   4.798   8.347   9.983  0.2881 -0.2343 -0.1575
  239loPI   C1A 3815   4.986   8.609   9.601  0.2544 -0.1465  0.0087
  239loPI   C2A 3816   4.963   8.586   9.241  0.4291 -0.2568 -0.0429
  239loPI   C3A 3817   5.050   8.446   8.911  0.1374  0.1446  0.0779
  239loPI   C4A 3818   4.956   8.462   8.485  0.0050  0.0637 -0.0531
  239loPI   C5A 3819   4.805   8.565   8.136 -0.0721  0.0475 -0.2798
  239loPI   C6A 3820   4.893   8.475   7.710  0.1821  0.4589 -0.1933
  239loPI   C1B 3821   4.596   8.336   9.643  0.3745  0.3324  0.0455
  239loPI   C2B 3822   4.551   8.315   9.253  0.0374 -0.0301 -0.0355
  239loPI   C3B 3823   4.526   8.504   8.928  0.0054  0.1134  0.2152
  239loPI   C4B 3824   4.482   8.622   8.545 -0.2690 -0.0582  0.0599
  240loPI    C1 3825  14.483   6.369  10.222  0.0538  0.2517  0.0478
  240loPI    C2 3826  14.848   6.227  10.142 -0.0404  0.0634 -0.0555
  240loPI    C3 3827  14.723   6.256  10.521 -0.0547 -0.2235 -0.0361
  240loPI   PO4 3828  14.381   6.263  10.008  0.1984 -0.0202  0.0626
  240loPI   GL1 3829  14.224   6.409   9.679 -0.0166 -0.0417 -0.0380
  240loPI   GL2 3830  14.409   6.541   9.608 -0.1100 -0.2764  0.1569
  240loPI   C1A 3831  14.051   6.225   9.323 -0.3375  0.0060  0.4216
  240loPI   C2A 3832  14.024   6.204   8.910  0.2529  0.3111 -0.1149
  240loPI   C3A 3833  14.013   6.207   8.480  0.1088 -0.0075 -0.2361
  240loPI   C4A 3834  13.862   6.268   8.046 -0.0358  0.1237 -0.2803
  240loPI   C5A 3835  13.556   6.395   7.692 -0.1329 -0.0731  0.0544
  240loPI   C6A 3836  13.426   6.738   7.441 -0.0764 -0.1266  0.1382
  240loPI   C1B 3837  14.473   6.480   9.211 -0.0805  0.0971 -0.0162
  240loPI   C2B 3838  14.406   6.569   8.830 -0.0386 -0.1496  0.2529
  240loPI   C3B 3839  14.264   6.668   8.442  0.3771 -0.0146 -0.2103
  240loPI   C4B 3840  13.962   6.760   8.120  0.0233  0.0606  0.0573
  241loPI    C1 3841  13.767  10.354  10.393 -0.0890 -0.0875 -0.1032
  241loPI    C2 3842  14.067  10.586  10.520 -0.1347 -0.0007 -0.1529
  241loPI    C3 3843  13.827  10.406  10.785 -0.2147  0.1599 -0.1150
  241loPI   PO4 3844  13.932  10.268  10.161 -0.1981 -0.1972  0.0608
  241loPI   GL1 3845  14.034  10.295   9.772  0.1671 -0.0407 -0.0154
  241loPI   GL2 3846  14.284  10.467   9.732  0.0779  0.0937 -0.1132
  241loPI   C1A 3847  13.873  10.477   9.375 -0.1109  0.0432 -0.0486
  241loPI   C2A 3848  13.844  10.496   9.026  0.1774 -0.1200  0.0263
  241loPI   C3A 3849  13.911  10.413   8.603 -0.1934  0.0318  0.0574
  241loPI   C4A 3850  13.751  10.450   8.142 -0.0924  0.1312 -0.5943
  241loPI   C5A 3851  13.603  10.524   7.726 -0.3116 -0.1243 -0.0811
  241loPI   C6A 3852  13.499  10.871   7.501 -0.2905  0.0447  0.0941
  241loPI   C1B 3853  14.383  10.426   9.264  0.0564  0.0170 -0.2888
  241loPI   C2B 3854  14.614  10.410   8.927 -0.0864  0.4924 -0.2518
  241loPI   C3B 3855  14.555  10.513   8.516  0.1006  0.3037  0.4085
  241loPI   C4B 3856  14.454  10.398   8.080 -0.3680 -0.3035 -0.1702
  242loPI    C1 3857   0.720  11.381  10.418 -0.1777 -0.1049 -0.0188
  242loPI    C2 3858   0.669  11.182  10.761  0.1753 -0.1921 -0.0135
  242loPI    C3 3859   0.812  11.555  10.766 -0.2621 -0.0191 -0.0390
  242loPI   PO4 3860   0.502  11.311  10.303  0.1556 -0.4077 -0.0615
  242loPI   GL1 3861   0.246  11.561  10.047  0.1968 -0.0526  0.1117
  242loPI   GL2 3862  -0.103  11.548   9.988 -0.0330  0.0103 -0.2504
  242loPI   C1A 3863   0.453  11.559   9.702 -0.5201 -0.1233  0.1437
  242loPI   C2A 3864   0.479  11.490   9.330  0.1458  0.1336 -0.1424
  242loPI   C3A 3865   0.389  11.568   8.956 -0.0499  0.2120  0.2561
  242loPI   C4A 3866   0.322  11.732   8.580 -0.1264  0.0668 -0.0474
  242loPI   C5A 3867   0.444  11.932   8.175  0.0956  0.1073  0.1921
  242loPI   C6A 3868   0.580  12.179   7.763  0.0379 -0.1158 -0.0397
  242loPI   C1B 3869  -0.081  11.420   9.668  0.0078 -0.1048  0.1734
  242loPI   C2B 3870  -0.061  11.486   9.193 -0.0007  0.1358  0.3843
  242loPI   C3B 3871  -0.147  11.557   8.710  0.2344 -0.4160  0.2309
  242loPI   C4B 3872  -0.164  11.566   8.338 -0.3004 -0.0259 -0.1887
  243loPI    C1 3873   3.746  10.614  10.507  0.1009 -0.0719 -0.0185
  243loPI    C2 3874   3.393  10.792  10.563  0.1560  0.0351 -0.0084
  243loPI    C3 3875   3.563  10.585  10.861  0.0186 -0.1671 -0.0684
  243loPI   PO4 3876   3.712  10.580  10.213 -0.1306 -0.1629  0.1061
  243loPI   GL1 3877   3.771  10.655   9.773 -0.0272 -0.0255 -0.3187
  243loPI   GL2 3878   3.521  10.971   9.924 -0.2933  0.3575  0.2148
  243loPI   C1A 3879   3.830  10.454   9.394 -0.2363 -0.2723 -0.0744
  243loPI   C2A 3880   3.866  10.595   9.006 -0.1152  0.1245 -0.2481
  243loPI   C3A 3881   3.898  10.624   8.622  0.0289 -0.0339 -0.0598
  243loPI   C4A 3882   3.848  10.630   8.101  0.1605 -0.3190 -0.0953
  243loPI   C5A 3883   3.721  10.807   7.822 -0.0286  0.1764 -0.0423
  243loPI   C6A 3884   3.329  11.088   7.807  0.1933  0.1041  0.0428
  243loPI   C1B 3885   3.688  11.010   9.429 -0.1816  0.0319 -0.3351
  243loPI   C2B 3886   3.701  11.070   9.010  0.0269  0.0033  0.0366
  243loPI   C3B 3887   3.759  11.114   8.585 -0.0135  0.0199 -0.0180
  243loPI   C4B 3888   3.657  11.067   8.222 -0.1382  0.1794  0.0355
  244loPI    C1 3889   5.884   5.549  10.519  0.0273  0.2452 -0.0989
  244loPI    C2 3890   5.490   5.572  10.585 -0.0574 -0.2619 -0.3832
  244loPI    C3 3891   5.722   5.354  10.828  0.0979  0.2428 -0.0630
  244loPI   PO4 3892   6.006   5.421  10.266  0.2151  0.1299 -0.0475
  244loPI   GL1 3893   6.289   5.419   9.993 -0.3796 -0.0667 -0.1484
  244loPI   GL2 3894   6.534   5.642  10.237  0.0421  0.1619 -0.1113
  244loPI   C1A 3895   6.234   5.263   9.524 -0.3184 -0.0517  0.0010
  244loPI   C2A 3896   6.238   5.159   9.074  0.1999  0.0448  0.0552
  244loPI   C3A 3897   6.368   5.308   8.758  0.1515 -0.0475  0.2121
  244loPI   C4A 3898   6.465   5.327   8.344 -0.1603  0.2049 -0.0658
  244loPI   C5A 3899   6.654   5.211   7.989  0.3375  0.1492 -0.0859
  244loPI   C6A 3900   6.947   5.229   7.814 -0.0382 -0.0277  0.2905
  244loPI   C1B 3901   6.708   5.620   9.802 -0.0071  0.0961 -0.1923
  244loPI   C2B 3902   6.707   5.616   9.366  0.0011 -0.1701  0.1227
  244loPI   C3B 3903   6.699   5.648   9.019 -0.0063 -0.1143  0.1024
  244loPI   C4B 3904   6.760   5.594   8.591 -0.0480  0.0493 -0.0925
  245loPI    C1 3905   3.327  13.153  11.062  0.2236  0.1422  0.0995
  245loPI    C2 3906   3.313  13.287  11.438  0.1766  0.0515  0.1305
  245loPI    C3 3907   3.094  12.970  11.331  0.0571  0.1818 -0.0159
  245loPI   PO4 3908   3.363  13.372  10.846  0.1389  0.1283  0.0801
  245loPI   GL1 3909   3.210  13.594  10.442 -0.0139 -0.1739  0.0931
  245loPI   GL2 3910   3.549  13.513  10.371  0.1668 -0.0624  0.2395
  245loPI   C1A 3911   3.174  13.619  10.003  0.1814 -0.3224  0.0323
  245loPI   C2A 3912   3.074  13.630   9.623 -0.0682  0.2171 -0.1781
  245loPI   C3A 3913   3.095  13.576   9.181  0.0774 -0.0933 -0.2782
  245loPI   C4A 3914   3.125  13.707   8.765  0.2450 -0.1465  0.1495
  245loPI   C5A 3915   3.225  13.564   8.393 -0.1869  0.1676  0.0026
  245loPI   C6A 3916   3.305  13.648   7.974  0.1008 -0.0076  0.2788
  245loPI   C1B 3917   3.717  13.460  10.003 -0.2312  0.0831  0.2424
  245loPI   C2B 3918   3.564  13.441   9.461  0.4257 -0.2375 -0.0831
  245loPI   C3B 3919   3.579  13.452   9.168  0.3322  0.3160  0.1118
  245loPI   C4B 3920   3.700  13.445   8.716  0.0069 -0.1807  0.1026
  246loPI    C1 3921   2.644   4.331  10.426  0.1664 -0.0004  0.0357
  246loPI    C2 3922   2.547   3.952  10.342  0.1579 -0.0532  0.2744
  246loPI    C3 3923   2.707   4.043  10.697  0.0863  0.1796  0.2489
  246loPI   PO4 3924   2.721   4.416  10.171 -0.0265 -0.0358 -0.0139
  246loPI   GL1 3925   3.117   4.428   9.989 -0.0048 -0.4330  0.1678
  246loPI   GL2 3926   3.352   4.298  10.020 -0.1829 -0.2613 -0.0169
  246loPI   C1A 3927   3.068   4.385   9.567  0.0525  0.0153  0.2015
  246loPI   C2A 3928   3.105   4.310   9.156  0.4080 -0.1316 -0.0035
  246loPI   C3A 3929   3.258   4.285   8.832  0.2931  0.2828 -0.0484
  246loPI   C4A 3930   3.302   4.336   8.374 -0.1910  0.2167  0.1463
  246loPI   C5A 3931   3.447   4.283   7.951  0.3502 -0.0053 -0.0491
  246loPI   C6A 3932   3.526   4.279   7.462  0.0004 -0.1404  0.2793
  246loPI   C1B 3933   3.530   4.190   9.623  0.2058  0.0582  0.1576
  246loPI   C2B 3934   3.648   4.170   9.142 -0.2446 -0.1075  0.2186
  246loPI   C3B 3935   3.672   4.051   8.796 -0.2253 -0.0126  0.1733
  246loPI   C4B 3936   3.770   4.127   8.392  0.0895  0.4090 -0.0149
  247loPI    C1 3937   3.142   8.075  10.487 -0.0962  0.0080 -0.0241
  247loPI    C2 3938   3.047   8.427  10.324 -0.0042  0.0706  0.0565
  247loPI    C3 3939   3.014   8.374  10.719 -0.2271 -0.0807  0.0193
  247loPI   PO4 3940   3.238   7.932  10.289 -0.0123  0.0864 -0.0797
  247loPI   GL1 3941   3.313   8.004   9.899  0.0196  0.2267 -0.4413
  247loPI   GL2 3942   3.290   7.699   9.871  0.0576 -0.0359  0.0729
  247loPI   C1A 3943   3.311   8.200   9.455  0.2111  0.1835  0.0176
  247loPI   C2A 3944   3.226   8.344   8.929  0.1759  0.0171  0.2829
  247loPI   C3A 3945   3.297   8.474   8.463 -0.3851  0.0536 -0.2461
  247loPI   C4A 3946   3.477   8.552   8.031  0.0874  0.0327  0.1994
  247loPI   C5A 3947   3.937   8.429   7.842 -0.1485 -0.0772  0.1794
  247loPI   C6A 3948   4.382   8.526   7.875 -0.1066  0.2222  0.0556
  247loPI   C1B 3949   3.427   7.692   9.454  0.3650  0.2719 -0.2141
  247loPI   C2B 3950   3.414   7.765   8.974 -0.3676 -0.3291 -0.0124
  247loPI   C3B 3951   3.500   7.968   8.549  0.3899  0.1027 -0.0945
  247loPI   C4B 3952   3.483   8.055   8.096 -0.3091 -0.1942 -0.2518
  248loPI    C1 3953   4.302   4.191  10.902 -0.1307 -0.2269 -0.1928
  248loPI    C2 3954   3.935   4.089  11.025 -0.0780  0.0108  0.1758
  248loPI    C3 3955   4.217   4.184  11.293  0.2334 -0.0954 -0.1073
  248loPI   PO4 3956   4.250   4.323  10.611 -0.0169  0.0733 -0.0551
  248loPI   GL1 3957   4.335   4.214  10.250 -0.0089 -0.4206 -0.1941
  248loPI   GL2 3958   4.536   4.045  10.333 -0.0874  0.3106 -0.0245
  248loPI   C1A 3959   4.344   4.311   9.841  0.2903  0.0153  0.0147
  248loPI   C2A 3960   4.379   4.305   9.366  0.0552  0.0598  0.1763
  248loPI   C3A 3961   4.484   4.325   8.963 -0.0752 -0.0386  0.1470
  248loPI   C4A 3962   4.633   4.326   8.469  0.0574 -0.0457  0.3377
  248loPI   C5A 3963   4.743   3.893   8.217  0.2508  0.0023  0.0522
  248loPI   C6A 3964   5.104   3.998   7.996  0.4007 -0.2149 -0.0933
  248loPI   C1B 3965   4.614   3.896   9.912 -0.0450 -0.5543 -0.1304
  248loPI   C2B 3966   4.540   3.808   9.457  0.1419 -0.0895  0.1563
  248loPI   C3B 3967   4.657   3.842   9.005  0.1601  0.2441  0.0948
  248loPI   C4B 3968   4.773   3.883   8.678 -0.1605  0.0121  0.2086
  249loPI    C1 3969   8.846  16.719  10.913  0.2198 -0.1957 -0.0232
  249loPI    C2 3970   8.865  16.799  11.304  0.3120 -0.0032 -0.0660
  249loPI    C3 3971   8.972  16.439  11.169  0.0948 -0.1353  0.1063
  249loPI   PO4 3972   8.579  16.713  10.828  0.2708 -0.5116 -0.0313
  249loPI   GL1 3973   8.432  16.562  10.463  0.1302 -0.0860 -0.1025
  249loPI   GL2 3974   8.076  16.636  10.436 -0.1070  0.0286 -0.2844
  249loPI   C1A 3975   8.551  16.638  10.039 -0.4805  0.2451  0.1890
  249loPI   C2A 3976   8.545  16.570   9.535 -0.0019 -0.0372  0.0454
  249loPI   C3A 3977   8.593  16.836   9.055 -0.7489  0.0707 -0.1289
  249loPI   C4A 3978   8.659  17.019   8.608 -0.0240  0.0654  0.2404
  249loPI   C5A 3979   8.417  17.245   8.339  0.1810  0.0402  0.2099
  249loPI   C6A 3980   8.215  17.109   7.986 -0.0831 -0.0664  0.2186
  249loPI   C1B 3981   8.186  16.949  10.074  0.0145 -0.1577 -0.0479
  249loPI   C2B 3982   8.320  17.049   9.735 -0.1897  0.0099  0.0685
  249loPI   C3B 3983   8.557  17.300   9.413  0.1890 -0.0446 -0.0253
  249loPI   C4B 3984   8.489  17.364   8.922  0.0087  0.2231  0.1621
  250loPI    C1 3985   7.486  13.971  11.033  0.0806 -0.0444  0.0490
  250loPI    C2 3986   7.745  14.161  11.271  0.0121  0.0935  0.0142
  250loPI    C3 3987   7.440  13.957  11.430 -0.0090  0.1497  0.0465
  250loPI   PO4 3988   7.540  14.088  10.827 -0.1012 -0.0025 -0.0028
  250loPI   GL1 3989   7.518  14.188  10.410  0.1703 -0.0506 -0.1283
  250loPI   GL2 3990   7.822  14.374  10.279  0.1122 -0.0188 -0.0137
  250loPI   C1A 3991   7.296  14.017  10.047 -0.0670 -0.1051 -0.0460
  250loPI   C2A 3992   7.276  14.094   9.563  0.3062  0.0749 -0.1985
  250loPI   C3A 3993   7.302  14.126   9.119 -0.1799  0.2201  0.1991
  250loPI   C4A 3994   7.392  13.902   8.724 -0.0367  0.1913 -0.0797
  250loPI   C5A 3995   7.599  14.081   8.349  0.0307  0.0964  0.4125
  250loPI   C6A 3996   8.045  14.163   8.207  0.0733  0.1344  0.0259
  250loPI   C1B 3997   7.455  14.491   9.987  0.3451 -0.1058 -0.0268
  250loPI   C2B 3998   7.491  14.548   9.624 -0.0638 -0.0199 -0.0215
  250loPI   C3B 3999   7.546  14.567   9.194 -0.3251  0.0585 -0.4157
  250loPI   C4B 4000   7.480  14.432   8.745 -0.0981  0.3820 -0.3243
  251loPI    C1 4001   2.586   6.882  10.225 -0.1911  0.0836 -0.3227
  251loPI    C2 4002   2.307   6.711  10.455 -0.0450  0.0981 -0.1321
  251loPI    C3 4003   2.327   7.109  10.428  0.0689  0.1021 -0.0027
  251loPI   PO4 4004   2.629   6.800   9.918 -0.0329 -0.3896  0.0487
  251loPI   GL1 4005   2.395   6.933   9.567 -0.0176 -0.0422 -0.0272
  251loPI   GL2 4006   2.274   6.759   9.378  0.1840 -0.3030 -0.3530
  251loPI   C1A 4007   2.646   7.070   9.211 -0.2232  0.1238  0.2523
  251loPI   C2A 4008   2.682   7.054   8.778 -0.2800  0.3186  0.3038
  251loPI   C3A 4009   2.661   6.901   8.396 -0.3906 -0.1449 -0.1073
  251loPI   C4A 4010   2.609   6.467   8.288  0.0516 -0.1896  0.2869
  251loPI   C5A 4011   2.712   6.280   7.889 -0.0673 -0.0500 -0.1475
  251loPI   C6A 4012   2.869   6.201   7.416  0.0634  0.0121  0.2342
  251loPI   C1B 4013   2.270   6.755   8.968 -0.0842  0.0777 -0.1682
  251loPI   C2B 4014   2.286   6.694   8.650 -0.1361  0.0649 -0.1913
  251loPI   C3B 4015   2.166   6.698   8.291 -0.0075 -0.1458  0.1382
  251loPI   C4B 4016   2.225   6.756   7.834  0.1772  0.1426  0.1113
  252loPI    C1 4017  15.399   3.280  10.548 -0.0651 -0.1163 -0.2865
  252loPI    C2 4018  15.662   3.475  10.319  0.1787 -0.2667 -0.1387
  252loPI    C3 4019  15.678   3.510  10.718 -0.0517 -0.2460 -0.1299
  252loPI   PO4 4020  15.227   3.215  10.386  0.1662  0.1419 -0.2305
  252loPI   GL1 4021  15.191   3.195   9.977 -0.0383  0.2427 -0.1924
  252loPI   GL2 4022  15.500   3.034  10.028 -0.1603 -0.1024 -0.0138
  252loPI   C1A 4023  15.101   3.270   9.609  0.0511 -0.0334  0.0671
  252loPI   C2A 4024  15.242   3.145   9.155  0.0488 -0.0901  0.0015
  252loPI   C3A 4025  15.184   3.040   8.683  0.0612  0.0381  0.0511
  252loPI   C4A 4026  15.178   3.328   8.395 -0.0378  0.0193 -0.3276
  252loPI   C5A 4027  14.937   3.510   8.018 -0.1084 -0.1699 -0.2328
  252loPI   C6A 4028  14.697   3.480   7.673 -0.1363 -0.1115 -0.5088
  252loPI   C1B 4029  15.589   3.106   9.603  0.0486  0.0156  0.0718
  252loPI   C2B 4030  15.830   3.044   9.169 -0.0284  0.0349 -0.1357
  252loPI   C3B 4031  15.708   2.915   8.731  0.0402  0.1007 -0.2031
  252loPI   C4B 4032  15.472   2.815   8.397  0.0924  0.1977  0.2197
  253loPI    C1 4033   6.549  15.367  11.149 -0.1255  0.2239 -0.0682
  253loPI    C2 4034   6.583  15.013  10.966  0.2227  0.1385  0.1519
  253loPI    C3 4035   6.223  15.181  11.012  0.0658 -0.1356 -0.0472
  253loPI   PO4 4036   6.776  15.480  11.029  0.3216  0.0279 -0.1579
  253loPI   GL1 4037   6.686  15.621  10.611 -0.2230 -0.1495 -0.2267
  253loPI   GL2 4038   6.455  15.367  10.618  0.2738  0.0868  0.1687
  253loPI   C1A 4039   7.010  15.373  10.249  0.0348 -0.1043 -0.0565
  253loPI   C2A 4040   7.054  15.370   9.879  0.0362 -0.2595 -0.1444
  253loPI   C3A 4041   7.071  15.363   9.383  0.1239  0.1682 -0.3107
  253loPI   C4A 4042   6.871  15.381   8.984 -0.1730  0.0645 -0.3344
  253loPI   C5A 4043   6.835  15.353   8.480  0.3383  0.2149 -0.1903
  253loPI   C6A 4044   6.551  15.204   8.141 -0.0464  0.1289 -0.0061
  253loPI   C1B 4045   6.516  15.440  10.154 -0.1751  0.0946 -0.3578
  253loPI   C2B 4046   6.455  15.487   9.647  0.1418  0.0826 -0.2751
  253loPI   C3B 4047   6.397  15.556   9.145  0.0695 -0.4739  0.2641
  253loPI   C4B 4048   6.384  15.404   8.697 -0.0852 -0.1447  0.1401
  254loPI    C1 4049   9.646   0.561  10.764  0.0490  0.0730 -0.0120
  254loPI    C2 4050   9.871   0.502  11.090  0.0109 -0.0395 -0.0056
  254loPI    C3 4051   9.472   0.497  11.118  0.0057  0.2640  0.0018
  254loPI   PO4 4052   9.821   0.736  10.670  0.0354 -0.3192 -0.0655
  254loPI   GL1 4053   9.816   1.144  10.364 -0.1760  0.0796  0.2068
  254loPI   GL2 4054   9.706   1.186  10.270  0.1032  0.0532  0.0019
  254loPI   C1A 4055   9.847   1.186   9.797 -0.0169  0.0271 -0.0986
  254loPI   C2A 4056   9.832   1.234   9.259  0.1410  0.2267  0.3069
  254loPI   C3A 4057   9.995   1.222   8.890  0.0769 -0.1496  0.1599
  254loPI   C4A 4058  10.336   1.493   8.726 -0.0709 -0.0627  0.2021
  254loPI   C5A 4059  10.828   1.369   8.659 -0.2131  0.3370 -0.3206
  254loPI   C6A 4060  11.233   1.626   8.697 -0.0899 -0.1443  0.2059
  254loPI   C1B 4061   9.483   0.881  10.014  0.0053 -0.2418  0.4232
  254loPI   C2B 4062   9.429   0.895   9.541  0.0328  0.1656 -0.0505
  254loPI   C3B 4063   9.490   0.806   9.115  0.1087  0.1180 -0.1458
  254loPI   C4B 4064   9.747   0.793   8.718  0.2908  0.1016  0.3790
  255loPI    C1 4065   0.427   5.490  10.352  0.0261  0.1458 -0.0986
  255loPI    C2 4066   0.624   5.798  10.514  0.0836  0.1008 -0.0826
  255loPI    C3 4067   0.378   5.578  10.739  0.0836  0.1022 -0.0812
  255loPI   PO4 4068   0.332   5.582  10.128 -0.0394  0.1364  0.0819
  255loPI   GL1 4069   0.140   5.493   9.816 -0.0732 -0.4646 -0.1093
  255loPI   GL2 4070   0.068   5.752   9.587  0.0522  0.0598  0.3960
  255loPI   C1A 4071   0.243   5.322   9.461 -0.2460  0.0871  0.1214
  255loPI   C2A 4072   0.343   5.233   9.069 -0.0497  0.0885 -0.4055
  255loPI   C3A 4073   0.339   5.185   8.648 -0.0653  0.2003  0.0782
  255loPI   C4A 4074   0.552   5.000   8.299 -0.3434 -0.2269 -0.3106
  255loPI   C5A 4075   0.533   4.800   7.865 -0.0500  0.1440  0.2240
  255loPI   C6A 4076   0.934   4.481   7.803  0.3138 -0.2535  0.0894
  255loPI   C1B 4077   0.012   5.759   9.210 -0.0927  0.1383 -0.1373
  255loPI   C2B 4078   0.022   5.719   8.833 -0.1869 -0.3064  0.2529
  255loPI   C3B 4079   0.186   5.752   8.480 -0.1482  0.3750  0.0160
  255loPI   C4B 4080   0.095   5.851   8.091 -0.0049 -0.2873  0.4712
  256loPI    C1 4081   5.405   4.113  10.858 -0.1733  0.1385  0.1506
  256loPI    C2 4082   5.451   3.851  11.157  0.0326  0.2119  0.1849
  256loPI    C3 4083   5.168   4.134  11.180 -0.1277  0.0527  0.1900
  256loPI   PO4 4084   5.581   3.932  10.697  0.0821 -0.2928  0.0345
  256loPI   GL1 4085   5.725   3.891  10.418  0.3462 -0.2536  0.1023
  256loPI   GL2 4086   5.967   4.091  10.419 -0.3617 -0.2832  0.3135
  256loPI   C1A 4087   5.644   3.608  10.027  0.0339  0.0819  0.0771
  256loPI   C2A 4088   5.558   3.497   9.560  0.0069 -0.2350 -0.1347
  256loPI   C3A 4089   5.656   3.439   9.113 -0.0598  0.1564 -0.0986
  256loPI   C4A 4090   5.623   3.370   8.765 -0.1361  0.0827 -0.1235
  256loPI   C5A 4091   5.652   3.398   8.266 -0.3663  0.0972 -0.1026
  256loPI   C6A 4092   6.023   3.632   8.051 -0.2537  0.5482 -0.1011
  256loPI   C1B 4093   5.997   3.970   9.934 -0.0117  0.2197 -0.0768
  256loPI   C2B 4094   5.963   3.769   9.561  0.2412 -0.4682  0.0751
  256loPI   C3B 4095   6.058   3.808   9.037  0.3643  0.0134  0.0144
  256loPI   C4B 4096   6.033   3.709   8.610 -0.0343  0.1867  0.0344
  257loPI    C1 4097  16.916   2.451  10.857 -0.2214 -0.1453 -0.0736
  257loPI    C2 4098  16.663   2.514  11.161 -0.1411 -0.0032 -0.0357
  257loPI    C3 4099  17.038   2.394  11.234 -0.1216  0.0319 -0.0780
  257loPI   PO4 4100  16.902   2.347  10.719 -0.1131 -0.1913  0.0358
  257loPI   GL1 4101  16.685   2.155  10.360 -0.0757 -0.1679 -0.2888
  257loPI   GL2 4102  16.611   1.877  10.336 -0.1109 -0.1619  0.1106
  257loPI   C1A 4103  17.034   1.965  10.161  0.1213  0.3329  0.0724
  257loPI   C2A 4104  17.247   1.893   9.797 -0.0724  0.2559  0.0059
  257loPI   C3A 4105  17.183   1.921   9.403  0.2526  0.2508  0.0817
  257loPI   C4A 4106  17.183   1.903   9.045 -0.2517 -0.0056 -0.1822
  257loPI   C5A 4107  17.299   1.867   8.638  0.0731 -0.0947 -0.3235
  257loPI   C6A 4108  17.531   1.730   8.285  0.1615  0.2411 -0.0324
  257loPI   C1B 4109  16.574   1.740   9.899 -0.2209 -0.1827 -0.1652
  257loPI   C2B 4110  16.796   1.614   9.540  0.0807 -0.2293 -0.3134
  257loPI   C3B 4111  16.777   1.567   9.052 -0.0280 -0.0994 -0.3031
  257loPI   C4B 4112  16.998   1.488   8.641  0.4081 -0.0428 -0.1290
  258loPI    C1 4113   5.341   1.314  11.054 -0.1316 -0.0926  0.0648
  258loPI    C2 4114   5.564   1.008  11.184  0.0061 -0.0513 -0.0721
  258loPI    C3 4115   5.166   0.971  11.162  0.0430 -0.3208 -0.3560
  258loPI   PO4 4116   5.343   1.416  10.819  0.0729 -0.0799  0.0339
  258loPI   GL1 4117   5.375   1.422  10.372  0.1551  0.0510  0.0994
  258loPI   GL2 4118   5.582   1.134  10.340  0.1780 -0.2316  0.1538
  258loPI   C1A 4119   5.054   1.390  10.036  0.2284 -0.1137 -0.2037
  258loPI   C2A 4120   5.056   1.217   9.558  0.3144 -0.1593  0.1226
  258loPI   C3A 4121   5.223   1.312   9.124  0.1402  0.3417  0.3465
  258loPI   C4A 4122   5.112   1.282   8.680 -0.2763 -0.2553 -0.0774
  258loPI   C5A 4123   5.485   1.179   8.383  0.0448 -0.1379 -0.1099
  258loPI   C6A 4124   5.836   1.297   8.270  0.1882  0.3816 -0.0808
  258loPI   C1B 4125   5.649   1.342   9.908  0.0307  0.1075  0.0273
  258loPI   C2B 4126   5.599   1.195   9.467  0.1902  0.1199 -0.1804
  258loPI   C3B 4127   5.723   1.089   8.998 -0.1032  0.1363  0.0668
  258loPI   C4B 4128   5.793   0.862   8.623  0.2994  0.0069 -0.0827
  259loPI    C1 4129  13.791   7.217  10.115 -0.0920  0.1866 -0.1848
  259loPI    C2 4130  13.520   7.071   9.859 -0.0131 -0.1225 -0.0963
  259loPI    C3 4131  13.716   6.824  10.105  0.1245  0.1368  0.0588
  259loPI   PO4 4132  13.753   7.518  10.058 -0.0180 -0.2201 -0.0920
  259loPI   GL1 4133  13.392   7.508   9.781  0.0243 -0.0444  0.2295
  259loPI   GL2 4134  13.055   7.563   9.633 -0.2395 -0.2453  0.0608
  259loPI   C1A 4135  13.394   7.342   9.377 -0.0712  0.2374 -0.3356
  259loPI   C2A 4136  13.230   7.404   9.023 -0.0045 -0.3442 -0.1984
  259loPI   C3A 4137  13.295   7.464   8.632 -0.2055  0.0396  0.1114
  259loPI   C4A 4138  13.590   7.828   8.501 -0.1338 -0.1210 -0.0121
  259loPI   C5A 4139  13.856   7.952   8.228 -0.0801 -0.2115  0.3769
  259loPI   C6A 4140  13.751   8.368   7.944  0.0991  0.4772  0.0846
  259loPI   C1B 4141  12.806   7.508   9.267 -0.1624  0.0583 -0.2329
  259loPI   C2B 4142  12.790   7.615   8.874  0.2402  0.0068 -0.1329
  259loPI   C3B 4143  12.664   7.847   8.603 -0.1250  0.1695 -0.1496
  259loPI   C4B 4144  12.359   7.979   8.416 -0.2999 -0.0032 -0.0666
  260loPI    C1 4145  15.660   7.669  10.005 -0.2122  0.0714  0.1074
  260loPI    C2 4146  15.614   7.294   9.871 -0.0597  0.0897 -0.0003
  260loPI    C3 4147  15.456   7.403  10.223 -0.0595 -0.0898  0.0560
  260loPI   PO4 4148  15.589   7.787   9.771 -0.0958 -0.2214 -0.2542
  260loPI   GL1 4149  15.800   7.396   9.364  0.2784  0.1619  0.2915
  260loPI   GL2 4150  15.527   7.633   9.300  0.0006 -0.1273 -0.0221
  260loPI   C1A 4151  15.859   7.322   8.944 -0.2123  0.0430 -0.1226
  260loPI   C2A 4152  15.924   7.340   8.571 -0.2091 -0.0007  0.1460
  260loPI   C3A 4153  16.173   7.213   8.223  0.0834  0.1615  0.1934
  260loPI   C4A 4154  16.372   7.176   7.789 -0.1306  0.1618  0.1628
  260loPI   C5A 4155  16.612   7.179   7.355  0.1139  0.0092 -0.2568
  260loPI   C6A 4156  16.775   7.168   6.980  0.1086  0.0484 -0.0164
  260loPI   C1B 4157  15.559   7.769   8.832 -0.0748  0.0340  0.0119
  260loPI   C2B 4158  15.650   7.692   8.495 -0.0172 -0.2738  0.0137
  260loPI   C3B 4159  15.761   7.519   8.054  0.0464 -0.1997  0.0200
  260loPI   C4B 4160  16.071   7.561   7.868 -0.0039  0.1757 -0.1622
  261loPI    C1 4161   9.273  15.346  11.243  0.0545 -0.0147 -0.2875
  261loPI    C2 4162   9.659  15.367  11.345 -0.0548 -0.1479  0.1815
  261loPI    C3 4163   9.463  15.020  11.376 -0.2226 -0.0742 -0.0268
  261loPI   PO4 4164   9.279  15.537  11.016 -0.3534 -0.0167  0.0618
  261loPI   GL1 4165   9.230  15.684  10.547  0.0227 -0.2103  0.3159
  261loPI   GL2 4166   9.103  15.912  10.431 -0.1899 -0.0544  0.1602
  261loPI   C1A 4167   9.426  15.510  10.216 -0.0497  0.2242 -0.2334
  261loPI   C2A 4168   9.379  15.529   9.752 -0.1423  0.0657  0.1809
  261loPI   C3A 4169   9.339  15.557   9.326 -0.0475  0.0641 -0.0857
  261loPI   C4A 4170   9.356  15.657   8.879  0.2341  0.0415 -0.0292
  261loPI   C5A 4171   9.507  15.866   8.514  0.0304 -0.1155 -0.0550
  261loPI   C6A 4172   9.697  16.269   8.336 -0.0903  0.0090 -0.0899
  261loPI   C1B 4173   9.194  16.076  10.127  0.1541 -0.0483  0.0860
  261loPI   C2B 4174   9.251  16.046   9.771  0.5044 -0.1469  0.0098
  261loPI   C3B 4175   9.238  16.028   9.348 -0.0242 -0.1012 -0.0846
  261loPI   C4B 4176   9.192  16.194   8.959 -0.1683  0.2134  0.1167
  262loPI    C1 4177  15.212  12.431  10.576  0.0564  0.1301  0.1083
  262loPI    C2 4178  15.097  12.548  10.940 -0.0090 -0.1530  0.1808
  262loPI    C3 4179  15.078  12.162  10.839  0.0581 -0.0836 -0.1059
  262loPI   PO4 4180  15.115  12.672  10.423  0.0140  0.0086  0.0323
  262loPI   GL1 4181  14.947  12.811  10.004 -0.1072  0.1374 -0.1820
  262loPI   GL2 4182  14.594  12.915  10.134  0.1986 -0.0236 -0.1230
  262loPI   C1A 4183  15.174  12.945   9.628  0.2786  0.1722 -0.1261
  262loPI   C2A 4184  15.097  12.962   9.245  0.0887 -0.1593  0.2937
  262loPI   C3A 4185  15.131  13.025   8.766 -0.2377 -0.2604  0.0196
  262loPI   C4A 4186  15.309  12.977   8.464 -0.0478 -0.1109 -0.1003
  262loPI   C5A 4187  15.296  12.793   8.142  0.2287  0.1006 -0.4710
  262loPI   C6A 4188  14.980  12.579   8.248  0.1403 -0.0121 -0.0526
  262loPI   C1B 4189  14.619  12.989   9.642  0.1223 -0.3258  0.0638
  262loPI   C2B 4190  14.520  13.139   9.210 -0.0445  0.1076  0.0256
  262loPI   C3B 4191  14.548  13.241   8.774 -0.1175  0.0180 -0.1452
  262loPI   C4B 4192  14.810  13.174   8.463 -0.1458 -0.2197  0.3648
  263loPI    C1 4193   0.860  16.960  11.328  0.0323 -0.0350  0.0899
  263loPI    C2 4194   0.594  16.661  11.341  0.0687 -0.0622  0.2180
  263loPI    C3 4195   0.567  16.965  11.600 -0.0543  0.1200 -0.0047
  263loPI   PO4 4196   0.930  16.997  11.067  0.0261 -0.0371 -0.2787
  263loPI   GL1 4197   1.020  16.789  10.667 -0.2161  0.0578 -0.0805
  263loPI   GL2 4198   0.705  16.809  10.699 -0.0837  0.0460  0.0819
  263loPI   C1A 4199   1.157  16.705  10.281  0.0518 -0.1177  0.0853
  263loPI   C2A 4200   1.089  16.660   9.893 -0.2457  0.1685  0.0852
  263loPI   C3A 4201   1.087  16.714   9.493 -0.0850  0.0125 -0.0514
  263loPI   C4A 4202   0.928  16.600   9.092  0.0012  0.2388  0.1409
  263loPI   C5A 4203   0.763  16.928   8.659  0.1208  0.0154  0.1714
  263loPI   C6A 4204   0.999  17.088   8.428  0.0653  0.1618 -0.1214
  263loPI   C1B 4205   0.651  16.802  10.235 -0.2630 -0.0144 -0.0373
  263loPI   C2B 4206   0.613  16.831   9.756 -0.1833  0.3030  0.2102
  263loPI   C3B 4207   0.484  16.756   9.404 -0.0154  0.0277  0.0622
  263loPI   C4B 4208   0.345  16.804   8.927 -0.1822  0.0760 -0.1774
  264loPI    C1 4209  10.129  13.434  10.660  0.0136  0.0947  0.0755
  264loPI    C2 4210   9.873  13.408  10.966 -0.1023  0.1055 -0.0201
  264loPI    C3 4211   9.935  13.760  10.787 -0.3718  0.0186 -0.2940
  264loPI   PO4 4212  10.113  13.244  10.544  0.1887 -0.3775  0.0406
  264loPI   GL1 4213  10.022  13.033  10.209  0.4213  0.1119 -0.0561
  264loPI   GL2 4214  10.222  12.790  10.258 -0.0611 -0.2346 -0.0606
  264loPI   C1A 4215   9.679  13.070   9.693  0.1987  0.3427 -0.0966
  264loPI   C2A 4216   9.505  13.138   9.245  0.0217 -0.2693 -0.1038
  264loPI   C3A 4217   9.222  13.118   8.944  0.3340  0.2786  0.2885
  264loPI   C4A 4218   8.984  13.149   8.522  0.0292  0.0213 -0.3272
  264loPI   C5A 4219   8.823  13.061   8.056  0.2033  0.0263 -0.2331
  264loPI   C6A 4220   8.713  13.056   7.621  0.0101 -0.1564  0.0731
  264loPI   C1B 4221  10.122  12.740   9.870 -0.0592 -0.2552 -0.1010
  264loPI   C2B 4222  10.025  12.856   9.447  0.1956  0.0572 -0.0078
  264loPI   C3B 4223  10.002  13.060   8.991  0.2465 -0.3437 -0.2045
  264loPI   C4B 4224   9.930  13.287   8.620  0.0727 -0.0375  0.3384
  265loPI    C1 4225  16.259   8.310  10.128 -0.1224  0.2119 -0.0653
  265loPI    C2 4226  15.966   8.536  10.280 -0.1296  0.1574  0.0020
  265loPI    C3 4227  16.344   8.593  10.398 -0.1319  0.1315  0.0223
  265loPI   PO4 4228  16.252   8.289   9.860  0.1179  0.1119 -0.0594
  265loPI   GL1 4229  16.178   8.365   9.404  0.0775 -0.3474  0.0265
  265loPI   GL2 4230  16.074   8.578   9.343 -0.0446 -0.4034  0.0912
  265loPI   C1A 4231  15.864   8.174   9.006  0.2476  0.2515 -0.1445
  265loPI   C2A 4232  15.778   8.200   8.673 -0.0826 -0.3818  0.2766
  265loPI   C3A 4233  15.509   8.232   8.356 -0.1145  0.3014 -0.2058
  265loPI   C4A 4234  15.485   8.114   7.991  0.1680 -0.2890  0.0103
  265loPI   C5A 4235  15.644   7.985   7.655 -0.1480 -0.2676  0.1580
  265loPI   C6A 4236  15.750   7.573   7.515 -0.1085  0.1870 -0.0145
  265loPI   C1B 4237  16.229   8.731   8.944 -0.1804 -0.1273 -0.0975
  265loPI   C2B 4238  16.023   8.675   8.571 -0.4155 -0.1112 -0.1019
  265loPI   C3B 4239  16.081   8.471   8.158 -0.0205 -0.2261  0.3287
  265loPI   C4B 4240  15.985   8.090   8.018 -0.1496 -0.0520 -0.1005
  266loPI    C1 4241  17.294  17.645  11.212  0.3301 -0.1470 -0.1519
  266loPI    C2 4242  17.177  17.382  11.490 -0.0247  0.1165 -0.0434
  266loPI    C3 4243  17.554  17.516  11.487  0.0740 -0.1516  0.0929
  266loPI   PO4 4244  17.134  17.567  10.974 -0.0703 -0.1179  0.2499
  266loPI   GL1 4245  16.966  17.391  10.576 -0.3380  0.1786 -0.2264
  266loPI   GL2 4246  16.883  17.657  10.527  0.1768 -0.2961  0.1779
  266loPI   C1A 4247  16.956  17.180  10.313 -0.0270  0.0930 -0.1180
  266loPI   C2A 4248  16.938  17.090   9.961  0.0145 -0.2379  0.5100
  266loPI   C3A 4249  16.883  17.068   9.490 -0.0978 -0.2005 -0.1579
  266loPI   C4A 4250  17.069  17.184   9.099  0.2401  0.0044 -0.1874
  266loPI   C5A 4251  17.256  17.224   8.759  0.1299  0.1797 -0.0471
  266loPI   C6A 4252  17.550  17.468   8.582 -0.3175 -0.0168 -0.2892
  266loPI   C1B 4253  16.843  17.792  10.058 -0.1154  0.0779 -0.0475
  266loPI   C2B 4254  16.704  17.575   9.651  0.2061 -0.0798 -0.0407
  266loPI   C3B 4255  16.774  17.654   9.272 -0.2985 -0.0339 -0.3883
  266loPI   C4B 4256  17.017  17.698   8.889  0.1891  0.1145  0.2721
  267loPI    C1 4257  10.925   7.498  10.600 -0.0644  0.1254 -0.1449
  267loPI    C2 4258  10.680   7.814  10.592  0.0440  0.2071 -0.2615
  267loPI    C3 4259  10.998   7.814  10.834 -0.0577  0.1104 -0.1266
  267loPI   PO4 4260  10.830   7.462  10.301  0.1079 -0.0617 -0.0769
  267loPI   GL1 4261  10.488   7.509  10.042  0.0464 -0.1935 -0.0932
  267loPI   GL2 4262  10.552   7.172   9.890  0.3675  0.0857  0.1144
  267loPI   C1A 4263  10.571   7.762   9.708  0.5238  0.1283 -0.1235
  267loPI   C2A 4264  10.451   7.763   9.237 -0.0723 -0.0308  0.1395
  267loPI   C3A 4265  10.336   7.667   8.744  0.3738  0.2056 -0.1342
  267loPI   C4A 4266  10.402   7.707   8.329  0.1283 -0.2885 -0.1701
  267loPI   C5A 4267  10.345   7.353   8.044  0.0850  0.2734 -0.0757
  267loPI   C6A 4268  10.387   7.267   7.667  0.0023 -0.3119 -0.0207
  267loPI   C1B 4269  10.503   7.276   9.508  0.1453  0.3477  0.1332
  267loPI   C2B 4270  10.515   7.229   9.027  0.0675 -0.0768 -0.1491
  267loPI   C3B 4271  10.471   7.093   8.601  0.0913  0.0979 -0.1476
  267loPI   C4B 4272  10.487   6.839   8.274  0.0118  0.0995  0.1348
  268loPI    C1 4273   5.325   0.471  11.101 -0.1609 -0.0519 -0.0382
  268loPI    C2 4274   5.424   0.166  11.340 -0.1482  0.0330  0.0659
  268loPI    C3 4275   5.593   0.525  11.393 -0.0274  0.0132 -0.1717
  268loPI   PO4 4276   5.385   0.383  10.841 -0.1170 -0.3201  0.0224
  268loPI   GL1 4277   5.255   0.334  10.393  0.3560 -0.1876 -0.2151
  268loPI   GL2 4278   5.122   0.574  10.331 -0.1494  0.3429  0.1755
  268loPI   C1A 4279   5.349   0.271   9.925 -0.1014  0.1234  0.3394
  268loPI   C2A 4280   5.465   0.276   9.511  0.4177  0.0195 -0.1719
  268loPI   C3A 4281   5.450   0.254   9.055  0.1480  0.0402  0.0369
  268loPI   C4A 4282   5.538   0.362   8.625  0.0253 -0.0490 -0.0330
  268loPI   C5A 4283   5.544   0.583   8.268 -0.0457  0.1995 -0.0859
  268loPI   C6A 4284   5.509   0.826   7.975 -0.1078  0.1069 -0.0932
  268loPI   C1B 4285   4.877   0.455   9.879 -0.1233  0.0920  0.1899
  268loPI   C2B 4286   4.718   0.436   9.453 -0.2201 -0.1952  0.1027
  268loPI   C3B 4287   4.926   0.418   9.050  0.1351 -0.0145 -0.0671
  268loPI   C4B 4288   5.015   0.303   8.550  0.0107  0.1257 -0.3058
  269loPI    C1 4289   4.153   1.096  11.021  0.1011 -0.1598  0.0464
  269loPI    C2 4290   4.225   1.057  11.413 -0.1615 -0.0567  0.1069
  269loPI    C3 4291   4.245   0.738  11.172  0.0351 -0.1139  0.1973
  269loPI   PO4 4292   4.309   1.275  10.923  0.2607 -0.2021 -0.3194
  269loPI   GL1 4293   4.277   1.341  10.531  0.2241  0.0301 -0.2589
  269loPI   GL2 4294   4.558   1.364  10.383 -0.2263  0.0828 -0.1254
  269loPI   C1A 4295   4.213   1.104  10.130 -0.1228  0.1702  0.1805
  269loPI   C2A 4296   4.189   1.073   9.718  0.0087  0.0537 -0.1381
  269loPI   C3A 4297   4.220   1.012   9.324  0.0333  0.0507  0.2346
  269loPI   C4A 4298   4.177   1.052   9.007 -0.3822 -0.2589 -0.0302
  269loPI   C5A 4299   4.313   1.040   8.620  0.0395  0.0577 -0.1730
  269loPI   C6A 4300   4.605   0.967   8.349 -0.0930 -0.0207  0.0545
  269loPI   C1B 4301   4.563   1.385   9.875 -0.1691  0.2544 -0.2065
  269loPI   C2B 4302   4.556   1.362   9.403  0.2112 -0.1101 -0.1627
  269loPI   C3B 4303   4.670   1.404   8.928  0.3778 -0.2830 -0.1398
  269loPI   C4B 4304   4.732   1.495   8.433  0.1186  0.0628  0.1876
  270loPI    C1 4305   6.132   0.318  11.265 -0.1638  0.2667  0.2696
  270loPI    C2 4306   5.917  -0.012  11.196 -0.0448  0.2493 -0.0353
  270loPI    C3 4307   5.904   0.164  11.555 -0.0894 -0.1004  0.1390
  270loPI   PO4 4308   6.254   0.463  11.053  0.0271  0.0573  0.1727
  270loPI   GL1 4309   6.217   0.514  10.659 -0.2481  0.3923 -0.2127
  270loPI   GL2 4310   6.143   0.776  10.631 -0.0938  0.2933 -0.2169
  270loPI   C1A 4311   6.129   0.441  10.188 -0.1382  0.0666  0.1284
  270loPI   C2A 4312   6.183   0.374   9.809  0.0943 -0.1120  0.0625
  270loPI   C3A 4313   6.251   0.501   9.407 -0.1069  0.2642  0.1467
  270loPI   C4A 4314   6.293   0.484   8.972 -0.4253  0.3071  0.1564
  270loPI   C5A 4315   6.211   0.564   8.484  0.1063 -0.0753 -0.4009
  270loPI   C6A 4316   6.003   0.789   8.195 -0.0475  0.0848  0.0637
  270loPI   C1B 4317   6.162   0.991  10.257  0.1029 -0.1709  0.3030
  270loPI   C2B 4318   6.240   0.925   9.843 -0.1726 -0.1923  0.0938
  270loPI   C3B 4319   6.139   1.008   9.377 -0.1043  0.0725 -0.1977
  270loPI   C4B 4320   6.193   0.947   8.983  0.1401  0.1395 -0.2398
  271loPI    C1 4321   7.196  10.799  10.454  0.1995 -0.2034 -0.1739
  271loPI    C2 4322   7.112  10.431  10.583  0.0294 -0.0947  0.0315
  271loPI    C3 4323   7.456  10.606  10.688  0.0326 -0.1282  0.0773
  271loPI   PO4 4324   7.165  10.830  10.232  0.2047 -0.1746 -0.0578
  271loPI   GL1 4325   7.404  10.961   9.959  0.0890 -0.0075  0.1702
  271loPI   GL2 4326   7.554  10.711   9.832 -0.0341 -0.0755  0.1344
  271loPI   C1A 4327   7.178  11.288   9.710 -0.2360 -0.0985  0.1371
  271loPI   C2A 4328   7.235  11.366   9.266  0.0237 -0.1634 -0.0351
  271loPI   C3A 4329   7.213  11.285   8.876  0.0055 -0.3457  0.0670
  271loPI   C4A 4330   7.142  11.262   8.477 -0.0315  0.2449  0.2166
  271loPI   C5A 4331   7.292  11.080   8.235 -0.0163 -0.2771  0.2029
  271loPI   C6A 4332   7.360  10.743   7.876 -0.0127  0.2789 -0.0246
  271loPI   C1B 4333   7.318  10.871   9.485 -0.3156  0.2013 -0.0284
  271loPI   C2B 4334   7.214  10.842   9.165  0.0954 -0.0441  0.2563
  271loPI   C3B 4335   7.250  10.785   8.771  0.0806  0.2755  0.3452
  271loPI   C4B 4336   7.216  10.571   8.325  0.0575  0.0963  0.1283
  272loPI    C1 4337  12.127   8.133  10.538  0.2167  0.1176  0.0022
  272loPI    C2 4338  12.069   8.414  10.816  0.0581  0.0195  0.0699
  272loPI    C3 4339  12.257   8.074  10.912  0.1821  0.0695  0.0068
  272loPI   PO4 4340  12.177   8.350  10.329  0.0346  0.0799  0.0547
  272loPI   GL1 4341  11.994   8.674  10.032 -0.3679 -0.0123  0.0278
  272loPI   GL2 4342  11.698   8.794  10.051 -0.0794  0.2161  0.2333
  272loPI   C1A 4343  12.252   8.734   9.651  0.1404 -0.2419 -0.0296
  272loPI   C2A 4344  12.195   8.823   9.243 -0.0131  0.0849  0.1692
  272loPI   C3A 4345  12.295   8.822   8.794  0.1298  0.2087  0.0923
  272loPI   C4A 4346  12.380   9.038   8.393  0.1059  0.1218  0.0916
  272loPI   C5A 4347  12.514   9.103   8.001 -0.2067 -0.0632  0.1632
  272loPI   C6A 4348  12.555   9.338   7.676 -0.0381  0.2029  0.1676
  272loPI   C1B 4349  11.774   9.023   9.740 -0.0916  0.1774 -0.1309
  272loPI   C2B 4350  11.831   9.172   9.278 -0.0360 -0.4064 -0.1813
  272loPI   C3B 4351  11.952   9.214   8.837 -0.1888 -0.0367 -0.0962
  272loPI   C4B 4352  11.935   9.285   8.294  0.0767 -0.2397 -0.0389
  273loPI    C1 4353   5.702   7.119  10.894  0.0616  0.0365 -0.0767
  273loPI    C2 4354   5.412   6.877  11.027  0.2848 -0.1173  0.1397
  273loPI    C3 4355   5.466   7.235  11.196  0.1716 -0.0550  0.0458
  273loPI   PO4 4356   5.630   7.138  10.653  0.0578 -0.0663  0.0391
  273loPI   GL1 4357   5.993   7.235  10.298  0.0841  0.2070  0.2546
  273loPI   GL2 4358   5.713   7.294  10.114  0.0731  0.2120 -0.2171
  273loPI   C1A 4359   6.345   7.337  10.037  0.0161  0.0433 -0.0104
  273loPI   C2A 4360   6.634   7.232   9.658 -0.1532 -0.2159  0.1103
  273loPI   C3A 4361   6.690   7.102   9.287  0.1082 -0.1523 -0.1394
  273loPI   C4A 4362   6.856   7.038   8.972 -0.0632 -0.4567  0.2450
  273loPI   C5A 4363   6.934   6.960   8.524 -0.3690 -0.0821 -0.3622
  273loPI   C6A 4364   7.045   6.800   8.156  0.1079  0.5288  0.2382
  273loPI   C1B 4365   5.557   7.184   9.738  0.1652  0.4847  0.1380
  273loPI   C2B 4366   5.508   7.012   9.340  0.2420 -0.2216  0.1103
  273loPI   C3B 4367   5.535   6.977   8.851 -0.2253  0.2421 -0.2335
  273loPI   C4B 4368   5.171   6.994   8.422  0.1564 -0.1861 -0.1730
  274loPI    C1 4369  16.602  13.209  10.990 -0.1352 -0.3242  0.0819
  274loPI    C2 4370  16.719  13.275  11.367  0.2110  0.1412 -0.0969
  274loPI    C3 4371  16.809  12.929  11.186  0.0274 -0.0916  0.2471
  274loPI   PO4 4372  16.679  13.347  10.877  0.0303 -0.0393  0.1348
  274loPI   GL1 4373  16.742  13.451  10.464  0.2904 -0.1382  0.1007
  274loPI   GL2 4374  16.791  13.754  10.372  0.0500  0.0518  0.2270
  274loPI   C1A 4375  16.455  13.388  10.161  0.0014 -0.0450 -0.1799
  274loPI   C2A 4376  16.481  13.424   9.712 -0.0932  0.1470 -0.1872
  274loPI   C3A 4377  16.491  13.498   9.364  0.1352 -0.2997  0.2406
  274loPI   C4A 4378  16.415  13.616   8.908 -0.0216 -0.2723  0.0998
  274loPI   C5A 4379  16.357  13.630   8.470  0.0199 -0.0461  0.1481
  274loPI   C6A 4380  16.128  13.385   8.206  0.0247 -0.3525  0.0298
  274loPI   C1B 4381  16.941  13.699   9.969  0.1919  0.2491 -0.0889
  274loPI   C2B 4382  16.859  13.828   9.589 -0.3261  0.0775  0.3109
  274loPI   C3B 4383  16.815  13.807   9.125 -0.0663 -0.1382 -0.2873
  274loPI   C4B 4384  16.944  13.834   8.695  0.2883 -0.3174 -0.1132
  275loPI    C1 4385   8.898  14.535  10.812 -0.3258  0.0495  0.1868
  275loPI    C2 4386   9.170  14.266  10.928  0.0636  0.3064 -0.1066
  275loPI    C3 4387   8.885  14.384  11.182  0.1645 -0.0385  0.1746
  275loPI   PO4 4388   9.034  14.699  10.669 -0.1383 -0.3038 -0.0353
  275loPI   GL1 4389   9.058  14.891  10.398  0.2137 -0.3050 -0.1875
  275loPI   GL2 4390   9.174  14.690  10.174  0.1364  0.1429  0.2292
  275loPI   C1A 4391   9.090  15.133   9.939 -0.2072  0.3482 -0.2364
  275loPI   C2A 4392   9.027  15.203   9.578  0.1316  0.0126  0.0235
  275loPI   C3A 4393   8.937  15.193   9.209 -0.1557  0.3348 -0.4035
  275loPI   C4A 4394   8.890  15.282   8.742 -0.0042  0.1697  0.0947
  275loPI   C5A 4395   8.758  15.421   8.315 -0.0962 -0.1848 -0.1401
  275loPI   C6A 4396   8.873  15.495   7.950 -0.0644 -0.1136 -0.2058
  275loPI   C1B 4397   9.153  14.652   9.739  0.1548  0.0803  0.0082
  275loPI   C2B 4398   9.038  14.729   9.336  0.2307 -0.0798 -0.1921
  275loPI   C3B 4399   9.158  14.779   8.921  0.2009  0.1097  0.2085
  275loPI   C4B 4400   9.264  14.510   8.604 -0.0536  0.2465 -0.0289
  276loPI    C1 4401   9.691   1.708  11.115  0.0011  0.0462 -0.0871
  276loPI    C2 4402   9.669   1.399  11.368  0.1219  0.0505 -0.0709
  276loPI    C3 4403  10.022   1.573  11.294  0.0909  0.0360 -0.2582
  276loPI   PO4 4404   9.474   1.654  10.958 -0.2097 -0.1242  0.0827
  276loPI   GL1 4405   9.426   1.764  10.575  0.0665  0.0545  0.0304
  276loPI   GL2 4406   9.729   1.706  10.480  0.4201 -0.1800  0.4383
  276loPI   C1A 4407   9.245   1.847  10.236 -0.0402  0.2313  0.2759
  276loPI   C2A 4408   9.234   1.870   9.726 -0.0413  0.0364 -0.2528
  276loPI   C3A 4409   9.180   1.878   9.242  0.2677  0.3138 -0.2257
  276loPI   C4A 4410   9.268   1.778   8.835  0.1970  0.0568  0.0939
  276loPI   C5A 4411   9.079   1.819   8.503 -0.0326 -0.0059  0.2793
  276loPI   C6A 4412   9.183   1.857   8.016 -0.1412  0.0406 -0.2703
  276loPI   C1B 4413   9.721   1.645  10.046  0.0758 -0.2129 -0.1652
  276loPI   C2B 4414   9.728   1.660   9.671 -0.0941  0.0776 -0.3125
  276loPI   C3B 4415   9.641   1.715   9.233  0.0144 -0.0980  0.1460
  276loPI   C4B 4416   9.832   1.628   8.850 -0.0766  0.0142 -0.0600
  277loPI    C1 4417   4.967   5.380  10.486  0.0141  0.1479  0.0677
  277loPI    C2 4418   4.758   5.692  10.348 -0.1324  0.0280  0.0163
  277loPI    C3 4419   4.568   5.377  10.505  0.0174 -0.0089  0.1259
  277loPI   PO4 4420   5.135   5.362  10.314  0.1066  0.0784 -0.0826
  277loPI   GL1 4421   5.488   5.560  10.100 -0.1198 -0.1231  0.0606
  277loPI   GL2 4422   5.754   5.780   9.968 -0.0024 -0.2012 -0.0124
  277loPI   C1A 4423   5.222   5.551   9.715  0.1536 -0.1052 -0.3133
  277loPI   C2A 4424   4.897   5.727   9.307 -0.1812  0.1916 -0.0496
  277loPI   C3A 4425   4.840   5.740   8.883  0.0409 -0.0437  0.0637
  277loPI   C4A 4426   4.752   5.861   8.451 -0.2709 -0.0767 -0.0335
  277loPI   C5A 4427   4.807   5.627   8.020  0.1164  0.0515 -0.0956
  277loPI   C6A 4428   4.498   5.889   7.877 -0.0582  0.0256  0.1976
  277loPI   C1B 4429   5.750   5.440   9.624 -0.0861  0.0322 -0.1619
  277loPI   C2B 4430   5.803   5.382   9.194  0.1588  0.1952 -0.0665
  277loPI   C3B 4431   5.782   5.306   8.848 -0.0716  0.1535  0.0111
  277loPI   C4B 4432   5.853   5.365   8.397  0.1042 -0.2637  0.1269
  278loPI    C1 4433  10.135   7.016  10.933 -0.2966  0.1396  0.1095
  278loPI    C2 4434  10.015   7.377  11.055 -0.2087  0.1291  0.2299
  278loPI    C3 4435   9.937   7.055  11.278 -0.0079  0.1150  0.2816
  278loPI   PO4 4436  10.064   6.991  10.591 -0.4665 -0.1207  0.1801
  278loPI   GL1 4437  10.103   7.054  10.128  0.0451 -0.2419 -0.3065
  278loPI   GL2 4438   9.754   7.167  10.195 -0.1709  0.0088  0.1733
  278loPI   C1A 4439  10.024   6.887   9.704 -0.1091 -0.1310  0.0313
  278loPI   C2A 4440  10.322   6.822   9.358 -0.1198 -0.0793 -0.1608
  278loPI   C3A 4441  10.212   6.766   8.925 -0.2586 -0.0328 -0.2848
  278loPI   C4A 4442  10.106   6.667   8.493  0.1505  0.1629 -0.1244
  278loPI   C5A 4443   9.778   6.643   8.210  0.0737 -0.0171 -0.3150
  278loPI   C6A 4444   9.598   7.027   7.979  0.1742 -0.2505 -0.0555
  278loPI   C1B 4445   9.583   6.836   9.913  0.0613  0.0271 -0.0444
  278loPI   C2B 4446   9.606   6.781   9.493 -0.2309 -0.0990  0.0818
  278loPI   C3B 4447   9.742   6.707   9.153 -0.0658  0.0837  0.0351
  278loPI   C4B 4448   9.747   6.748   8.777 -0.0903  0.2580 -0.0972
  279loPI    C1 4449  11.810   0.469  11.150 -0.3261  0.0062 -0.3750
  279loPI    C2 4450  11.631   0.790  11.308 -0.2262 -0.1058 -0.0243
  279loPI    C3 4451  11.477   0.425  11.368 -0.0498 -0.1731  0.0243
  279loPI   PO4 4452  11.817   0.444  10.922 -0.1468 -0.2589 -0.0330
  279loPI   GL1 4453  11.659   0.323  10.532 -0.0275  0.0483 -0.0602
  279loPI   GL2 4454  11.545   0.644  10.383  0.0135  0.0650  0.0940
  279loPI   C1A 4455  11.755   0.031  10.186 -0.0883 -0.0176  0.2563
  279loPI   C2A 4456  11.870  -0.052   9.833 -0.0275  0.1176 -0.1881
  279loPI   C3A 4457  11.671  -0.238   9.518 -0.0594  0.1215  0.0993
  279loPI   C4A 4458  11.641  -0.255   9.086 -0.0253  0.1354  0.2834
  279loPI   C5A 4459  11.343  -0.018   8.803  0.0326 -0.1122 -0.2215
  279loPI   C6A 4460  10.900  -0.126   8.740  0.2327 -0.1474  0.2057
  279loPI   C1B 4461  11.652   0.469   9.998  0.1318  0.0157  0.1109
  279loPI   C2B 4462  11.596   0.291   9.629  0.0622  0.1044 -0.2526
  279loPI   C3B 4463  11.505   0.234   9.189 -0.2986 -0.0454 -0.0186
  279loPI   C4B 4464  11.625   0.392   8.744 -0.0140  0.0191  0.0291
  280loPI    C1 4465   1.157  17.575  11.320 -0.0711 -0.2689 -0.0825
  280loPI    C2 4466   1.529  17.607  11.461 -0.1218  0.4443 -0.0723
  280loPI    C3 4467   1.218  17.626  11.712 -0.1772 -0.1200 -0.0844
  280loPI   PO4 4468   1.165  17.449  11.048 -0.0929  0.2846 -0.0425
  280loPI   GL1 4469   1.286  17.224  10.729  0.0358 -0.0480 -0.2535
  280loPI   GL2 4470   1.482  17.093  10.545  0.3689 -0.1835  0.2047
  280loPI   C1A 4471   1.045  17.174  10.374 -0.0711  0.3551  0.2007
  280loPI   C2A 4472   0.977  17.099   9.877 -0.1664 -0.0965  0.1567
  280loPI   C3A 4473   0.967  17.230   9.514 -0.2122 -0.0356  0.0338
  280loPI   C4A 4474   0.799  17.135   9.059  0.1302 -0.0125 -0.4483
  280loPI   C5A 4475   0.440  17.310   8.690  0.1504 -0.2302 -0.0692
  280loPI   C6A 4476   0.356  17.360   8.247  0.1440 -0.0458  0.1644
  280loPI   C1B 4477   1.449  17.106  10.080  0.1725 -0.2936 -0.1591
  280loPI   C2B 4478   1.443  17.058   9.574 -0.0174 -0.0212 -0.1122
  280loPI   C3B 4479   1.296  17.024   9.200 -0.3027 -0.0515 -0.0070
  280loPI   C4B 4480   1.359  16.982   8.767  0.2526 -0.2565  0.2741
  281loPI    C1 4481   2.842   9.243  10.468  0.3505 -0.2771 -0.0651
  281loPI    C2 4482   3.196   9.392  10.582  0.1249  0.0886  0.1809
  281loPI    C3 4483   2.924   9.290  10.857  0.0445 -0.2130 -0.0059
  281loPI   PO4 4484   2.794   9.426  10.292  0.0182 -0.2670  0.0451
  281loPI   GL1 4485   2.816   9.440   9.876  0.1137  0.2183  0.1567
  281loPI   GL2 4486   2.682   9.806   9.861 -0.0287 -0.0007  0.1560
  281loPI   C1A 4487   2.759   9.422   9.412  0.1400 -0.0643 -0.1467
  281loPI   C2A 4488   2.863   9.498   8.878  0.0375 -0.0051 -0.1630
  281loPI   C3A 4489   2.793   9.427   8.419 -0.0250 -0.1258  0.1427
  281loPI   C4A 4490   2.795   9.641   8.041  0.0357 -0.0207 -0.1799
  281loPI   C5A 4491   2.506   9.880   7.874  0.1143 -0.1583  0.0661
  281loPI   C6A 4492   2.139   9.914   7.694  0.0864 -0.0270 -0.1818
  281loPI   C1B 4493   2.569   9.855   9.501  0.2264 -0.1308 -0.0345
  281loPI   C2B 4494   2.640   9.894   9.099  0.2614 -0.4361 -0.1999
  281loPI   C3B 4495   2.668   9.908   8.694  0.0487  0.2188  0.1254
  281loPI   C4B 4496   2.654  10.069   8.295 -0.2733  0.1011  0.0518
  282loPI    C1 4497  17.956   0.384  11.349  0.0311  0.1049 -0.0983
  282loPI    C2 4498  17.814   0.615  11.643 -0.1129 -0.0586 -0.0382
  282loPI    C3 4499  18.102   0.348  11.720  0.0150  0.0617 -0.0961
  282loPI   PO4 4500  17.885   0.510  11.097  0.0378  0.2235 -0.0937
  282loPI   GL1 4501  17.866   0.281  10.734  0.2053  0.1126 -0.2839
  282loPI   GL2 4502  18.138   0.508  10.661 -0.1303 -0.0473  0.1913
  282loPI   C1A 4503  17.678   0.029  10.342 -0.1098  0.4464 -0.1064
  282loPI   C2A 4504  17.585  -0.098   9.945  0.0942  0.0697 -0.1147
  282loPI   C3A 4505  17.583  -0.137   9.460  0.1721 -0.2164 -0.0582
  282loPI   C4A 4506  17.863  -0.026   9.150  0.0845 -0.1006 -0.1702
  282loPI   C5A 4507  17.857  -0.100   8.726  0.0807 -0.0411  0.1662
  282loPI   C6A 4508  17.711   0.052   8.353  0.0805 -0.0826 -0.1656
  282loPI   C1B 4509  18.181   0.442  10.226  0.1715 -0.2514 -0.2068
  282loPI   C2B 4510  18.212   0.366   9.698  0.0643 -0.1260 -0.2323
  282loPI   C3B 4511  18.206   0.291   9.273 -0.1520  0.4248 -0.0296
  282loPI   C4B 4512  18.238   0.320   8.830  0.3241 -0.1823 -0.0539
  283loPI    C1 4513  12.650   1.863  10.658 -0.0285  0.1538  0.0598
  283loPI    C2 4514  12.933   1.811  10.936 -0.0095 -0.0564  0.0022
  283loPI    C3 4515  12.957   1.617  10.587 -0.1079  0.0973 -0.0911
  283loPI   PO4 4516  12.671   2.158  10.641 -0.2683  0.0285 -0.0621
  283loPI   GL1 4517  12.950   2.079  10.286 -0.0469 -0.5440  0.1601
  283loPI   GL2 4518  12.596   2.116  10.048 -0.2298 -0.0595 -0.2178
  283loPI   C1A 4519  12.993   1.905   9.820  0.1054  0.1451  0.2527
  283loPI   C2A 4520  12.979   1.926   9.466  0.1312  0.0760  0.2028
  283loPI   C3A 4521  13.019   1.878   9.029  0.4680 -0.2075  0.0717
  283loPI   C4A 4522  13.165   1.905   8.652  0.1664 -0.0046 -0.0797
  283loPI   C5A 4523  13.577   1.774   8.383 -0.0552  0.4855 -0.0422
  283loPI   C6A 4524  13.829   1.402   8.482 -0.3719 -0.1877  0.1143
  283loPI   C1B 4525  12.477   2.023   9.690  0.1087  0.2243 -0.1814
  283loPI   C2B 4526  12.567   1.855   9.219  0.0690  0.0986  0.0151
  283loPI   C3B 4527  12.736   1.463   8.917 -0.0379  0.0206 -0.0125
  283loPI   C4B 4528  12.619   1.216   8.559  0.0380 -0.0764 -0.3518
  284loPI    C1 4529   1.327   1.829  10.651 -0.0140  0.0491 -0.0540
  284loPI    C2 4530   1.615   1.684  10.888  0.1299  0.1392 -0.1715
  284loPI    C3 4531   1.337   1.931  11.037  0.0398 -0.0456 -0.0302
  284loPI   PO4 4532   1.420   1.855  10.433 -0.3000  0.4036 -0.6486
  284loPI   GL1 4533   1.256   1.803  10.057 -0.1927 -0.0068  0.3254
  284loPI   GL2 4534   1.154   2.046   9.966  0.4947 -0.1847  0.1723
  284loPI   C1A 4535   1.272   1.562   9.603  0.1113 -0.2204  0.2629
  284loPI   C2A 4536   1.267   1.351   9.223  0.3047 -0.1076  0.2469
  284loPI   C3A 4537   1.405   1.328   8.691  0.0220 -0.3774 -0.0032
  284loPI   C4A 4538   1.367   1.539   8.430  0.1553 -0.1794 -0.0733
  284loPI   C5A 4539   1.325   1.900   8.195  0.0007 -0.0520  0.0018
  284loPI   C6A 4540   1.158   2.329   8.267  0.0541  0.0225  0.0328
  284loPI   C1B 4541   1.068   2.032   9.552  0.1067 -0.1245  0.1097
  284loPI   C2B 4542   1.058   1.985   9.121 -0.1006  0.3566  0.1409
  284loPI   C3B 4543   1.200   2.026   8.648 -0.1331 -0.0619  0.2534
  284loPI   C4B 4544   1.633   2.236   8.523  0.0515  0.4272 -0.1504
  285loPI    C1 4545   7.726   8.776  10.457  0.2241  0.1106  0.0477
  285loPI    C2 4546   7.908   8.733  10.810  0.0293 -0.1138  0.1234
  285loPI    C3 4547   7.589   8.972  10.777  0.1135 -0.0074  0.0736
  285loPI   PO4 4548   7.858   8.533  10.271  0.1796 -0.1236 -0.4174
  285loPI   GL1 4549   7.811   8.254   9.917 -0.2654  0.0130  0.1900
  285loPI   GL2 4550   8.170   8.080   9.915  0.1044  0.0429  0.0927
  285loPI   C1A 4551   7.765   8.260   9.435  0.2003 -0.1959 -0.0874
  285loPI   C2A 4552   7.762   8.152   9.076  0.1359 -0.1043 -0.1356
  285loPI   C3A 4553   7.770   8.119   8.693 -0.0885  0.1538  0.1303
  285loPI   C4A 4554   7.831   7.916   8.253 -0.1139  0.0413  0.0692
  285loPI   C5A 4555   8.045   8.014   7.895 -0.0806 -0.0062 -0.1771
  285loPI   C6A 4556   8.219   8.264   7.573  0.0134  0.0221 -0.0014
  285loPI   C1B 4557   8.177   7.973   9.466 -0.0837 -0.2042  0.0924
  285loPI   C2B 4558   8.249   7.883   8.998 -0.0962 -0.1475 -0.0516
  285loPI   C3B 4559   8.177   7.612   8.728 -0.2812  0.0464  0.1238
  285loPI   C4B 4560   8.054   7.324   8.406  0.0814 -0.0124  0.1633
  286loPI    C1 4561   8.991   7.978  10.340  0.1056  0.2005 -0.1812
  286loPI    C2 4562   8.764   7.660  10.251  0.5009 -0.1586  0.0560
  286loPI    C3 4563   8.870   7.730  10.630  0.2191  0.4015  0.0415
  286loPI   PO4 4564   8.869   8.186  10.303  0.1547 -0.2397 -0.1956
  286loPI   GL1 4565   8.813   8.394   9.930 -0.0653  0.3234  0.0711
  286loPI   GL2 4566   9.083   8.610   9.972  0.1391  0.0599  0.0671
  286loPI   C1A 4567   8.721   8.175   9.549 -0.0206  0.0771  0.1240
  286loPI   C2A 4568   8.734   8.043   9.141  0.0922 -0.2859  0.1308
  286loPI   C3A 4569   8.719   7.826   8.635  0.0318 -0.4501 -0.3171
  286loPI   C4A 4570   8.883   7.773   8.307  0.1518  0.1641  0.2008
  286loPI   C5A 4571   8.931   7.702   7.905 -0.3366 -0.1758 -0.0115
  286loPI   C6A 4572   9.308   7.407   7.926  0.0587 -0.0118 -0.0665
  286loPI   C1B 4573   8.871   8.723   9.603 -0.1078 -0.1504  0.1838
  286loPI   C2B 4574   8.829   8.520   9.155  0.1291 -0.0615 -0.0930
  286loPI   C3B 4575   8.809   8.337   8.750  0.0080  0.1892 -0.0572
  286loPI   C4B 4576   8.819   8.241   8.281 -0.0855 -0.3208  0.1624
  287loPI    C1 4577   9.613   3.658  10.998 -0.0175 -0.1171 -0.0435
  287loPI    C2 4578   9.687   3.937  11.275  0.2020 -0.3449  0.1310
  287loPI    C3 4579   9.317   3.790  11.233  0.1172 -0.1370  0.1391
  287loPI   PO4 4580   9.662   3.769  10.791  0.3143  0.0682 -0.2236
  287loPI   GL1 4581   9.559   3.714  10.317  0.2171 -0.2326  0.1853
  287loPI   GL2 4582   9.256   3.789  10.164  0.0369 -0.2324 -0.0179
  287loPI   C1A 4583   9.659   3.757   9.830 -0.1131  0.0343 -0.2803
  287loPI   C2A 4584   9.640   3.740   9.422 -0.1076  0.0549  0.3092
  287loPI   C3A 4585   9.857   3.612   9.026  0.1668 -0.1820 -0.2349
  287loPI   C4A 4586   9.708   3.452   8.600 -0.0429 -0.0483  0.0886
  287loPI   C5A 4587   9.757   3.122   8.221  0.1143  0.0686 -0.1180
  287loPI   C6A 4588   9.564   2.789   8.198  0.0449  0.0218  0.1417
  287loPI   C1B 4589   9.202   3.847   9.711 -0.1325  0.0287  0.0116
  287loPI   C2B 4590   9.195   3.737   9.252  0.0019  0.0279  0.0272
  287loPI   C3B 4591   9.300   3.613   8.805 -0.1739 -0.0477  0.1288
  287loPI   C4B 4592   9.327   3.518   8.301 -0.0864  0.2062  0.1538
  288loPI    C1 4593   4.800   4.157  10.829 -0.1449 -0.0916  0.1262
  288loPI    C2 4594   4.608   3.815  10.748 -0.0681 -0.1377  0.1381
  288loPI    C3 4595   4.745   3.886  11.118 -0.2043 -0.0337  0.1696
  288loPI   PO4 4596   5.021   4.165  10.557  0.2997  0.1631 -0.1700
  288loPI   GL1 4597   5.270   3.954  10.281  0.1161 -0.0923  0.1346
  288loPI   GL2 4598   5.381   4.137  10.044 -0.3085  0.1804  0.0766
  288loPI   C1A 4599   5.125   3.755   9.905 -0.0279  0.0733 -0.0417
  288loPI   C2A 4600   5.037   3.628   9.487 -0.0347  0.0234  0.1242
  288loPI   C3A 4601   5.164   3.554   8.991  0.2008 -0.3725  0.0467
  288loPI   C4A 4602   5.197   3.513   8.532 -0.2472  0.1280  0.0803
  288loPI   C5A 4603   5.124   3.462   8.139  0.1215  0.0248 -0.1665
  288loPI   C6A 4604   4.909   3.202   7.848 -0.0728  0.3286 -0.0241
  288loPI   C1B 4605   5.502   4.067   9.668  0.4083 -0.2327 -0.0736
  288loPI   C2B 4606   5.521   3.903   9.189 -0.0633  0.2888  0.1863
  288loPI   C3B 4607   5.531   3.908   8.778 -0.0377  0.1802 -0.0737
  288loPI   C4B 4608   5.657   3.896   8.325  0.0859 -0.0765  0.3524
  289loPI    C1 4609  10.904   5.521  10.641  0.3452 -0.0755 -0.1346
  289loPI    C2 4610  11.132   5.618  10.955  0.1348 -0.0901  0.0246
  289loPI    C3 4611  10.844   5.343  10.994 -0.0374  0.0670 -0.1237
  289loPI   PO4 4612  11.148   5.530  10.399 -0.1146  0.1115  0.0328
  289loPI   GL1 4613  11.290   5.238  10.175 -0.1698 -0.0336 -0.0805
  289loPI   GL2 4614  11.159   4.998  10.081  0.2593 -0.1341 -0.3362
  289loPI   C1A 4615  11.135   5.233   9.630  0.1595  0.0510  0.0528
  289loPI   C2A 4616  10.953   5.168   9.141 -0.2052 -0.0583  0.3109
  289loPI   C3A 4617  10.872   5.071   8.762 -0.1712  0.0404  0.0257
  289loPI   C4A 4618  11.051   4.955   8.253  0.2236  0.0570  0.0413
  289loPI   C5A 4619  11.057   4.676   7.925 -0.1692  0.1513 -0.0828
  289loPI   C6A 4620  11.351   4.663   7.511  0.4970 -0.2559  0.2761
  289loPI   C1B 4621  11.034   4.735   9.731 -0.0212  0.0279  0.0235
  289loPI   C2B 4622  10.961   4.646   9.321 -0.2053  0.0861 -0.0265
  289loPI   C3B 4623  10.979   4.552   8.866 -0.0959 -0.0645  0.2141
  289loPI   C4B 4624  11.179   4.492   8.431  0.1292  0.0834  0.2537
  290loPI    C1 4625  14.366   6.920  10.183 -0.0899  0.1868 -0.0143
  290loPI    C2 4626  14.130   6.689  10.409 -0.1499  0.3055  0.0454
  290loPI    C3 4627  14.496   6.787  10.537 -0.0854  0.1611 -0.0255
  290loPI   PO4 4628  14.290   6.842   9.950 -0.0285  0.0222 -0.2000
  290loPI   GL1 4629  13.978   6.835   9.599 -0.0108 -0.1017 -0.2163
  290loPI   GL2 4630  13.910   7.158   9.591 -0.2345 -0.1992  0.0303
  290loPI   C1A 4631  13.973   6.711   9.177  0.0259  0.2727  0.0129
  290loPI   C2A 4632  13.827   6.661   8.745  0.2583  0.0801  0.1533
  290loPI   C3A 4633  13.548   6.609   8.350  0.0415  0.0522 -0.1523
  290loPI   C4A 4634  13.240   6.770   7.957 -0.1525  0.1605 -0.3376
  290loPI   C5A 4635  13.084   7.048   7.791  0.1296  0.0433  0.1536
  290loPI   C6A 4636  12.969   7.464   7.728 -0.1667 -0.1465  0.1763
  290loPI   C1B 4637  13.853   7.169   9.130 -0.0949  0.0150  0.2473
  290loPI   C2B 4638  13.847   7.156   8.774  0.0472  0.0833 -0.0089
  290loPI   C3B 4639  13.783   7.281   8.437  0.2707  0.2049 -0.1760
  290loPI   C4B 4640  13.948   7.405   8.085 -0.0779  0.0776  0.0778
  291loPI    C1 4641  11.460   4.167  10.360  0.0507 -0.1604 -0.0033
  291loPI    C2 4642  11.491   3.825  10.564  0.1323 -0.0246  0.2165
  291loPI    C3 4643  11.629   4.165  10.723  0.1294  0.0969 -0.0360
  291loPI   PO4 4644  11.431   4.181  10.135  0.0245  0.1139  0.1387
  291loPI   GL1 4645  11.424   4.380   9.776 -0.1047  0.1240  0.4008
  291loPI   GL2 4646  11.134   4.139   9.719 -0.1528  0.0135 -0.4248
  291loPI   C1A 4647  11.409   4.401   9.322  0.2610 -0.4141  0.1202
  291loPI   C2A 4648  11.482   4.386   8.862 -0.1965  0.2826  0.0368
  291loPI   C3A 4649  11.707   4.248   8.570 -0.3043  0.1444  0.1361
  291loPI   C4A 4650  11.546   4.246   8.190  0.2845  0.2834 -0.1151
  291loPI   C5A 4651  11.527   4.350   7.786 -0.1990 -0.0464 -0.2701
  291loPI   C6A 4652  11.463   4.004   7.502 -0.1209 -0.0072  0.1367
  291loPI   C1B 4653  11.061   4.023   9.275  0.2073 -0.2344 -0.0125
  291loPI   C2B 4654  11.175   3.977   8.825  0.1531 -0.0268 -0.0687
  291loPI   C3B 4655  11.139   4.021   8.408 -0.2146 -0.0220  0.0963
  291loPI   C4B 4656  11.201   3.947   8.004  0.1575 -0.1002 -0.3048
  292loPI    C1 4657   5.516  11.669  10.893  0.0088  0.0935  0.1316
  292loPI    C2 4658   5.210  11.456  11.039  0.1764 -0.1761  0.0972
  292loPI    C3 4659   5.466  11.637  11.288 -0.1555  0.2700  0.1264
  292loPI   PO4 4660   5.433  11.819  10.716 -0.1394 -0.0285  0.0920
  292loPI   GL1 4661   5.580  11.933  10.272 -0.2162  0.4210 -0.1524
  292loPI   GL2 4662   5.640  11.589  10.228 -0.0802 -0.1880  0.1015
  292loPI   C1A 4663   5.711  12.054   9.895  0.0150  0.2312  0.0609
  292loPI   C2A 4664   5.755  12.285   9.523 -0.2257 -0.1136 -0.2692
  292loPI   C3A 4665   5.725  12.434   9.128  0.2435  0.0259  0.2436
  292loPI   C4A 4666   5.672  12.389   8.639  0.0122 -0.1181 -0.0203
  292loPI   C5A 4667   5.385  12.292   8.283  0.1280  0.1734  0.1255
  292loPI   C6A 4668   5.364  11.902   8.189 -0.1580 -0.3750  0.1688
  292loPI   C1B 4669   5.515  11.589   9.834  0.0117 -0.3301  0.2164
  292loPI   C2B 4670   5.524  11.841   9.480  0.1624  0.0607 -0.3088
  292loPI   C3B 4671   5.379  12.051   9.076 -0.0393  0.0111 -0.1130
  292loPI   C4B 4672   5.414  11.978   8.746  0.0332 -0.1548 -0.1641
  293loPI    C1 4673   1.803  12.417  10.654  0.0078 -0.0413 -0.0567
  293loPI    C2 4674   1.510  12.322  10.909 -0.1375 -0.0333 -0.2186
  293loPI    C3 4675   1.812  12.555  11.029 -0.0697 -0.2396  0.0198
  293loPI   PO4 4676   1.670  12.429  10.409 -0.0195 -0.0745 -0.0871
  293loPI   GL1 4677   1.443  12.427  10.040  0.1060 -0.0726  0.1637
  293loPI   GL2 4678   1.227  12.728   9.857 -0.0373 -0.2760 -0.1137
  293loPI   C1A 4679   1.567  12.460   9.560 -0.0379  0.2699  0.0838
  293loPI   C2A 4680   1.593  12.548   9.158 -0.1043 -0.1400 -0.2421
  293loPI   C3A 4681   1.505  12.729   8.780 -0.2411 -0.3118 -0.4042
  293loPI   C4A 4682   1.630  12.618   8.374 -0.1569 -0.0365  0.0728
  293loPI   C5A 4683   1.320  12.484   8.124 -0.0476  0.2934  0.0681
  293loPI   C6A 4684   0.823  12.331   8.165  0.1880  0.2028 -0.1109
  293loPI   C1B 4685   1.274  12.922   9.499  0.3869  0.4222  0.1445
  293loPI   C2B 4686   1.206  12.916   9.115 -0.0133  0.1755  0.1450
  293loPI   C3B 4687   0.973  12.779   8.759  0.0049  0.0211 -0.1747
  293loPI   C4B 4688   0.925  12.766   8.324 -0.4649  0.2265 -0.3272
  294loPI    C1 4689  14.434   0.193  11.175  0.0693  0.1120  0.1625
  294loPI    C2 4690  14.181   0.498  11.229 -0.2679 -0.1198 -0.0657
  294loPI    C3 4691  14.039   0.129  11.171  0.1347 -0.3237  0.2033
  294loPI   PO4 4692  14.590   0.360  10.996 -0.1058  0.1831  0.6954
  294loPI   GL1 4693  14.723   0.244  10.590 -0.0202  0.1357  0.0235
  294loPI   GL2 4694  14.825  -0.054  10.715  0.4308  0.0300 -0.0294
  294loPI   C1A 4695  14.805   0.152  10.246 -0.0002  0.1181  0.1182
  294loPI   C2A 4696  14.822   0.214   9.785 -0.0212 -0.1172  0.0611
  294loPI   C3A 4697  14.713   0.253   9.393 -0.2607 -0.2899  0.1210
  294loPI   C4A 4698  14.745   0.251   8.989 -0.3037 -0.1166 -0.0479
  294loPI   C5A 4699  14.604   0.288   8.637  0.1631 -0.2908 -0.1112
  294loPI   C6A 4700  14.365   0.566   8.521  0.0717 -0.0687  0.0136
  294loPI   C1B 4701  14.952  -0.316  10.382 -0.1127  0.2476 -0.0158
  294loPI   C2B 4702  14.923  -0.327   9.928  0.2470  0.0931 -0.0694
  294loPI   C3B 4703  14.941  -0.379   9.473 -0.1424  0.1797  0.0644
  294loPI   C4B 4704  14.991  -0.167   9.154  0.1257  0.0406  0.3362
  295loPI    C1 4705  14.380  14.063  11.191  0.0347  0.1038  0.0637
  295loPI    C2 4706  14.555  14.358  10.986  0.1275 -0.0453 -0.0742
  295loPI    C3 4707  14.671  14.280  11.360 -0.0620  0.2460  0.0493
  295loPI   PO4 4708  14.360  13.888  10.968  0.0584  0.3042  0.0934
  295loPI   GL1 4709  14.521  13.751  10.605 -0.1448  0.1423  0.2227
  295loPI   GL2 4710  14.671  14.111  10.565  0.2242  0.0884  0.0972
  295loPI   C1A 4711  14.454  13.892  10.169  0.1699  0.1646  0.1509
  295loPI   C2A 4712  14.300  13.989   9.771  0.0969  0.0180 -0.1568
  295loPI   C3A 4713  14.420  14.093   9.365 -0.0941 -0.3174  0.0733
  295loPI   C4A 4714  14.370  14.204   8.996 -0.1849  0.2229  0.1866
  295loPI   C5A 4715  14.307  14.611   8.754 -0.1060  0.4101  0.0869
  295loPI   C6A 4716  14.365  14.980   8.637 -0.1499 -0.2416  0.0657
  295loPI   C1B 4717  14.887  14.404  10.275 -0.0723 -0.1066 -0.1399
  295loPI   C2B 4718  14.868  14.494   9.909  0.0339 -0.4427  0.0063
  295loPI   C3B 4719  14.865  14.481   9.547 -0.1723 -0.0993  0.2396
  295loPI   C4B 4720  14.687  14.492   9.247 -0.2622 -0.0363  0.1425
  296loPI    C1 4721  12.927   4.072  10.315 -0.0170  0.2289  0.0123
  296loPI    C2 4722  12.919   4.377  10.573 -0.1143  0.0731  0.1962
  296loPI    C3 4723  12.854   4.004  10.702 -0.0812 -0.0166 -0.0408
  296loPI   PO4 4724  12.717   4.197  10.145 -0.3120  0.0409  0.0416
  296loPI   GL1 4725  12.666   4.401   9.754  0.2648 -0.0361 -0.2106
  296loPI   GL2 4726  12.409   4.262   9.717  0.1681  0.0473 -0.1605
  296loPI   C1A 4727  12.775   4.605   9.451  0.0801 -0.2158  0.1115
  296loPI   C2A 4728  12.874   4.728   9.032  0.0800 -0.0245 -0.2015
  296loPI   C3A 4729  12.947   4.848   8.651 -0.0519  0.0033 -0.3528
  296loPI   C4A 4730  13.111   4.929   8.231  0.1547 -0.2183  0.2318
  296loPI   C5A 4731  13.194   5.156   7.926 -0.2594 -0.1075 -0.1141
  296loPI   C6A 4732  13.091   5.134   7.521  0.1791  0.1868  0.0042
  296loPI   C1B 4733  12.455   4.249   9.321  0.1313 -0.1073 -0.0378
  296loPI   C2B 4734  12.530   4.307   8.937 -0.1450  0.3862  0.0276
  296loPI   C3B 4735  12.748   4.372   8.591 -0.0263  0.2235  0.0875
  296loPI   C4B 4736  12.882   4.456   8.176  0.1104  0.0670  0.1963
  297loPI    C1 4737  16.726  17.926  10.954 -0.0457 -0.1168  0.1509
  297loPI    C2 4738  17.055  18.127  11.060 -0.0534 -0.0058 -0.0313
  297loPI    C3 4739  16.868  17.896  11.327  0.1700 -0.0683  0.0742
  297loPI   PO4 4740  16.583  18.048  10.926 -0.3817 -0.0016  0.3269
  297loPI   GL1 4741  16.325  18.058  10.588 -0.3175  0.1315 -0.1994
  297loPI   GL2 4742  16.615  18.128  10.374 -0.1691  0.1194  0.0844
  297loPI   C1A 4743  16.276  17.780  10.287 -0.2185 -0.1961  0.0367
  297loPI   C2A 4744  16.344  17.806   9.909  0.3565 -0.1595  0.3130
  297loPI   C3A 4745  16.254  17.791   9.549  0.1328  0.0926 -0.3043
  297loPI   C4A 4746  16.304  17.809   9.141 -0.0997  0.1516  0.0973
  297loPI   C5A 4747  16.492  17.659   8.776  0.0212  0.5445  0.1649
  297loPI   C6A 4748  16.757  17.683   8.451 -0.1577 -0.0425  0.1290
  297loPI   C1B 4749  16.661  18.212   9.970 -0.1249 -0.0454 -0.1083
  297loPI   C2B 4750  16.643  18.112   9.581 -0.0130 -0.2949  0.0654
  297loPI   C3B 4751  16.686  18.177   9.147  0.1713  0.2523 -0.0185
  297loPI   C4B 4752  16.775  18.149   8.659 -0.0402 -0.0404  0.0644
  298loPI    C1 4753   2.469   0.272  10.744 -0.0731  0.0466 -0.1525
  298loPI    C2 4754   2.338   0.640  10.831 -0.1954 -0.0694  0.1686
  298loPI    C3 4755   2.682   0.508  10.988 -0.1801 -0.1126  0.0991
  298loPI   PO4 4756   2.356   0.269  10.519 -0.2035 -0.0885  0.1730
  298loPI   GL1 4757   2.258   0.379  10.118 -0.0210  0.1186 -0.3992
  298loPI   GL2 4758   2.565   0.415  10.062 -0.0065  0.2886 -0.0067
  298loPI   C1A 4759   2.070   0.314   9.842  0.1122  0.0501 -0.2073
  298loPI   C2A 4760   2.045   0.192   9.536 -0.2039 -0.0920  0.0459
  298loPI   C3A 4761   2.030   0.224   8.990  0.0441 -0.4131 -0.0147
  298loPI   C4A 4762   2.171   0.278   8.662  0.0922 -0.0744 -0.1521
  298loPI   C5A 4763   2.291   0.251   8.251  0.0919 -0.3273 -0.2719
  298loPI   C6A 4764   2.675   0.167   8.058 -0.3602  0.1264 -0.0105
  298loPI   C1B 4765   2.542   0.125   9.648  0.2751  0.2236  0.0703
  298loPI   C2B 4766   2.460   0.133   9.313  0.0717  0.0127 -0.0492
  298loPI   C3B 4767   2.571   0.107   8.949 -0.0534  0.1968 -0.1425
  298loPI   C4B 4768   2.715   0.160   8.571  0.0023  0.2184 -0.2232
  299loPI    C1 4769   0.136  17.612  11.367 -0.3722  0.0228 -0.0098
  299loPI    C2 4770  -0.139  17.881  11.476 -0.1273  0.1285  0.3671
  299loPI    C3 4771   0.180  17.816  11.708  0.0822 -0.1152  0.0208
  299loPI   PO4 4772   0.034  17.420  11.241 -0.1417  0.2025  0.4514
  299loPI   GL1 4773  -0.162  17.354  10.930 -0.0801 -0.2457  0.2190
  299loPI   GL2 4774  -0.285  17.616  10.941 -0.0113 -0.1054 -0.1238
  299loPI   C1A 4775   0.042  17.085  10.660  0.1841 -0.0949 -0.0799
  299loPI   C2A 4776   0.062  17.056  10.274  0.0282 -0.1009  0.1499
  299loPI   C3A 4777   0.059  16.999   9.856 -0.1611  0.0065  0.0785
  299loPI   C4A 4778   0.033  16.942   9.516 -0.1664 -0.1540 -0.0562
  299loPI   C5A 4779  -0.029  17.022   9.132 -0.0197 -0.0095  0.1275
  299loPI   C6A 4780  -0.064  17.347   8.877 -0.2359 -0.0181  0.1593
  299loPI   C1B 4781  -0.126  17.526  10.492 -0.1070 -0.1296  0.1953
  299loPI   C2B 4782  -0.166  17.512  10.049  0.2889  0.0255  0.2236
  299loPI   C3B 4783  -0.180  17.478   9.726 -0.0914  0.1418  0.3591
  299loPI   C4B 4784  -0.109  17.456   9.325  0.1309 -0.2978 -0.1478
  300loPI    C1 4785  12.126  11.832  10.963 -0.1741  0.1201 -0.2086
  300loPI    C2 4786  12.398  12.116  11.040 -0.2115  0.0859  0.0584
  300loPI    C3 4787  12.194  11.947  11.341 -0.1611 -0.2535 -0.0930
  300loPI   PO4 4788  12.036  11.862  10.703  0.0418 -0.4253  0.0015
  300loPI   GL1 4789  12.205  11.907  10.174  0.2449  0.4035 -0.2118
  300loPI   GL2 4790  12.489  11.780  10.209  0.0949 -0.0282 -0.0395
  300loPI   C1A 4791  11.957  12.065   9.808  0.0219 -0.2808  0.1712
  300loPI   C2A 4792  11.913  12.287   9.400  0.2620  0.0429 -0.0637
  300loPI   C3A 4793  11.973  12.454   9.018  0.2621  0.0698  0.0084
  300loPI   C4A 4794  12.166  12.570   8.677 -0.2907 -0.1739  0.0457
  300loPI   C5A 4795  12.507  12.254   8.462 -0.0099 -0.3277  0.0475
  300loPI   C6A 4796  12.410  11.812   8.254 -0.1102 -0.2724  0.1984
  300loPI   C1B 4797  12.428  11.929   9.692 -0.1162  0.2158 -0.2005
  300loPI   C2B 4798  12.297  11.940   9.227 -0.2011 -0.3771 -0.3729
  300loPI   C3B 4799  12.189  12.018   8.826 -0.2424  0.0155  0.0564
  300loPI   C4B 4800  12.003  12.145   8.508 -0.1933 -0.2342 -0.4519
  301loPI    C1 4801   5.765   8.855  10.652  0.2356 -0.2917 -0.1333
  301loPI    C2 4802   5.974   8.602  10.881 -0.0537 -0.0408  0.4283
  301loPI    C3 4803   5.841   8.947  11.034 -0.2924  0.1189 -0.1154
  301loPI   PO4 4804   5.684   8.535  10.436  0.2594 -0.0842  0.1287
  301loPI   GL1 4805   5.686   8.357  10.075 -0.2156  0.0538 -0.1265
  301loPI   GL2 4806   6.051   8.431   9.965 -0.1223 -0.3844  0.2303
  301loPI   C1A 4807   5.699   8.319   9.609  0.0208 -0.1236  0.1748
  301loPI   C2A 4808   5.777   8.327   9.249 -0.0168 -0.2054 -0.0425
  301loPI   C3A 4809   5.960   8.200   8.921 -0.1870  0.0723  0.3081
  301loPI   C4A 4810   5.898   8.092   8.468  0.3239  0.2327 -0.2843
  301loPI   C5A 4811   5.920   8.367   8.029 -0.1681  0.0954  0.0900
  301loPI   C6A 4812   5.994   8.273   7.494  0.0857 -0.2364  0.2658
  301loPI   C1B 4813   6.160   8.155   9.568  0.0805  0.2495 -0.3352
  301loPI   C2B 4814   6.295   8.015   9.241 -0.1661  0.1741  0.4494
  301loPI   C3B 4815   6.319   7.824   8.871 -0.0628 -0.0871  0.0125
  301loPI   C4B 4816   6.357   7.951   8.409 -0.4978  0.2639 -0.0474
  302loPI    C1 4817   7.445   4.855  10.932  0.0833  0.0196  0.1674
  302loPI    C2 4818   7.230   5.023  11.225  0.0616  0.0679  0.1240
  302loPI    C3 4819   7.483   4.724  11.308  0.2270  0.2354  0.2299
  302loPI   PO4 4820   7.178   4.794  10.711 -0.0130 -0.0195  0.3750
  302loPI   GL1 4821   7.075   4.814  10.382  0.3044 -0.0339 -0.1068
  302loPI   GL2 4822   6.823   4.719  10.222 -0.0927  0.1370  0.2026
  302loPI   C1A 4823   7.270   4.602  10.017  0.1951 -0.0578 -0.1522
  302loPI   C2A 4824   7.313   4.563   9.620  0.0256 -0.1249  0.0897
  302loPI   C3A 4825   7.363   4.443   9.219  0.0798 -0.2460  0.0832
  302loPI   C4A 4826   7.325   4.274   8.849 -0.1751 -0.2499 -0.0632
  302loPI   C5A 4827   7.597   4.172   8.540  0.0052  0.0565  0.2804
  302loPI   C6A 4828   7.850   4.281   8.247  0.0528  0.0008 -0.3460
  302loPI   C1B 4829   6.823   4.631   9.770 -0.2360  0.2869 -0.0691
  302loPI   C2B 4830   6.919   4.615   9.298 -0.2590 -0.0050  0.0505
  302loPI   C3B 4831   6.790   4.544   8.854  0.2046 -0.1671  0.0592
  302loPI   C4B 4832   6.972   4.446   8.423 -0.0795 -0.0421 -0.0211
  303loPI    C1 4833   1.619   2.794  10.529 -0.0592 -0.0642  0.0063
  303loPI    C2 4834   1.418   2.992  10.813 -0.0394 -0.0312 -0.0027
  303loPI    C3 4835   1.650   2.681  10.912 -0.0854 -0.0619  0.0091
  303loPI   PO4 4836   1.606   2.892  10.317  0.0396  0.0097 -0.0546
  303loPI   GL1 4837   1.376   2.753  10.021  0.2051 -0.0083 -0.0086
  303loPI   GL2 4838   1.300   2.519   9.806  0.1593  0.1262 -0.0727
  303loPI   C1A 4839   1.454   2.936   9.651 -0.0000  0.0255  0.3027
  303loPI   C2A 4840   1.478   2.885   9.208  0.3923 -0.0222  0.1379
  303loPI   C3A 4841   1.660   3.146   8.822  0.2641 -0.3446 -0.1146
  303loPI   C4A 4842   1.664   3.401   8.404  0.1632  0.0957  0.0561
  303loPI   C5A 4843   1.579   3.711   8.055  0.0895  0.0083 -0.3659
  303loPI   C6A 4844   1.386   3.787   7.716 -0.0195 -0.0687  0.2733
  303loPI   C1B 4845   1.227   2.463   9.308  0.1940  0.2695  0.3986
  303loPI   C2B 4846   0.931   2.428   8.953  0.0749  0.0515 -0.3997
  303loPI   C3B 4847   0.549   2.476   8.629 -0.2401  0.4118  0.2205
  303loPI   C4B 4848   0.282   2.373   8.233 -0.1710  0.1696 -0.0867
  304loPI    C1 4849   0.181   9.594   9.973 -0.1452 -0.2285 -0.0688
  304loPI    C2 4850   0.484   9.492  10.213 -0.2896 -0.2792  0.0939
  304loPI    C3 4851   0.202   9.224  10.122 -0.2165 -0.2712 -0.1637
  304loPI   PO4 4852   0.325   9.744   9.817  0.1158 -0.0082  0.1442
  304loPI   GL1 4853   0.772   9.761   9.545  0.3729 -0.2614 -0.1904
  304loPI   GL2 4854   1.018   9.661   9.693 -0.0485 -0.0325 -0.0286
  304loPI   C1A 4855   0.662   9.840   9.162  0.3021 -0.0011  0.1340
  304loPI   C2A 4856   0.559   9.945   8.610  0.0120 -0.3550 -0.1556
  304loPI   C3A 4857   0.474  10.195   8.298  0.2008 -0.1179 -0.1690
  304loPI   C4A 4858   0.168  10.369   8.080 -0.0161 -0.0217 -0.2381
  304loPI   C5A 4859  -0.337  10.412   7.992 -0.0030 -0.1871  0.0112
  304loPI   C6A 4860  -0.772  10.282   8.060  0.1013  0.1341 -0.1590
  304loPI   C1B 4861   1.163   9.670   9.228 -0.0013  0.0702 -0.0405
  304loPI   C2B 4862   1.105   9.802   8.798 -0.3560 -0.0889  0.1282
  304loPI   C3B 4863   1.003  10.042   8.443  0.1172 -0.1162 -0.2313
  304loPI   C4B 4864   1.266  10.355   8.370 -0.0517 -0.1996  0.1081
  305loPI    C1 4865  15.889  11.582  10.491  0.1285  0.1131  0.3429
  305loPI    C2 4866  15.980  11.209  10.606  0.1347  0.0225  0.0531
  305loPI    C3 4867  15.615  11.357  10.676  0.1600 -0.0039  0.2484
  305loPI   PO4 4868  16.106  11.582  10.298 -0.2108  0.1486 -0.0081
  305loPI   GL1 4869  16.025  11.438   9.809 -0.0522 -0.2401 -0.1795
  305loPI   GL2 4870  16.094  11.164   9.716  0.3515  0.0542 -0.0438
  305loPI   C1A 4871  15.737  11.572   9.520 -0.0104  0.0596 -0.2916
  305loPI   C2A 4872  15.672  11.644   9.118  0.0008 -0.2199 -0.0994
  305loPI   C3A 4873  15.783  11.847   8.751 -0.5134 -0.1567 -0.0183
  305loPI   C4A 4874  15.678  11.842   8.356  0.0584  0.2080  0.0827
  305loPI   C5A 4875  15.300  12.059   8.211 -0.2836  0.0893  0.0946
  305loPI   C6A 4876  14.972  12.003   8.020  0.1278 -0.1789 -0.0312
  305loPI   C1B 4877  16.093  11.443   9.257 -0.3005 -0.2324  0.2517
  305loPI   C2B 4878  16.079  11.434   8.840  0.1633 -0.0571 -0.0935
  305loPI   C3B 4879  16.022  11.363   8.464  0.0498  0.1043 -0.0032
  305loPI   C4B 4880  16.131  11.311   8.069 -0.0129  0.0195 -0.0461
  306loPI    C1 4881   1.556   7.151  10.111  0.1735 -0.1242  0.1449
  306loPI    C2 4882   1.615   7.304  10.476  0.2260 -0.0936  0.1237
  306loPI    C3 4883   1.348   7.010  10.422 -0.0648  0.1663  0.1216
  306loPI   PO4 4884   1.598   7.404   9.928 -0.2015  0.1859 -0.1405
  306loPI   GL1 4885   1.715   7.487   9.509  0.2927 -0.1425 -0.1191
  306loPI   GL2 4886   2.070   7.325   9.644  0.2345  0.2418  0.0714
  306loPI   C1A 4887   1.666   7.423   9.070 -0.1413 -0.1247  0.3038
  306loPI   C2A 4888   1.690   7.454   8.644  0.3209 -0.0710  0.1171
  306loPI   C3A 4889   1.678   7.581   8.236 -0.2212  0.0906  0.1556
  306loPI   C4A 4890   1.559   7.666   7.821  0.1116 -0.0732 -0.1121
  306loPI   C5A 4891   1.371   7.740   7.461  0.0879 -0.0300 -0.0633
  306loPI   C6A 4892   0.967   7.786   7.180 -0.1143 -0.1505  0.0471
  306loPI   C1B 4893   2.177   7.223   9.185  0.1607  0.3697 -0.0299
  306loPI   C2B 4894   2.100   7.220   8.781 -0.1492 -0.0094  0.1344
  306loPI   C3B 4895   2.182   7.242   8.309 -0.1273  0.1607 -0.1254
  306loPI   C4B 4896   2.436   7.188   7.908  0.0405 -0.0531 -0.2437
  307loPI    C1 4897   5.837  11.071  10.736  0.0002 -0.0032 -0.0403
  307loPI    C2 4898   5.940  11.393  10.950  0.2002 -0.1231  0.0463
  307loPI    C3 4899   5.618  11.178  11.054  0.1121  0.0024  0.0353
  307loPI   PO4 4900   5.899  11.222  10.444  0.2609 -0.2886 -0.0512
  307loPI   GL1 4901   6.192  11.676  10.209  0.0784 -0.0678 -0.0860
  307loPI   GL2 4902   6.133  12.051  10.233 -0.0407 -0.2420 -0.1604
  307loPI   C1A 4903   6.025  11.654   9.882  0.3813 -0.0702 -0.1776
  307loPI   C2A 4904   6.014  11.790   9.493 -0.4865 -0.0781 -0.2237
  307loPI   C3A 4905   5.932  11.885   9.189  0.0792 -0.1658 -0.0251
  307loPI   C4A 4906   5.922  11.992   8.874 -0.1626 -0.1080 -0.0150
  307loPI   C5A 4907   5.884  11.823   8.511  0.0048 -0.1051  0.0333
  307loPI   C6A 4908   6.240  11.674   8.430 -0.1095 -0.0601 -0.2840
  307loPI   C1B 4909   6.263  12.163   9.768 -0.0619  0.1219 -0.1760
  307loPI   C2B 4910   6.212  12.247   9.283  0.0060 -0.1162 -0.1388
  307loPI   C3B 4911   6.290  12.335   8.882  0.0619 -0.0944 -0.2573
  307loPI   C4B 4912   6.152  12.255   8.524 -0.3816  0.2050  0.1524
  308loPI    C1 4913   7.795  13.573  10.974  0.0062  0.0845 -0.2497
  308loPI    C2 4914   7.732  13.215  11.141  0.1353  0.1735 -0.0050
  308loPI    C3 4915   7.496  13.524  11.235 -0.0458  0.1287 -0.3006
  308loPI   PO4 4916   7.878  13.616  10.554 -0.1734 -0.0006  0.0643
  308loPI   GL1 4917   7.839  13.367  10.198 -0.0020 -0.0253 -0.1972
  308loPI   GL2 4918   7.594  13.556  10.186 -0.0889  0.0172 -0.0342
  308loPI   C1A 4919   7.986  13.460   9.788  0.0730 -0.0051 -0.1135
  308loPI   C2A 4920   8.040  13.539   9.407  0.2102 -0.2087  0.0689
  308loPI   C3A 4921   7.830  13.593   9.000 -0.2475  0.0873  0.0756
  308loPI   C4A 4922   7.889  13.695   8.626 -0.0603 -0.2766 -0.0383
  308loPI   C5A 4923   8.332  13.829   8.500 -0.0827 -0.1921 -0.2168
  308loPI   C6A 4924   8.570  14.037   8.224 -0.0795  0.0445 -0.1841
  308loPI   C1B 4925   7.557  13.646   9.643 -0.2260  0.1059  0.0591
  308loPI   C2B 4926   7.372  13.621   9.240 -0.0118 -0.1132 -0.0604
  308loPI   C3B 4927   7.032  13.600   8.942 -0.0775  0.2464  0.3097
  308loPI   C4B 4928   6.827  13.563   8.562  0.2241 -0.3563  0.0425
  309loPI    C1 4929   1.649   5.674  10.296 -0.2444  0.0855 -0.0132
  309loPI    C2 4930   1.664   5.632  10.693 -0.0098  0.0432 -0.0251
  309loPI    C3 4931   1.536   5.975  10.533  0.0483  0.1182  0.0882
  309loPI   PO4 4932   1.597   5.368  10.146 -0.3387 -0.1134 -0.0378
  309loPI   GL1 4933   1.775   5.208   9.756 -0.1416  0.1834  0.0423
  309loPI   GL2 4934   2.079   5.216   9.708 -0.3808 -0.0436 -0.0527
  309loPI   C1A 4935   1.862   4.835   9.479 -0.0241  0.1684 -0.2546
  309loPI   C2A 4936   1.982   4.800   9.115  0.1239 -0.0197 -0.2727
  309loPI   C3A 4937   2.175   4.770   8.750 -0.0027  0.0234 -0.1020
  309loPI   C4A 4938   2.358   4.711   8.301 -0.0007  0.0668 -0.0108
  309loPI   C5A 4939   2.755   4.954   8.073  0.2314  0.1233 -0.2791
  309loPI   C6A 4940   2.666   5.005   7.626 -0.1240 -0.2010  0.1135
  309loPI   C1B 4941   2.010   5.259   9.226 -0.1016 -0.1050  0.2813
  309loPI   C2B 4942   2.010   5.260   8.864  0.3758  0.3260 -0.0316
  309loPI   C3B 4943   1.943   5.096   8.434  0.1594 -0.0423  0.0303
  309loPI   C4B 4944   1.873   4.969   8.078 -0.0275 -0.1238  0.0112
  310loPI    C1 4945   9.219   9.268  10.387  0.1054 -0.0470  0.1807
  310loPI    C2 4946   9.124   9.654  10.344 -0.0823 -0.1276 -0.1680
  310loPI    C3 4947   9.114   9.485  10.707 -0.0952  0.1679 -0.0272
  310loPI   PO4 4948   9.070   9.146  10.221 -0.0096  0.2883  0.1780
  310loPI   GL1 4949   8.827   9.328   9.937 -0.1201  0.0663 -0.1316
  310loPI   GL2 4950   9.038   9.552   9.866  0.0155  0.2288  0.2153
  310loPI   C1A 4951   8.712   9.189   9.645  0.1977  0.0784  0.1863
  310loPI   C2A 4952   8.642   9.006   9.206  0.0347 -0.1704 -0.0909
  310loPI   C3A 4953   8.727   8.891   8.832  0.0058  0.1745 -0.2898
  310loPI   C4A 4954   8.491   8.669   8.447  0.0804 -0.0032 -0.1615
  310loPI   C5A 4955   8.466   8.421   8.012  0.2189 -0.1455 -0.0639
  310loPI   C6A 4956   8.547   8.062   7.889  0.0525  0.1500 -0.1112
  310loPI   C1B 4957   9.138   9.304   9.421 -0.0162 -0.1277 -0.1631
  310loPI   C2B 4958   9.138   9.187   8.986 -0.1206 -0.1115 -0.1255
  310loPI   C3B 4959   9.208   9.043   8.524  0.2805 -0.0689  0.3454
  310loPI   C4B 4960   9.073   8.780   8.204  0.0611  0.0787  0.1332
  311loPI    C1 4961   6.719   8.637  10.501  0.1341  0.0102  0.0150
  311loPI    C2 4962   6.443   8.774  10.757  0.0461  0.0813 -0.1170
  311loPI    C3 4963   6.811   8.686  10.888 -0.0507 -0.0551  0.0682
  311loPI   PO4 4964   6.527   8.613  10.325 -0.0541  0.0778 -0.2356
  311loPI   GL1 4965   6.506   8.854   9.994  0.2024  0.0339 -0.2488
  311loPI   GL2 4966   6.539   9.219   9.909  0.1211 -0.0490 -0.0354
  311loPI   C1A 4967   6.469   8.662   9.548  0.1987 -0.0091  0.2893
  311loPI   C2A 4968   6.306   8.489   9.201  0.1429 -0.0023 -0.0175
  311loPI   C3A 4969   6.431   8.392   8.939  0.0065  0.0866  0.2869
  311loPI   C4A 4970   6.427   8.519   8.583  0.1159 -0.0094  0.1023
  311loPI   C5A 4971   6.399   8.453   8.209  0.2128  0.0026  0.1391
  311loPI   C6A 4972   6.408   8.323   7.811  0.0446 -0.1120 -0.1179
  311loPI   C1B 4973   6.269   9.162   9.532  0.2726  0.0725 -0.1897
  311loPI   C2B 4974   6.382   9.117   9.154  0.2764  0.1124  0.0844
  311loPI   C3B 4975   6.312   8.972   8.753  0.2543 -0.0892  0.0910
  311loPI   C4B 4976   6.204   9.060   8.288  0.2187  0.0223  0.0291
  312loPI    C1 4977  13.124  13.934  10.865 -0.0902  0.1383  0.1194
  312loPI    C2 4978  13.121  13.680  11.174 -0.1438 -0.0884 -0.0642
  312loPI    C3 4979  12.776  13.801  11.012 -0.1171  0.0688 -0.0064
  312loPI   PO4 4980  13.338  13.838  10.683 -0.2711 -0.1828 -0.0063
  312loPI   GL1 4981  13.736  13.573  10.398 -0.0575 -0.0118 -0.0958
  312loPI   GL2 4982  14.015  13.737  10.348 -0.3050 -0.2125  0.0198
  312loPI   C1A 4983  13.592  13.804  10.059 -0.0739  0.1108  0.1342
  312loPI   C2A 4984  13.606  13.835   9.606  0.0475  0.3216  0.1629
  312loPI   C3A 4985  13.543  13.875   9.174  0.0594 -0.0632 -0.0695
  312loPI   C4A 4986  13.571  14.016   8.765  0.2438  0.0484 -0.2876
  312loPI   C5A 4987  13.620  14.191   8.341  0.2297 -0.1194  0.1181
  312loPI   C6A 4988  13.284  14.613   8.302 -0.0399  0.2653  0.0545
  312loPI   C1B 4989  14.003  13.607   9.913 -0.0311 -0.0985  0.1547
  312loPI   C2B 4990  14.059  13.735   9.441  0.3572 -0.1286 -0.0973
  312loPI   C3B 4991  14.014  13.834   8.965  0.2255 -0.1548 -0.1357
  312loPI   C4B 4992  14.066  13.959   8.584 -0.0181  0.0406  0.0678
  313loPI    C1 4993  11.392   8.852  10.519  0.1002  0.2949 -0.0035
  313loPI    C2 4994  11.243   8.885  10.889 -0.0205  0.3099 -0.0532
  313loPI    C3 4995  11.080   8.627  10.630  0.2995  0.0256  0.0217
  313loPI   PO4 4996  11.437   9.169  10.428  0.2966  0.2478 -0.0206
  313loPI   GL1 4997  11.309   9.451  10.024  0.1208 -0.0517 -0.0474
  313loPI   GL2 4998  11.236   9.099  10.007  0.1528 -0.3545  0.0443
  313loPI   C1A 4999  11.346   9.774   9.670 -0.3510  0.1870 -0.0512
  313loPI   C2A 5000  11.332   9.934   9.311 -0.0403 -0.2473  0.1836
  313loPI   C3A 5001  11.301   9.828   8.855 -0.1820  0.2536 -0.0940
  313loPI   C4A 5002  11.143   9.634   8.521  0.0632 -0.1453  0.1446
  313loPI   C5A 5003  11.202   9.330   8.296 -0.2659 -0.2350  0.3254
  313loPI   C6A 5004  11.325   8.844   8.231 -0.1443  0.0239 -0.1819
  313loPI   C1B 5005  11.391   9.275   9.563  0.0202  0.0065 -0.0613
  313loPI   C2B 5006  11.390   9.455   9.189  0.1949 -0.1019 -0.0846
  313loPI   C3B 5007  11.445   9.309   8.763 -0.1911 -0.0173 -0.1415
  313loPI   C4B 5008  11.646   8.994   8.566  0.0003  0.0051  0.3251
  314loPI    C1 5009   3.549  17.732  11.226  0.0720 -0.0477 -0.0120
  314loPI    C2 5010   3.353  18.014  11.432  0.1403 -0.0143  0.0074
  314loPI    C3 5011   3.751  17.986  11.459  0.1597  0.0524 -0.1950
  314loPI   PO4 5012   3.433  17.768  10.952  0.2894  0.3342 -0.0478
  314loPI   GL1 5013   3.283  17.822  10.533  0.1923 -0.0752 -0.2335
  314loPI   GL2 5014   3.427  18.093  10.582 -0.0205 -0.1342 -0.2149
  314loPI   C1A 5015   3.177  17.600  10.161 -0.0716 -0.0649 -0.1648
  314loPI   C2A 5016   3.133  17.554   9.795  0.0794 -0.0585 -0.0454
  314loPI   C3A 5017   3.177  17.498   9.433  0.0176 -0.1316 -0.2109
  314loPI   C4A 5018   3.103  17.555   9.023 -0.2040 -0.0561  0.0259
  314loPI   C5A 5019   3.222  17.473   8.669 -0.3061 -0.0702 -0.2286
  314loPI   C6A 5020   3.062  17.318   8.315 -0.3232  0.1649 -0.0076
  314loPI   C1B 5021   3.502  18.024  10.143  0.2101  0.0698  0.0717
  314loPI   C2B 5022   3.511  17.900   9.669 -0.0290  0.1477 -0.2347
  314loPI   C3B 5023   3.535  17.866   9.273  0.1026 -0.2154  0.1381
  314loPI   C4B 5024   3.674  17.832   8.795 -0.1217  0.1894 -0.0155
  315loPI    C1 5025  11.765   2.437  10.710  0.0091  0.0975 -0.0319
  315loPI    C2 5026  11.396   2.400  10.560  0.0123  0.0669 -0.0322
  315loPI    C3 5027  11.448   2.457  10.953 -0.0019  0.2710 -0.0589
  315loPI   PO4 5028  11.877   2.593  10.525 -0.3482 -0.0556 -0.0907
  315loPI   GL1 5029  11.754   2.355  10.178  0.0888 -0.0062  0.0509
  315loPI   GL2 5030  11.715   2.654  10.085 -0.0472 -0.1163 -0.0360
  315loPI   C1A 5031  11.699   2.092   9.868 -0.2531  0.1803  0.3179
  315loPI   C2A 5032  11.618   2.060   9.388  0.1204  0.1455  0.1252
  315loPI   C3A 5033  11.533   2.118   9.037 -0.2245 -0.0395 -0.0755
  315loPI   C4A 5034  11.752   2.322   8.750  0.4347 -0.0980 -0.1864
  315loPI   C5A 5035  12.102   2.335   8.497 -0.0951 -0.1253 -0.4066
  315loPI   C6A 5036  12.324   2.069   8.225 -0.0139  0.0590  0.0182
  315loPI   C1B 5037  11.539   2.494   9.714  0.5044 -0.1973  0.0728
  315loPI   C2B 5038  11.483   2.544   9.265  0.1758 -0.0198  0.3304
  315loPI   C3B 5039  11.413   2.689   8.876 -0.0759 -0.2755 -0.0344
  315loPI   C4B 5040  11.254   2.549   8.448  0.2671  0.0735 -0.1055
  316loPI    C1 5041   9.051   0.222  11.324 -0.1164 -0.2435  0.0117
  316loPI    C2 5042   9.388   0.213  11.538  0.0311  0.0613 -0.1999
  316loPI    C3 5043   9.045   0.090  11.701  0.1563  0.1980  0.1792
  316loPI   PO4 5044   9.123   0.147  11.095  0.1385  0.0117  0.2579
  316loPI   GL1 5045   9.307   0.200  10.696  0.0836 -0.0781 -0.1612
  316loPI   GL2 5046   9.375  -0.128  10.686  0.2325  0.0015 -0.0400
  316loPI   C1A 5047   9.544   0.268  10.208 -0.2996 -0.1273 -0.0487
  316loPI   C2A 5048   9.543   0.401   9.767  0.0034 -0.1206  0.1054
  316loPI   C3A 5049   9.659   0.420   9.351 -0.0993  0.0802 -0.2395
  316loPI   C4A 5050   9.655   0.289   8.882 -0.0416 -0.1819 -0.2073
  316loPI   C5A 5051   9.408   0.001   8.632  0.0070 -0.4045  0.1452
  316loPI   C6A 5052   9.442  -0.416   8.685 -0.0152 -0.0523  0.2309
  316loPI   C1B 5053   9.357  -0.155  10.266 -0.1923  0.4336  0.1869
  316loPI   C2B 5054   9.164   0.055   9.881 -0.0712  0.1724  0.0574
  316loPI   C3B 5055   9.195   0.031   9.484  0.1454 -0.0245  0.0149
  316loPI   C4B 5056   9.232   0.009   9.151  0.1376 -0.0238  0.3104
  317loPI    C1 5057   3.734   7.294  10.448 -0.0899  0.0173  0.1399
  317loPI    C2 5058   3.401   7.374  10.242  0.0393 -0.4691 -0.2785
  317loPI    C3 5059   3.378   7.182  10.592 -0.1525  0.0082 -0.0197
  317loPI   PO4 5060   3.878   7.305  10.149 -0.0515 -0.2070  0.0168
  317loPI   GL1 5061   3.954   6.987   9.845  0.1775 -0.2317  0.1661
  317loPI   GL2 5062   4.130   7.223   9.601  0.0460  0.1963 -0.0984
  317loPI   C1A 5063   3.932   6.882   9.397  0.2421  0.2119 -0.0992
  317loPI   C2A 5064   3.980   6.788   9.001 -0.3401 -0.0937  0.0266
  317loPI   C3A 5065   3.917   6.963   8.685  0.0507  0.0986  0.3853
  317loPI   C4A 5066   3.930   6.930   8.157  0.1961  0.1142 -0.1733
  317loPI   C5A 5067   3.760   6.962   7.708  0.0247 -0.0149 -0.0172
  317loPI   C6A 5068   3.713   6.543   7.523 -0.4262 -0.2241 -0.3430
  317loPI   C1B 5069   4.205   7.304   9.171 -0.0461 -0.1043  0.1836
  317loPI   C2B 5070   4.284   7.269   8.747 -0.0032 -0.1939  0.0166
  317loPI   C3B 5071   4.381   7.607   8.538  0.0130  0.2497  0.1794
  317loPI   C4B 5072   4.518   7.689   8.100  0.0298  0.2949  0.0578
  318loPI    C1 5073   8.761   5.199  11.009 -0.3620  0.0170  0.0421
  318loPI    C2 5074   9.078   5.376  11.177 -0.3906 -0.1520  0.2783
  318loPI    C3 5075   9.084   4.983  11.104 -0.3625 -0.0751 -0.1599
  318loPI   PO4 5076   8.721   5.360  10.814  0.1055 -0.1563 -0.1744
  318loPI   GL1 5077   8.888   5.333  10.356 -0.2187 -0.0678 -0.0392
  318loPI   GL2 5078   8.591   5.315  10.286  0.1547  0.1242  0.0582
  318loPI   C1A 5079   9.050   5.403   9.956 -0.3575 -0.0848  0.1162
  318loPI   C2A 5080   9.036   5.425   9.459 -0.2324 -0.0311  0.1445
  318loPI   C3A 5081   9.014   5.290   8.967  0.3484  0.0306 -0.0489
  318loPI   C4A 5082   9.020   5.222   8.514 -0.2338  0.1630  0.2761
  318loPI   C5A 5083   8.949   4.894   8.217  0.2469 -0.0446 -0.1442
  318loPI   C6A 5084   8.673   4.658   7.999 -0.2602 -0.2178  0.0416
  318loPI   C1B 5085   8.659   5.139   9.790 -0.1436  0.3888 -0.0895
  318loPI   C2B 5086   8.683   4.998   9.287  0.1197  0.1646  0.1770
  318loPI   C3B 5087   8.659   4.908   8.820  0.0526 -0.0200 -0.0951
  318loPI   C4B 5088   8.546   4.698   8.500 -0.1939 -0.2666  0.1167
  319loPI    C1 5089   0.747  12.180  10.866 -0.0240 -0.1811  0.1413
  319loPI    C2 5090   0.468  11.922  10.991 -0.1983 -0.0629  0.0003
  319loPI    C3 5091   0.495  12.284  11.159 -0.1786 -0.0474 -0.0364
  319loPI   PO4 5092   0.701  12.222  10.628 -0.4551  0.0155  0.0525
  319loPI   GL1 5093   0.660  12.207  10.179  0.0441  0.1277 -0.1482
  319loPI   GL2 5094   0.946  12.287  10.109  0.0809 -0.4097 -0.1819
  319loPI   C1A 5095   0.516  12.246   9.741 -0.1165 -0.1200  0.0404
  319loPI   C2A 5096   0.639  12.360   9.377 -0.1510  0.1739 -0.2576
  319loPI   C3A 5097   0.660  12.439   8.985 -0.2671 -0.1100  0.0472
  319loPI   C4A 5098   0.546  12.493   8.539 -0.0730 -0.0525 -0.4246
  319loPI   C5A 5099   0.403  12.594   8.132  0.0182  0.2487  0.1921
  319loPI   C6A 5100   0.129  12.935   8.033  0.0537 -0.1270  0.1906
  319loPI   C1B 5101   1.106  12.272   9.663 -0.1537 -0.1597 -0.0750
  319loPI   C2B 5102   1.148  12.450   9.334  0.5153 -0.0979 -0.1470
  319loPI   C3B 5103   1.106  12.371   8.983  0.3167  0.1770 -0.0393
  319loPI   C4B 5104   1.177  12.349   8.543 -0.0259 -0.1373 -0.2395
  320loPI    C1 5105  15.426   2.271  10.876 -0.2282  0.2935 -0.2371
  320loPI    C2 5106  15.621   2.575  11.048 -0.0040  0.0260 -0.0098
  320loPI    C3 5107  15.273   2.448  11.200  0.1145 -0.1060  0.1548
  320loPI   PO4 5108  15.538   2.310  10.638 -0.1790  0.2139  0.3284
  320loPI   GL1 5109  15.498   2.075  10.255 -0.2322  0.1877  0.1253
  320loPI   GL2 5110  15.687   1.867  10.141  0.1576 -0.0489  0.0042
  320loPI   C1A 5111  15.206   2.048   9.954 -0.3477 -0.2322  0.2986
  320loPI   C2A 5112  15.242   2.067   9.487  0.1327  0.0645  0.1402
  320loPI   C3A 5113  15.370   1.997   9.068 -0.2523 -0.0699 -0.1615
  320loPI   C4A 5114  15.430   2.013   8.664 -0.3503  0.0323 -0.1297
  320loPI   C5A 5115  15.527   2.294   8.309 -0.1005 -0.1078 -0.0915
  320loPI   C6A 5116  15.843   2.559   8.168  0.0707  0.0099  0.0578
  320loPI   C1B 5117  15.736   2.008   9.726  0.0605 -0.0234 -0.4627
  320loPI   C2B 5118  15.817   1.923   9.344 -0.2230  0.2550  0.0013
  320loPI   C3B 5119  15.844   1.857   8.916 -0.1131  0.0296 -0.3381
  320loPI   C4B 5120  15.779   1.704   8.516  0.0206  0.0207 -0.0500
  321loPI    C1 5121   0.911   4.415  10.298  0.2781 -0.0135 -0.2624
  321loPI    C2 5122   0.953   4.525  10.681 -0.1033  0.0681 -0.2399
  321loPI    C3 5123   1.138   4.198  10.545 -0.0445 -0.0173  0.0397
  321loPI   PO4 5124   0.997   4.583  10.172  0.2260  0.2051  0.1393
  321loPI   GL1 5125   1.081   4.604   9.830 -0.0073  0.0490 -0.1163
  321loPI   GL2 5126   0.861   4.785   9.673  0.0284 -0.0288 -0.0627
  321loPI   C1A 5127   1.373   4.631   9.563  0.2123 -0.1267 -0.0777
  321loPI   C2A 5128   1.486   4.475   9.202 -0.0687 -0.3255  0.0265
  321loPI   C3A 5129   1.679   4.503   8.874  0.0471 -0.2849 -0.2203
  321loPI   C4A 5130   1.861   4.557   8.424  0.1335 -0.1047 -0.2010
  321loPI   C5A 5131   1.802   4.503   8.049  0.1962  0.1894  0.1943
  321loPI   C6A 5132   1.581   4.283   7.745  0.0272  0.0503 -0.0738
  321loPI   C1B 5133   0.955   4.733   9.269 -0.2968 -0.0575 -0.2111
  321loPI   C2B 5134   1.077   4.607   8.810 -0.0470 -0.2018 -0.0580
  321loPI   C3B 5135   1.147   4.369   8.534  0.1939  0.2723  0.1509
  321loPI   C4B 5136   1.324   4.268   8.199  0.1633  0.3127  0.1125
  322loPI    C1 5137   7.812  17.812  11.240 -0.0226  0.2592 -0.0057
  322loPI    C2 5138   7.604  18.016  11.515  0.0457  0.1150  0.1551
  322loPI    C3 5139   7.984  17.913  11.586  0.1303  0.2554 -0.0800
  322loPI   PO4 5140   7.701  17.909  11.045 -0.0911 -0.0157  0.1077
  322loPI   GL1 5141   7.675  17.938  10.621  0.2754 -0.1721  0.0240
  322loPI   GL2 5142   7.914  17.928  10.418 -0.0617  0.0555 -0.3883
  322loPI   C1A 5143   7.446  18.123  10.358  0.0162 -0.0615  0.2054
  322loPI   C2A 5144   7.223  17.974  10.025 -0.1637 -0.0300  0.1329
  322loPI   C3A 5145   7.275  18.030   9.633 -0.2441 -0.0338 -0.0623
  322loPI   C4A 5146   7.246  18.231   9.180  0.0636  0.2575 -0.2927
  322loPI   C5A 5147   7.314  18.155   8.778 -0.0014 -0.4492  0.0280
  322loPI   C6A 5148   7.168  18.246   8.402 -0.1308  0.2032  0.1680
  322loPI   C1B 5149   7.810  17.960  10.055  0.0621 -0.0313  0.0347
  322loPI   C2B 5150   7.869  17.966   9.627  0.0770 -0.0097  0.1084
  322loPI   C3B 5151   7.712  17.987   9.189  0.2787  0.1080 -0.3181
  322loPI   C4B 5152   7.869  17.938   8.742 -0.0873  0.1302  0.1464
  323loPI    C1 5153  13.453   9.714  10.222 -0.0530 -0.1540 -0.1946
  323loPI    C2 5154  13.282   9.628  10.573  0.0897  0.0966 -0.0603
  323loPI    C3 5155  13.603   9.423  10.451  0.1425  0.1218  0.0355
  323loPI   PO4 5156  13.379   9.982  10.263  0.0669 -0.0865  0.1344
  323loPI   GL1 5157  13.394  10.392  10.003 -0.0339  0.1376 -0.0512
  323loPI   GL2 5158  13.413  10.711  10.162 -0.2574  0.1439 -0.0298
  323loPI   C1A 5159  13.407  10.366   9.606 -0.0662 -0.0639  0.0854
  323loPI   C2A 5160  13.409  10.413   9.186  0.1186 -0.1424 -0.1228
  323loPI   C3A 5161  13.376  10.526   8.739  0.0144  0.2317  0.0616
  323loPI   C4A 5162  13.446  10.817   8.379 -0.0077 -0.2619 -0.1656
  323loPI   C5A 5163  13.643  10.946   8.017  0.2012  0.1146 -0.1571
  323loPI   C6A 5164  13.987  11.173   7.907  0.1915 -0.0185  0.0896
  323loPI   C1B 5165  13.617  10.811   9.683  0.0924  0.2209  0.0398
  323loPI   C2B 5166  13.668  10.909   9.271 -0.1419 -0.0027  0.1630
  323loPI   C3B 5167  13.639  10.961   8.872  0.0531  0.1594  0.1333
  323loPI   C4B 5168  13.788  11.164   8.453 -0.0628 -0.1023  0.0015
  324loPI    C1 5169   2.597  17.634  11.123 -0.0577  0.0732  0.1803
  324loPI    C2 5170   2.970  17.700  11.251  0.0541 -0.1917 -0.0014
  324loPI    C3 5171   2.814  17.332  11.270 -0.2195 -0.0721  0.1240
  324loPI   PO4 5172   2.517  17.758  10.742 -0.3634 -0.1029 -0.0799
  324loPI   GL1 5173   2.424  17.852  10.303  0.1900  0.1638  0.0156
  324loPI   GL2 5174   2.065  17.884  10.243  0.1710  0.0334  0.1882
  324loPI   C1A 5175   2.685  17.716  10.024  0.1199  0.1644 -0.0831
  324loPI   C2A 5176   2.642  17.666   9.544  0.2530 -0.0550  0.3659
  324loPI   C3A 5177   2.584  17.631   9.173 -0.1378  0.1154  0.1336
  324loPI   C4A 5178   2.678  17.652   8.731  0.0980 -0.1323  0.2478
  324loPI   C5A 5179   2.827  17.732   8.372 -0.1150 -0.0522  0.1763
  324loPI   C6A 5180   2.825  17.578   7.958  0.2517  0.2073  0.1127
  324loPI   C1B 5181   2.199  17.822   9.816  0.1134 -0.2580 -0.0051
  324loPI   C2B 5182   2.117  17.756   9.354  0.0768  0.0072 -0.0269
  324loPI   C3B 5183   2.186  17.783   8.805 -0.1785 -0.1040  0.1197
  324loPI   C4B 5184   2.356  17.781   8.379  0.0298 -0.2627 -0.2008
  325loPI    C1 5185   1.793   6.324  10.166 -0.0371  0.0074 -0.1243
  325loPI    C2 5186   1.572   6.630  10.032 -0.0197  0.0762  0.0026
  325loPI    C3 5187   1.474   6.447  10.373  0.0370  0.0144 -0.0140
  325loPI   PO4 5188   1.863   6.059   9.980 -0.2506 -0.3469  0.0145
  325loPI   GL1 5189   1.906   5.744   9.697  0.3139 -0.0054 -0.1622
  325loPI   GL2 5190   1.612   5.673   9.742  0.6020 -0.0327  0.1433
  325loPI   C1A 5191   1.981   5.776   9.201 -0.0909 -0.0380  0.3383
  325loPI   C2A 5192   1.945   5.792   8.782  0.1896 -0.0104  0.1380
  325loPI   C3A 5193   1.950   5.582   8.396 -0.2180 -0.0524 -0.2083
  325loPI   C4A 5194   1.696   5.439   8.139  0.0944 -0.0557 -0.3147
  325loPI   C5A 5195   1.313   5.265   7.891  0.2258 -0.0077 -0.0307
  325loPI   C6A 5196   0.985   5.055   7.713 -0.1793 -0.0002  0.3075
  325loPI   C1B 5197   1.595   5.539   9.411 -0.1527  0.4591  0.0508
  325loPI   C2B 5198   1.581   5.509   9.016 -0.1667 -0.3035 -0.1463
  325loPI   C3B 5199   1.569   5.465   8.688 -0.0992  0.2198  0.2047
  325loPI   C4B 5200   1.248   5.272   8.382  0.3001  0.0896 -0.0496
  326loPI    C1 5201  12.793  11.534  10.547  0.2272 -0.3996  0.3937
  326loPI    C2 5202  12.670  11.786  10.833 -0.3145  0.3654 -0.4550
  326loPI    C3 5203  12.420  11.509  10.688 -0.0634  0.0232 -0.2521
  326loPI   PO4 5204  13.014  11.421  10.703 -0.2817  0.1559  0.0125
  326loPI   GL1 5205  13.249  11.118  10.470  0.1204 -0.1678 -0.1548
  326loPI   GL2 5206  13.001  11.067  10.273 -0.1590 -0.0364  0.3221
  326loPI   C1A 5207  13.433  11.184  10.039 -0.1232  0.1276  0.0309
  326loPI   C2A 5208  13.379  11.262   9.568  0.2169  0.4525 -0.1671
  326loPI   C3A 5209  13.267  11.203   9.230  0.4552 -0.1994  0.0962
  326loPI   C4A 5210  13.282  11.264   8.814  0.0740  0.0534  0.1971
  326loPI   C5A 5211  13.254  11.322   8.390  0.0252 -0.2762 -0.0881
  326loPI   C6A 5212  13.225  11.249   7.974  0.3032  0.3071  0.4249
  326loPI   C1B 5213  12.840  11.111   9.844  0.1026  0.1029 -0.0290
  326loPI   C2B 5214  12.819  11.121   9.408  0.2135 -0.1996  0.0490
  326loPI   C3B 5215  12.821  11.243   9.026 -0.2185  0.1085 -0.1829
  326loPI   C4B 5216  12.777  11.265   8.576 -0.2317 -0.1036  0.1698
  327loPI    C1 5217   3.193  10.304  10.673  0.0278 -0.1905  0.2208
  327loPI    C2 5218   2.887  10.373  10.425  0.0588 -0.1228  0.2012
  327loPI    C3 5219   2.846  10.112  10.726  0.0212 -0.2050  0.1253
  327loPI   PO4 5220   3.354  10.290  10.420  0.0957  0.2487 -0.0368
  327loPI   GL1 5221   3.264  10.494  10.020  0.2806 -0.2041 -0.0070
  327loPI   GL2 5222   3.137  10.161  10.004  0.2868 -0.2687 -0.0568
  327loPI   C1A 5223   3.258  10.504   9.553 -0.1670  0.1797 -0.0208
  327loPI   C2A 5224   3.293  10.731   9.194 -0.0576  0.2319  0.1596
  327loPI   C3A 5225   3.416  10.807   8.659  0.0971  0.0209 -0.1446
  327loPI   C4A 5226   3.355  10.694   8.209  0.0363  0.3686 -0.0161
  327loPI   C5A 5227   3.376  10.382   7.761 -0.2278  0.1398  0.1762
  327loPI   C6A 5228   3.460  10.004   7.548 -0.0773 -0.0321 -0.2338
  327loPI   C1B 5229   2.982  10.129   9.564  0.4028  0.0400 -0.3217
  327loPI   C2B 5230   2.986  10.267   9.219 -0.1386 -0.1170  0.2111
  327loPI   C3B 5231   3.083  10.458   8.860  0.0815 -0.2359 -0.2859
  327loPI   C4B 5232   3.049  10.383   8.456 -0.5614 -0.1597  0.0897
  328loPI    C1 5233   2.878  11.174  10.689 -0.0896  0.2218  0.0431
  328loPI    C2 5234   2.869  11.003  11.051  0.2800  0.0914 -0.0051
  328loPI    C3 5235   2.951  10.782  10.727  0.1597  0.2474 -0.1434
  328loPI   PO4 5236   2.675  11.180  10.498 -0.0014  0.0571  0.1061
  328loPI   GL1 5237   2.597  11.305  10.137 -0.4488  0.0309  0.2985
  328loPI   GL2 5238   2.669  11.130   9.925 -0.0333 -0.2245  0.1244
  328loPI   C1A 5239   2.336  11.442   9.703 -0.3121  0.1129  0.3438
  328loPI   C2A 5240   2.225  11.511   9.275  0.0725 -0.0692 -0.2997
  328loPI   C3A 5241   2.213  11.557   8.872 -0.0967 -0.0979 -0.1692
  328loPI   C4A 5242   2.142  11.436   8.448  0.1247 -0.0766  0.0410
  328loPI   C5A 5243   2.140  11.566   8.106 -0.2160 -0.1104 -0.0791
  328loPI   C6A 5244   2.156  11.423   7.688  0.1000 -0.3288  0.2259
  328loPI   C1B 5245   2.731  11.299   9.496 -0.0433 -0.1405  0.1885
  328loPI   C2B 5246   2.715  11.329   9.100  0.3531  0.0222 -0.2127
  328loPI   C3B 5247   2.721  11.352   8.707 -0.1721 -0.1704 -0.4111
  328loPI   C4B 5248   2.596  11.400   8.250 -0.0639 -0.0766 -0.0984
  329loPI    C1 5249  17.116  12.104  10.987 -0.0251 -0.0340 -0.0636
  329loPI    C2 5250  17.318  12.202  11.318 -0.0292  0.1512 -0.1147
  329loPI    C3 5251  17.180  11.829  11.271 -0.0062  0.1169  0.0796
  329loPI   PO4 5252  17.255  12.265  10.731 -0.1828  0.1842 -0.0369
  329loPI   GL1 5253  17.169  12.187  10.373  0.1441 -0.2770  0.1047
  329loPI   GL2 5254  16.943  12.141  10.353 -0.1461 -0.3301  0.1170
  329loPI   C1A 5255  17.164  12.188   9.862 -0.3524  0.0686 -0.1754
  329loPI   C2A 5256  17.136  12.288   9.463  0.1613 -0.1633 -0.4476
  329loPI   C3A 5257  17.306  12.339   9.079  0.1338  0.0756  0.2828
  329loPI   C4A 5258  17.219  12.453   8.704 -0.0555  0.2436  0.0142
  329loPI   C5A 5259  16.938  12.360   8.397 -0.1088  0.1320  0.0378
  329loPI   C6A 5260  16.565  12.521   8.173 -0.0093  0.1239  0.0051
  329loPI   C1B 5261  16.667  12.269  10.028  0.0471 -0.1227 -0.1736
  329loPI   C2B 5262  16.716  12.475   9.621  0.3261  0.2894 -0.2275
  329loPI   C3B 5263  16.774  12.553   9.166 -0.0590 -0.1432 -0.1624
  329loPI   C4B 5264  16.715  12.712   8.730  0.1797  0.0936 -0.0662
  330loPI    C1 5265   1.946   9.044  10.317 -0.0035 -0.0112  0.2138
  330loPI    C2 5266   1.824   9.397  10.459 -0.0210  0.0889 -0.0438
  330loPI    C3 5267   1.628   9.063  10.558 -0.0971  0.1690  0.0785
  330loPI   PO4 5268   1.982   9.179  10.016  0.1708  0.1871  0.2298
  330loPI   GL1 5269   2.285   9.420   9.769  0.2014  0.1985 -0.1503
  330loPI   GL2 5270   2.390   9.138   9.673 -0.1285 -0.1507  0.3100
  330loPI   C1A 5271   2.254   9.536   9.361  0.1058 -0.0725 -0.1921
  330loPI   C2A 5272   2.238   9.494   8.959 -0.0180 -0.1411  0.1003
  330loPI   C3A 5273   2.341   9.552   8.527  0.0307  0.0616 -0.2106
  330loPI   C4A 5274   2.262   9.512   8.112  0.2518 -0.1211  0.3387
  330loPI   C5A 5275   1.948   9.411   7.789  0.1001 -0.1340 -0.4637
  330loPI   C6A 5276   1.725   9.273   7.328 -0.0253 -0.2395  0.4377
  330loPI   C1B 5277   2.440   9.109   9.165 -0.0098 -0.2203 -0.2873
  330loPI   C2B 5278   2.536   9.078   8.669  0.0468  0.0285 -0.1860
  330loPI   C3B 5279   2.301   9.047   8.387  0.2410 -0.1830  0.1275
  330loPI   C4B 5280   2.117   8.965   7.965 -0.0955  0.0117  0.0690
  331loPI    C1 5281  14.344  12.056  10.709  0.0735 -0.2479 -0.0780
  331loPI    C2 5282  14.256  12.423  10.839 -0.3982 -0.4198  0.1122
  331loPI    C3 5283  14.608  12.257  10.932  0.0123  0.1474 -0.3513
  331loPI   PO4 5284  14.310  12.044  10.456 -0.0405  0.2259  0.2296
  331loPI   GL1 5285  14.421  12.145  10.010 -0.1563 -0.0972 -0.2708
  331loPI   GL2 5286  14.434  12.434  10.074  0.0303 -0.0799  0.1273
  331loPI   C1A 5287  14.371  12.176   9.449 -0.0453 -0.0814 -0.1018
  331loPI   C2A 5288  14.390  12.310   8.944  0.3361 -0.3119 -0.1732
  331loPI   C3A 5289  14.408  12.397   8.528  0.2731 -0.0383 -0.1286
  331loPI   C4A 5290  14.409  12.501   8.129  0.1091  0.0956 -0.1377
  331loPI   C5A 5291  14.652  12.472   7.847 -0.0958  0.0152 -0.0257
  331loPI   C6A 5292  15.107  12.461   7.768  0.0706  0.1206  0.0058
  331loPI   C1B 5293  14.182  12.589   9.765 -0.0998 -0.0375 -0.3774
  331loPI   C2B 5294  14.151  12.657   9.372  0.0829 -0.0098  0.0957
  331loPI   C3B 5295  14.235  12.808   8.919 -0.0556 -0.1590  0.0073
  331loPI   C4B 5296  13.899  12.981   8.607 -0.1804  0.1189 -0.2790
  332loPI    C1 5297   1.805  15.535  11.237 -0.1008  0.2053  0.1548
  332loPI    C2 5298   2.099  15.555  11.507  0.1451 -0.0571 -0.0866
  332loPI    C3 5299   1.834  15.256  11.522  0.2205 -0.1301 -0.1945
  332loPI   PO4 5300   1.785  15.832  11.100  0.1536  0.2426  0.5784
  332loPI   GL1 5301   1.527  15.885  10.684  0.1774  0.3299 -0.1545
  332loPI   GL2 5302   1.761  16.118  10.622  0.1315  0.1383 -0.3370
  332loPI   C1A 5303   1.100  15.863  10.729  0.1451  0.1087  0.0094
  332loPI   C2A 5304   0.787  15.761  10.393 -0.1148  0.2530 -0.2418
  332loPI   C3A 5305   0.655  15.810   9.975  0.1239  0.1707 -0.1152
  332loPI   C4A 5306   0.850  15.802   9.541 -0.1026  0.0175 -0.0620
  332loPI   C5A 5307   0.707  15.750   9.137  0.1611 -0.2212  0.2515
  332loPI   C6A 5308   0.853  16.039   8.842  0.1277  0.0126  0.0703
  332loPI   C1B 5309   1.750  16.099  10.206  0.1586  0.1905 -0.0206
  332loPI   C2B 5310   1.736  16.062   9.774 -0.1453 -0.0225  0.0798
  332loPI   C3B 5311   1.648  16.019   9.363 -0.2715  0.1892  0.1477
  332loPI   C4B 5312   1.579  15.916   9.016  0.0514  0.4987  0.2684
  333loPI    C1 5313   2.902  13.821  11.016  0.0079  0.0280 -0.2675
  333loPI    C2 5314   2.932  13.457  11.180  0.0255  0.0554 -0.2100
  333loPI    C3 5315   3.233  13.719  11.216 -0.0097  0.0951 -0.2037
  333loPI   PO4 5316   2.869  13.849  10.796 -0.1090  0.0457 -0.2525
  333loPI   GL1 5317   2.883  13.970  10.396 -0.0180  0.1577  0.0817
  333loPI   GL2 5318   3.164  14.086  10.385 -0.1688 -0.1848 -0.3525
  333loPI   C1A 5319   2.694  13.817  10.038 -0.2034  0.1136 -0.0102
  333loPI   C2A 5320   2.596  13.818   9.639 -0.0127 -0.1835  0.0240
  333loPI   C3A 5321   2.686  13.898   9.206  0.0042 -0.0238  0.2140
  333loPI   C4A 5322   2.644  13.805   8.788  0.0996  0.2290 -0.0605
  333loPI   C5A 5323   2.546  13.655   8.395  0.0282  0.0005 -0.0670
  333loPI   C6A 5324   2.833  13.648   8.058 -0.1099  0.0726  0.1471
  333loPI   C1B 5325   3.088  14.090   9.921 -0.1657 -0.2801 -0.0419
  333loPI   C2B 5326   3.066  14.146   9.460 -0.0591 -0.1434  0.1068
  333loPI   C3B 5327   3.039  14.260   9.028  0.0070 -0.0825 -0.0800
  333loPI   C4B 5328   2.967  14.243   8.656  0.0683  0.1230  0.1315
  334loPI    C1 5329   5.557   6.029  10.387  0.1188  0.0260 -0.0575
  334loPI    C2 5330   5.291   6.132  10.667  0.0312  0.2877 -0.2334
  334loPI    C3 5331   5.192   5.865  10.385  0.1438 -0.0312  0.0229
  334loPI   PO4 5332   5.615   6.241  10.285 -0.1038 -0.3140 -0.3086
  334loPI   GL1 5333   5.778   6.356   9.945 -0.0512  0.2940  0.3665
  334loPI   GL2 5334   5.581   6.633   9.710  0.1409  0.0243  0.2174
  334loPI   C1A 5335   5.685   6.125   9.568  0.0348 -0.0942  0.0973
  334loPI   C2A 5336   5.474   5.781   9.272 -0.0952  0.1435  0.3120
  334loPI   C3A 5337   5.520   5.723   8.873 -0.2500 -0.2319  0.0036
  334loPI   C4A 5338   5.360   5.562   8.530  0.2008  0.0312 -0.1799
  334loPI   C5A 5339   5.459   5.536   8.065 -0.0184 -0.2411 -0.0695
  334loPI   C6A 5340   5.380   5.549   7.629  0.1932  0.0841 -0.0995
  334loPI   C1B 5341   5.544   6.530   9.277  0.0618 -0.2703 -0.0881
  334loPI   C2B 5342   5.770   6.216   9.022  0.5355 -0.0853  0.0998
  334loPI   C3B 5343   5.790   6.074   8.575 -0.3315 -0.1962 -0.0147
  334loPI   C4B 5344   5.792   5.868   8.114 -0.1023 -0.0518 -0.1915
  335loPI    C1 5345  14.246   1.321  11.211  0.0114 -0.0518  0.1229
  335loPI    C2 5346  14.026   0.988  11.184 -0.1210  0.0037  0.4594
  335loPI    C3 5347  13.889   1.301  11.391 -0.0281  0.2959  0.0891
  335loPI   PO4 5348  14.361   1.316  10.965  0.2118  0.3518 -0.0211
  335loPI   GL1 5349  14.419   1.239  10.524  0.1655 -0.2104  0.0221
  335loPI   GL2 5350  14.175   1.049  10.332 -0.1206  0.2128 -0.0093
  335loPI   C1A 5351  14.548   1.316  10.159  0.0313 -0.0457 -0.1165
  335loPI   C2A 5352  14.437   1.400   9.759 -0.1378  0.0956 -0.2804
  335loPI   C3A 5353  14.475   1.334   9.363  0.0063  0.0781 -0.0647
  335loPI   C4A 5354  14.681   1.232   9.009 -0.0928 -0.0028 -0.1094
  335loPI   C5A 5355  14.659   1.053   8.610  0.1542 -0.2226  0.0088
  335loPI   C6A 5356  14.926   0.634   8.483 -0.2634  0.0515  0.1345
  335loPI   C1B 5357  14.092   1.046   9.888  0.1319 -0.0126  0.1134
  335loPI   C2B 5358  14.028   0.884   9.462 -0.0247 -0.0583  0.0887
  335loPI   C3B 5359  14.225   0.953   9.052  0.2056  0.3157  0.2016
  335loPI   C4B 5360  13.967   0.989   8.636  0.1015  0.2537 -0.0811
  336loPI    C1 5361  16.680  10.694  10.357  0.0066 -0.0493  0.2679
  336loPI    C2 5362  16.399  10.854  10.592 -0.1704 -0.0133  0.0361
  336loPI    C3 5363  16.435  10.456  10.566 -0.2964 -0.0199 -0.0452
  336loPI   PO4 5364  16.686  10.722  10.169 -0.0797 -0.0166  0.0347
  336loPI   GL1 5365  17.042  10.746   9.884 -0.3523 -0.2194 -0.0106
  336loPI   GL2 5366  16.926  10.525   9.703  0.0384 -0.0473 -0.1921
  336loPI   C1A 5367  17.152  11.075   9.558  0.0984  0.0291 -0.2406
  336loPI   C2A 5368  17.000  11.318   9.265 -0.1488 -0.0821 -0.2937
  336loPI   C3A 5369  16.957  11.523   8.862 -0.0565  0.0870  0.1704
  336loPI   C4A 5370  16.884  11.652   8.390  0.0079 -0.2300 -0.1616
  336loPI   C5A 5371  16.823  11.519   8.012  0.1983  0.0488  0.1324
  336loPI   C6A 5372  16.666  11.181   7.776 -0.2289  0.3686 -0.1348
  336loPI   C1B 5373  16.546  10.384   9.406 -0.1690  0.1238  0.0853
  336loPI   C2B 5374  16.404  10.516   9.055  0.4098 -0.1959  0.0896
  336loPI   C3B 5375  16.450  10.549   8.629 -0.0343 -0.1374 -0.2623
  336loPI   C4B 5376  16.737  10.704   8.255  0.0573 -0.1443  0.0294
  337loPI    C1 5377   7.979  15.074  11.138 -0.1395 -0.3437 -0.0423
  337loPI    C2 5378   7.980  15.462  11.041  0.0093 -0.3109  0.0847
  337loPI    C3 5379   7.700  15.318  11.288 -0.0958 -0.3019 -0.0284
  337loPI   PO4 5380   8.063  14.915  10.889 -0.0258  0.0370  0.0603
  337loPI   GL1 5381   8.130  14.720  10.392  0.0899 -0.0239  0.0846
  337loPI   GL2 5382   8.081  15.024  10.148 -0.0061  0.1073  0.1396
  337loPI   C1A 5383   8.013  14.628   9.925  0.0368 -0.0312  0.0909
  337loPI   C2A 5384   7.943  14.734   9.532  0.0850 -0.4300  0.0107
  337loPI   C3A 5385   7.894  14.941   9.152 -0.1978 -0.1901  0.3130
  337loPI   C4A 5386   8.011  15.090   8.736  0.2982 -0.0579  0.1000
  337loPI   C5A 5387   8.401  15.011   8.523 -0.1764 -0.2650  0.3681
  337loPI   C6A 5388   8.560  14.685   8.284 -0.0465  0.0999 -0.4395
  337loPI   C1B 5389   8.114  15.192   9.754 -0.3662  0.3885  0.0881
  337loPI   C2B 5390   8.104  15.443   9.368 -0.1448 -0.0338  0.0158
  337loPI   C3B 5391   7.941  15.560   8.902 -0.0090  0.1678  0.2308
  337loPI   C4B 5392   7.726  15.419   8.462  0.1422  0.1039 -0.3159
  338loPI    C1 5393   6.871   9.579  10.574 -0.0184  0.0156 -0.1504
  338loPI    C2 5394   7.212   9.494  10.765 -0.1462 -0.4036 -0.1002
  338loPI    C3 5395   7.058   9.862  10.786  0.2455 -0.2386 -0.0370
  338loPI   PO4 5396   6.889   9.498  10.366  0.0486 -0.0306 -0.2379
  338loPI   GL1 5397   6.979   9.468   9.964 -0.2655 -0.0072 -0.1458
  338loPI   GL2 5398   6.757   9.720   9.855 -0.0546  0.2799 -0.1579
  338loPI   C1A 5399   7.196   9.471   9.541  0.0605  0.1301 -0.1903
  338loPI   C2A 5400   7.194   9.396   9.128 -0.0850  0.0164 -0.0036
  338loPI   C3A 5401   7.221   9.302   8.694  0.1141  0.1642  0.0945
  338loPI   C4A 5402   7.213   9.389   8.259 -0.3637  0.0896  0.0765
  338loPI   C5A 5403   7.377   9.625   7.928  0.0873 -0.1826 -0.3139
  338loPI   C6A 5404   7.706   9.764   7.697  0.2974  0.0421 -0.0319
  338loPI   C1B 5405   6.717   9.447   9.448 -0.0771  0.3921  0.1132
  338loPI   C2B 5406   6.652   9.562   9.045  0.0349 -0.0269 -0.0102
  338loPI   C3B 5407   6.645   9.366   8.754  0.1837 -0.0650  0.0640
  338loPI   C4B 5408   6.810   9.069   8.448 -0.1830 -0.1809  0.3327
  339loPI    C1 5409  11.277  15.043  10.903 -0.0632 -0.2815 -0.0353
  339loPI    C2 5410  10.968  15.291  10.851  0.0979 -0.1137 -0.2085
  339loPI    C3 5411  11.176  15.299  11.192 -0.2631 -0.4283  0.0273
  339loPI   PO4 5412  11.380  15.044  10.656 -0.1272  0.0347 -0.0537
  339loPI   GL1 5413  11.529  15.351  10.393  0.0136  0.0074 -0.3147
  339loPI   GL2 5414  11.735  15.336  10.542  0.2640  0.1125  0.0157
  339loPI   C1A 5415  11.305  15.531  10.092  0.2270  0.1786  0.1248
  339loPI   C2A 5416  11.233  15.637   9.585 -0.0155  0.2521 -0.0800
  339loPI   C3A 5417  11.204  15.583   9.240  0.1602  0.1371  0.1519
  339loPI   C4A 5418  11.294  15.543   8.793  0.0718  0.2491  0.1224
  339loPI   C5A 5419  11.308  15.834   8.475  0.1203  0.1965  0.1677
  339loPI   C6A 5420  11.479  16.146   8.352  0.2117 -0.0765 -0.1192
  339loPI   C1B 5421  11.917  15.473  10.082  0.0855 -0.0969 -0.2548
  339loPI   C2B 5422  11.731  15.452   9.650 -0.1561 -0.1167  0.0412
  339loPI   C3B 5423  11.757  15.379   9.149 -0.2318 -0.0775  0.1072
  339loPI   C4B 5424  11.784  15.409   8.731  0.0952  0.2948  0.1810
  340loPI    C1 5425  16.675   3.648  10.491 -0.3207 -0.2695 -0.0699
  340loPI    C2 5426  16.940   3.436  10.703 -0.2637 -0.1228  0.0074
  340loPI    C3 5427  16.548   3.383  10.763 -0.2478 -0.0765  0.1565
  340loPI   PO4 5428  16.735   3.647  10.220  0.0777  0.0299  0.0418
  340loPI   GL1 5429  16.575   3.831   9.878  0.0415  0.1009 -0.3775
  340loPI   GL2 5430  16.603   4.204   9.773  0.0861  0.1568 -0.1836
  340loPI   C1A 5431  16.532   3.602   9.487 -0.1256 -0.0762 -0.0412
  340loPI   C2A 5432  16.552   3.685   9.007  0.0280  0.3133 -0.0497
  340loPI   C3A 5433  16.464   3.549   8.568 -0.1449  0.1035 -0.0806
  340loPI   C4A 5434  16.566   3.261   8.149 -0.0282  0.0003  0.0802
  340loPI   C5A 5435  16.666   2.872   8.000 -0.1753  0.1435  0.4823
  340loPI   C6A 5436  16.874   2.455   7.959 -0.2739  0.2271  0.2575
  340loPI   C1B 5437  16.418   4.116   9.274  0.2806  0.0299  0.2588
  340loPI   C2B 5438  16.172   4.005   8.843  0.0633 -0.1999 -0.3058
  340loPI   C3B 5439  16.039   3.748   8.457 -0.1306  0.0862 -0.0704
  340loPI   C4B 5440  16.061   3.467   8.170  0.1123 -0.1583  0.2820
  341loPI    C1 5441   9.873  14.864  11.163 -0.0396  0.0754  0.0890
  341loPI    C2 5442   9.981  15.203  10.981  0.1317 -0.0249  0.0010
  341loPI    C3 5443  10.130  15.113  11.341  0.0822 -0.0046  0.0267
  341loPI   PO4 5444   9.926  14.639  10.890  0.0788 -0.3930 -0.2697
  341loPI   GL1 5445   9.980  14.651  10.397  0.1586  0.0109  0.3134
  341loPI   GL2 5446  10.050  14.948  10.510 -0.0997  0.0068  0.0380
  341loPI   C1A 5447   9.668  14.868  10.204  0.2605  0.0011 -0.3007
  341loPI   C2A 5448   9.525  14.999   9.803  0.1730  0.1469  0.2466
  341loPI   C3A 5449   9.492  15.008   9.380  0.0234  0.0262 -0.1009
  341loPI   C4A 5450   9.556  15.161   8.970  0.1348 -0.1373 -0.0916
  341loPI   C5A 5451   9.422  15.036   8.533  0.1805 -0.0464  0.1905
  341loPI   C6A 5452   8.982  14.935   8.379  0.0935  0.0463  0.0720
  341loPI   C1B 5453  10.145  14.917  10.040 -0.2337 -0.1840 -0.1870
  341loPI   C2B 5454   9.977  15.024   9.638 -0.0059  0.0994  0.0006
  341loPI   C3B 5455   9.992  15.024   9.233  0.0865  0.1678 -0.2411
  341loPI   C4B 5456  10.004  15.134   8.825 -0.3018  0.2109  0.1445
  342loPI    C1 5457  13.809   1.901  10.746 -0.1730  0.0003  0.1446
  342loPI    C2 5458  14.151   1.697  10.711  0.1484  0.5529 -0.0636
  342loPI    C3 5459  13.913   1.636  11.026  0.0848 -0.3378 -0.2580
  342loPI   PO4 5460  13.757   1.865  10.424 -0.3311  0.2120 -0.0488
  342loPI   GL1 5461  13.954   1.474  10.268 -0.1897  0.0721  0.0630
  342loPI   GL2 5462  14.257   1.810  10.220 -0.1263 -0.0564 -0.2945
  342loPI   C1A 5463  13.695   1.386   9.849 -0.3403 -0.2160  0.0146
  342loPI   C2A 5464  13.558   1.282   9.460 -0.0026  0.0602 -0.1475
  342loPI   C3A 5465  13.655   1.070   9.071  0.1656  0.0753 -0.3844
  342loPI   C4A 5466  13.469   0.841   8.597 -0.2728 -0.0175  0.1486
  342loPI   C5A 5467  13.127   0.461   8.474 -0.1344  0.1491  0.0492
  342loPI   C6A 5468  12.837   0.352   8.209  0.3638 -0.1571 -0.2028
  342loPI   C1B 5469  14.070   1.737   9.856 -0.2072  0.1053 -0.0975
  342loPI   C2B 5470  13.965   1.587   9.480 -0.1728 -0.0714 -0.0178
  342loPI   C3B 5471  13.992   1.460   9.122  0.0730 -0.4038  0.1647
  342loPI   C4B 5472  14.262   1.351   8.796  0.4844 -0.2211  0.1050
  343loPI    C1 5473   2.822   7.356  10.297  0.0786 -0.1513  0.1488
  343loPI    C2 5474   2.974   7.611  10.565 -0.0505  0.0749  0.0093
  343loPI    C3 5475   2.587   7.510  10.582 -0.0806  0.1604 -0.1438
  343loPI   PO4 5476   2.932   7.397  10.079 -0.0558 -0.0072  0.1663
  343loPI   GL1 5477   2.914   7.185   9.749 -0.0145  0.3232 -0.1222
  343loPI   GL2 5478   2.957   6.911   9.529 -0.0816 -0.1139  0.2530
  343loPI   C1A 5479   3.073   7.379   9.434 -0.0528  0.0406 -0.0220
  343loPI   C2A 5480   3.011   7.441   8.904 -0.1071 -0.2448  0.0561
  343loPI   C3A 5481   3.156   7.532   8.587 -0.0212 -0.0831 -0.0447
  343loPI   C4A 5482   3.348   7.538   8.216 -0.2729 -0.0327  0.0256
  343loPI   C5A 5483   3.606   7.460   7.883 -0.0108 -0.1610 -0.3411
  343loPI   C6A 5484   4.111   7.468   7.877  0.1893 -0.1020  0.3103
  343loPI   C1B 5485   3.099   6.893   9.067  0.2754  0.1411  0.1625
  343loPI   C2B 5486   3.194   7.027   8.606  0.1665 -0.3008 -0.1291
  343loPI   C3B 5487   3.012   7.211   8.248  0.0254  0.1483  0.2951
  343loPI   C4B 5488   2.962   7.258   7.813  0.1685 -0.1646  0.1032
  344loPI    C1 5489   7.083  15.848  11.215 -0.1410 -0.0298 -0.0705
  344loPI    C2 5490   6.923  16.213  11.248  0.0850  0.0623  0.0288
  344loPI    C3 5491   7.028  16.011  11.577  0.1655  0.0005 -0.0344
  344loPI   PO4 5492   7.141  15.866  10.978 -0.1536  0.1151  0.2408
  344loPI   GL1 5493   7.089  15.951  10.545  0.0004 -0.0918 -0.2217
  344loPI   GL2 5494   7.356  15.769  10.392 -0.1184  0.0587  0.2488
  344loPI   C1A 5495   6.814  15.916  10.207 -0.0574 -0.0956 -0.0358
  344loPI   C2A 5496   6.904  15.811   9.806 -0.0503  0.1575 -0.0765
  344loPI   C3A 5497   6.832  15.790   9.383  0.1325 -0.0664 -0.1845
  344loPI   C4A 5498   6.823  15.860   8.894  0.1983 -0.0494 -0.0034
  344loPI   C5A 5499   6.541  15.910   8.493 -0.0174 -0.2032 -0.0906
  344loPI   C6A 5500   6.252  15.622   8.231 -0.0145  0.2321 -0.2376
  344loPI   C1B 5501   7.355  15.794  10.073 -0.0271  0.2845 -0.2141
  344loPI   C2B 5502   7.330  15.718   9.610 -0.1935 -0.1937  0.0167
  344loPI   C3B 5503   7.315  15.737   9.183  0.1921  0.0688  0.0031
  344loPI   C4B 5504   7.281  15.659   8.687  0.1640  0.0126 -0.1548
  345loPI    C1 5505   7.701   7.339  10.472 -0.0502 -0.0953 -0.0616
  345loPI    C2 5506   7.463   7.642  10.581  0.0223 -0.0920  0.0899
  345loPI    C3 5507   7.384   7.435  10.248 -0.1690 -0.0651  0.1177
  345loPI   PO4 5508   7.980   7.495  10.491 -0.1104 -0.4589 -0.0976
  345loPI   GL1 5509   8.292   7.630  10.153  0.2488 -0.1478  0.1188
  345loPI   GL2 5510   8.238   7.273  10.119 -0.0339 -0.0643  0.1364
  345loPI   C1A 5511   8.544   7.719   9.841 -0.0376 -0.0661 -0.2028
  345loPI   C2A 5512   8.514   7.609   9.357 -0.1413 -0.2261  0.0711
  345loPI   C3A 5513   8.611   7.536   9.027  0.0939  0.0228  0.0532
  345loPI   C4A 5514   8.638   7.313   8.717 -0.4473  0.2410  0.2546
  345loPI   C5A 5515   8.921   7.224   8.379 -0.1162  0.2900 -0.2417
  345loPI   C6A 5516   8.803   7.217   7.879  0.0627 -0.0735  0.1923
  345loPI   C1B 5517   8.305   7.191   9.657  0.4187 -0.0952  0.2611
  345loPI   C2B 5518   8.254   7.208   9.240 -0.2680  0.1642  0.1449
  345loPI   C3B 5519   8.178   7.033   8.835  0.4134  0.5067  0.1885
  345loPI   C4B 5520   8.412   6.923   8.445 -0.0006 -0.1144 -0.0293
  346loPI    C1 5521  12.411   0.226  10.862 -0.1593 -0.0684 -0.2740
  346loPI    C2 5522  12.226   0.092  11.190  0.0036  0.0721 -0.1224
  346loPI    C3 5523  12.413   0.446  11.196  0.1331  0.0089 -0.3232
  346loPI   PO4 5524  12.236   0.239  10.730 -0.1168 -0.1544  0.3474
  346loPI   GL1 5525  12.095   0.523  10.381  0.2833  0.2836 -0.3246
  346loPI   GL2 5526  12.025   0.901  10.336 -0.2103  0.3874  0.0884
  346loPI   C1A 5527  12.165   0.317   9.990  0.2765  0.2422 -0.1449
  346loPI   C2A 5528  12.103   0.313   9.563  0.0136 -0.0189  0.0433
  346loPI   C3A 5529  11.978   0.099   9.156 -0.1443 -0.0345  0.1860
  346loPI   C4A 5530  12.080   0.062   8.726 -0.1801 -0.1548 -0.0072
  346loPI   C5A 5531  12.343   0.083   8.412 -0.0576 -0.1646  0.0464
  346loPI   C6A 5532  12.597  -0.045   8.016 -0.0033  0.2962  0.0540
  346loPI   C1B 5533  12.067   0.799   9.911  0.2484 -0.3039  0.2521
  346loPI   C2B 5534  12.010   0.825   9.502 -0.1223  0.0724  0.0781
  346loPI   C3B 5535  11.990   0.591   9.119 -0.1012  0.0521 -0.0652
  346loPI   C4B 5536  11.915   0.798   8.703  0.1614 -0.1140  0.1578
  347loPI    C1 5537  10.075   9.839  10.805  0.0404 -0.2105 -0.0616
  347loPI    C2 5538  10.409  10.046  10.731 -0.0856  0.0949  0.1977
  347loPI    C3 5539  10.260  10.033  11.102 -0.2146 -0.2664  0.1376
  347loPI   PO4 5540  10.118   9.658  10.575  0.0829  0.4361 -0.0143
  347loPI   GL1 5541  10.104   9.609  10.138 -0.0737 -0.3654 -0.1698
  347loPI   GL2 5542  10.341   9.471  10.013  0.0637  0.0310  0.0499
  347loPI   C1A 5543  10.014   9.815   9.724 -0.0628 -0.1968 -0.4829
  347loPI   C2A 5544   9.933   9.813   9.344 -0.2078 -0.0618 -0.0263
  347loPI   C3A 5545   9.832   9.730   8.984 -0.2864 -0.5213 -0.0554
  347loPI   C4A 5546   9.706   9.830   8.669 -0.1067 -0.0384  0.0634
  347loPI   C5A 5547   9.830  10.136   8.487  0.0093  0.0341 -0.0455
  347loPI   C6A 5548  10.144  10.368   8.127  0.1313  0.0706  0.2160
  347loPI   C1B 5549  10.430   9.430   9.675  0.0212  0.0326  0.5153
  347loPI   C2B 5550  10.522   9.448   9.301  0.1270  0.0401 -0.0323
  347loPI   C3B 5551  10.344   9.743   8.995  0.1777 -0.0162 -0.2217
  347loPI   C4B 5552  10.185   9.796   8.670 -0.1030 -0.1100 -0.1478
  348loPI    C1 5553   3.898  13.484  10.804 -0.0612  0.0489 -0.1708
  348loPI    C2 5554   4.163  13.452  11.102 -0.1090 -0.1864 -0.1520
  348loPI    C3 5555   3.772  13.470  11.183 -0.1083  0.0148 -0.1877
  348loPI   PO4 5556   3.941  13.345  10.588  0.0279  0.2272 -0.2709
  348loPI   GL1 5557   4.174  13.328  10.180  0.0393 -0.2289  0.0318
  348loPI   GL2 5558   4.441  13.148  10.317  0.1348 -0.2932 -0.0113
  348loPI   C1A 5559   4.190  13.318   9.771  0.0606 -0.2147  0.1024
  348loPI   C2A 5560   4.097  13.303   9.330  0.1718 -0.2472 -0.0464
  348loPI   C3A 5561   4.130  13.324   8.879 -0.2510 -0.1506  0.0147
  348loPI   C4A 5562   4.212  13.362   8.463 -0.1129 -0.0838 -0.2525
  348loPI   C5A 5563   4.182  13.580   8.089  0.0336  0.1209  0.0598
  348loPI   C6A 5564   4.164  14.066   8.154 -0.0963 -0.0797  0.0535
  348loPI   C1B 5565   4.648  13.113   9.933  0.3380 -0.0898 -0.1152
  348loPI   C2B 5566   4.631  13.206   9.504 -0.0976  0.3061  0.0486
  348loPI   C3B 5567   4.621  13.267   9.076  0.2240 -0.0536 -0.1321
  348loPI   C4B 5568   4.658  13.210   8.634  0.0748 -0.1140 -0.1693
  349loPI    C1 5569   1.019   0.590  10.817 -0.1024  0.1972  0.0323
  349loPI    C2 5570   1.191   0.490  11.164 -0.0296  0.0170 -0.0543
  349loPI    C3 5571   1.203   0.869  11.036 -0.0262  0.0771  0.1222
  349loPI   PO4 5572   1.042   0.364  10.659 -0.0925 -0.0149 -0.2007
  349loPI   GL1 5573   1.084   0.175  10.268  0.2851 -0.0151 -0.1515
  349loPI   GL2 5574   1.408   0.408  10.259 -0.0868 -0.0146  0.2770
  349loPI   C1A 5575   1.196   0.125   9.844  0.2668  0.0530 -0.1613
  349loPI   C2A 5576   1.189  -0.085   9.508 -0.1303 -0.2015  0.0975
  349loPI   C3A 5577   1.114   0.011   9.092  0.0082  0.1156  0.1520
  349loPI   C4A 5578   1.164   0.048   8.708  0.0201 -0.1994 -0.2243
  349loPI   C5A 5579   1.385  -0.140   8.300  0.0754  0.0215  0.0393
  349loPI   C6A 5580   1.287  -0.520   8.106  0.1737  0.5300 -0.1403
  349loPI   C1B 5581   1.582   0.402   9.762 -0.2982  0.0442  0.4367
  349loPI   C2B 5582   1.660   0.374   9.303  0.0612 -0.0829  0.2674
  349loPI   C3B 5583   1.554   0.456   8.892 -0.1342 -0.2025  0.1251
  349loPI   C4B 5584   1.664   0.355   8.504  0.0163 -0.0379  0.3158
  350loPI    C1 5585  14.868  13.399  11.176  0.1040 -0.0954 -0.0664
  350loPI    C2 5586  14.638  13.638  11.399 -0.0039  0.1063 -0.3863
  350loPI    C3 5587  14.971  13.479  11.554 -0.2103  0.0334 -0.0051
  350loPI   PO4 5588  14.655  13.360  10.885 -0.3196 -0.0381 -0.4203
  350loPI   GL1 5589  14.658  13.289  10.464  0.2399 -0.1606 -0.0574
  350loPI   GL2 5590  14.909  13.157  10.455 -0.1768 -0.0240  0.1978
  350loPI   C1A 5591  14.505  13.427  10.019 -0.3800  0.0199 -0.1056
  350loPI   C2A 5592  14.434  13.492   9.600  0.1796 -0.0730  0.1357
  350loPI   C3A 5593  14.481  13.621   9.183  0.3636  0.1307  0.1017
  350loPI   C4A 5594  14.568  13.819   8.758  0.1903 -0.0766  0.1430
  350loPI   C5A 5595  14.519  13.983   8.341  0.1079  0.1120 -0.3331
  350loPI   C6A 5596  14.587  14.233   7.943  0.2300 -0.0898 -0.0846
  350loPI   C1B 5597  14.988  13.271  10.045 -0.3108 -0.1583  0.0441
  350loPI   C2B 5598  14.987  13.380   9.585  0.2624 -0.0714 -0.1800
  350loPI   C3B 5599  14.987  13.445   9.193 -0.3135 -0.3279  0.1061
  350loPI   C4B 5600  15.047  13.530   8.746  0.1273  0.2510  0.3847
  351loPI    C1 5601  11.543   5.012  10.691  0.2002  0.3146 -0.4126
  351loPI    C2 5602  11.515   5.334  10.926 -0.1542 -0.0263  0.0305
  351loPI    C3 5603  11.850   5.116  10.926 -0.1180  0.0284  0.1494
  351loPI   PO4 5604  11.246   5.015  10.630 -0.1193 -0.0281 -0.0123
  351loPI   GL1 5605  10.776   5.096  10.367  0.1852  0.0273 -0.2218
  351loPI   GL2 5606  10.792   5.356  10.143  0.2342  0.3017 -0.1477
  351loPI   C1A 5607  10.598   4.886   9.961  0.1002 -0.0419  0.0980
  351loPI   C2A 5608  10.570   4.797   9.568 -0.2268 -0.0652 -0.1162
  351loPI   C3A 5609  10.504   4.748   9.068  0.1485 -0.1465 -0.1451
  351loPI   C4A 5610  10.523   4.601   8.676 -0.0503 -0.3244  0.2148
  351loPI   C5A 5611  10.736   4.552   8.356 -0.1240 -0.0801  0.4037
  351loPI   C6A 5612  10.737   4.148   8.083 -0.1985  0.1039  0.3463
  351loPI   C1B 5613  10.614   5.324   9.658  0.0474  0.0077  0.2168
  351loPI   C2B 5614  10.426   5.259   9.257  0.0201  0.0276 -0.0944
  351loPI   C3B 5615  10.428   5.201   8.768  0.1343 -0.3198  0.0762
  351loPI   C4B 5616  10.413   4.990   8.342 -0.0807 -0.2014  0.1767
  352loPI    C1 5617   3.449  11.327  10.768  0.2684 -0.0187  0.0574
  352loPI    C2 5618   3.164  11.467  11.012  0.0843  0.0240 -0.1787
  352loPI    C3 5619   3.317  11.102  11.071 -0.0409 -0.0113 -0.0677
  352loPI   PO4 5620   3.304  11.340  10.512 -0.1188  0.3329  0.0844
  352loPI   GL1 5621   3.328  11.591  10.057  0.0019 -0.1558  0.0245
  352loPI   GL2 5622   3.170  11.348  10.034  0.0604 -0.0466  0.1341
  352loPI   C1A 5623   3.148  11.644   9.597 -0.1298 -0.0434  0.0327
  352loPI   C2A 5624   3.085  11.691   9.135 -0.1254  0.0454  0.0903
  352loPI   C3A 5625   3.096  11.729   8.714 -0.0556 -0.0541 -0.2185
  352loPI   C4A 5626   3.085  11.706   8.312 -0.0211 -0.0071  0.1332
  352loPI   C5A 5627   3.181  11.504   7.995  0.0920 -0.1131  0.2936
  352loPI   C6A 5628   3.394  11.590   7.594  0.3878 -0.0726  0.0025
  352loPI   C1B 5629   3.167  11.045   9.617 -0.2391 -0.1081  0.1324
  352loPI   C2B 5630   3.185  11.224   9.292 -0.1543  0.4609 -0.0173
  352loPI   C3B 5631   3.208  11.239   8.867  0.1600  0.0255  0.2537
  352loPI   C4B 5632   3.207  11.209   8.444 -0.0313  0.2621  0.3463
  353loPI    C1 5633   6.770  10.056  10.257 -0.1435 -0.0302  0.0628
  353loPI    C2 5634   6.570   9.974  10.594 -0.3285  0.2128  0.0152
  353loPI    C3 5635   6.478   9.782  10.255 -0.1181 -0.0578  0.1073
  353loPI   PO4 5636   7.137   9.985  10.298  0.1791 -0.2909 -0.0719
  353loPI   GL1 5637   7.318   9.903   9.925  0.0575  0.2475  0.0978
  353loPI   GL2 5638   7.575   9.675   9.834 -0.2781 -0.0737  0.1168
  353loPI   C1A 5639   7.159   9.991   9.618  0.0722 -0.1198 -0.0178
  353loPI   C2A 5640   7.092   9.897   9.185  0.2454  0.1423  0.2269
  353loPI   C3A 5641   7.084   9.803   8.831 -0.0481 -0.1685  0.0429
  353loPI   C4A 5642   6.883   9.690   8.452 -0.3875  0.1905 -0.2422
  353loPI   C5A 5643   6.954   9.761   8.044 -0.1404  0.1387  0.0013
  353loPI   C6A 5644   7.076   9.857   7.601 -0.1799  0.2743 -0.2054
  353loPI   C1B 5645   7.624   9.797   9.402 -0.1388  0.1598 -0.1136
  353loPI   C2B 5646   7.621   9.803   9.009  0.1998 -0.1091  0.1577
  353loPI   C3B 5647   7.559   9.613   8.524 -0.1104  0.0932 -0.1866
  353loPI   C4B 5648   7.902   9.749   8.220  0.1900 -0.3531  0.3665
  354loPI    C1 5649  13.985  14.340  11.191 -0.0742 -0.1913 -0.1563
  354loPI    C2 5650  14.275  14.569  11.344 -0.0726 -0.2720 -0.0369
  354loPI    C3 5651  13.931  14.522  11.543 -0.0579 -0.4042 -0.0421
  354loPI   PO4 5652  14.030  14.400  10.965  0.0840 -0.3147  0.1274
  354loPI   GL1 5653  13.891  14.633  10.620  0.0892 -0.2262  0.2124
  354loPI   GL2 5654  13.910  15.044  10.698  0.2758  0.2645  0.0626
  354loPI   C1A 5655  13.770  14.645  10.216 -0.0256 -0.1359  0.1498
  354loPI   C2A 5656  13.730  14.688   9.823  0.4470  0.1626 -0.0087
  354loPI   C3A 5657  13.703  14.771   9.462  0.1529  0.0720  0.2012
  354loPI   C4A 5658  13.736  14.785   9.039 -0.4195  0.1261  0.2825
  354loPI   C5A 5659  13.845  14.724   8.620  0.0090  0.2512 -0.2003
  354loPI   C6A 5660  13.784  14.775   8.116  0.2294  0.2672 -0.0930
  354loPI   C1B 5661  14.171  14.934  10.319  0.1060  0.2452  0.1259
  354loPI   C2B 5662  14.150  15.088   9.848 -0.1080  0.1847  0.2776
  354loPI   C3B 5663  14.115  15.097   9.436  0.2909  0.0692  0.1665
  354loPI   C4B 5664  14.012  15.151   8.967  0.2358  0.0141 -0.0897
  355loPI    C1 5665   3.111   0.173  11.007  0.1918 -0.1045 -0.0566
  355loPI    C2 5666   3.257   0.510  10.848 -0.1853  0.1197  0.0581
  355loPI    C3 5667   3.212   0.480  11.244 -0.3994  0.0368  0.0286
  355loPI   PO4 5668   2.927   0.096  10.777  0.0506  0.4356  0.2262
  355loPI   GL1 5669   2.957   0.115  10.349 -0.0150 -0.0377 -0.2648
  355loPI   GL2 5670   3.203   0.438  10.263  0.1524 -0.0349  0.2524
  355loPI   C1A 5671   3.000   0.093   9.928 -0.1460  0.0375  0.3157
  355loPI   C2A 5672   3.061   0.016   9.591  0.1326  0.0274  0.2559
  355loPI   C3A 5673   2.992  -0.047   9.268 -0.0639  0.0112  0.2108
  355loPI   C4A 5674   3.055  -0.009   8.884  0.2069 -0.1166  0.0069
  355loPI   C5A 5675   3.220  -0.048   8.512 -0.1320 -0.0701  0.0884
  355loPI   C6A 5676   3.493  -0.367   8.229 -0.2166 -0.0341  0.0855
  355loPI   C1B 5677   3.425   0.443   9.888  0.0873 -0.0005 -0.3376
  355loPI   C2B 5678   3.457   0.344   9.432  0.0767  0.0999 -0.2053
  355loPI   C3B 5679   3.493   0.341   9.020 -0.5529  0.1412  0.1259
  355loPI   C4B 5680   3.497   0.309   8.665 -0.0787  0.0693 -0.2952
  356loPI    C1 5681  10.409  11.309  10.549  0.1342 -0.2039 -0.0804
  356loPI    C2 5682  10.357  10.942  10.697  0.0071 -0.1036  0.1285
  356loPI    C3 5683  10.239  11.261  10.908  0.0491  0.0540 -0.0837
  356loPI   PO4 5684  10.706  11.480  10.447 -0.0426 -0.0424 -0.1545
  356loPI   GL1 5685  10.970  11.540  10.034 -0.4896 -0.3757 -0.2042
  356loPI   GL2 5686  10.680  11.369   9.940 -0.2405  0.0967  0.0193
  356loPI   C1A 5687  11.194  11.488   9.682 -0.0726 -0.2794  0.0188
  356loPI   C2A 5688  11.094  11.495   9.254  0.0777  0.1188 -0.0193
  356loPI   C3A 5689  11.100  11.553   8.898 -0.0209 -0.3912  0.0333
  356loPI   C4A 5690  11.109  11.781   8.555  0.1947  0.0349 -0.1304
  356loPI   C5A 5691  10.980  12.093   8.177 -0.1144 -0.0744 -0.0452
  356loPI   C6A 5692  10.870  12.560   8.145  0.0567 -0.0453  0.2797
  356loPI   C1B 5693  10.637  11.492   9.595  0.0731  0.1081 -0.3073
  356loPI   C2B 5694  10.656  11.730   9.248 -0.1975  0.0356 -0.1963
  356loPI   C3B 5695  10.634  11.840   8.816 -0.3972 -0.1982 -0.3228
  356loPI   C4B 5696  10.655  11.992   8.504 -0.0504 -0.1552 -0.1429
  357loPI    C1 5697  15.839   4.911  10.417 -0.1707  0.0916 -0.0541
  357loPI    C2 5698  15.846   4.911  10.817  0.1572  0.0903 -0.0575
  357loPI    C3 5699  15.731   4.583  10.619 -0.1524  0.1400  0.0348
  357loPI   PO4 5700  15.686   5.079  10.239 -0.4703  0.0368  0.0942
  357loPI   GL1 5701  15.873   5.245   9.849 -0.0899  0.1270 -0.2165
  357loPI   GL2 5702  15.618   5.163   9.765  0.2468 -0.1230  0.0354
  357loPI   C1A 5703  15.981   5.411   9.392 -0.0283  0.1803 -0.0428
  357loPI   C2A 5704  16.038   5.132   9.023 -0.0448 -0.5427 -0.0487
  357loPI   C3A 5705  15.922   5.026   8.672  0.0165  0.3729 -0.0015
  357loPI   C4A 5706  15.826   4.803   8.296  0.0263  0.1601 -0.0688
  357loPI   C5A 5707  15.845   4.556   7.904  0.1705  0.0693 -0.3574
  357loPI   C6A 5708  15.772   4.475   7.451  0.4748 -0.0181 -0.3082
  357loPI   C1B 5709  15.771   4.841   9.391 -0.0462  0.1026 -0.1257
  357loPI   C2B 5710  15.643   4.788   9.006  0.3429  0.1114  0.0493
  357loPI   C3B 5711  15.466   4.762   8.627 -0.3065  0.0580  0.1408
  357loPI   C4B 5712  15.374   4.948   8.187 -0.1026 -0.4100  0.2235
  358loPI    C1 5713   2.570   2.702  10.607 -0.2265 -0.1224 -0.2010
  358loPI    C2 5714   2.846   2.412  10.586 -0.0772  0.0198 -0.2244
  358loPI    C3 5715   2.505   2.350  10.786  0.1822  0.0090  0.2289
  358loPI   PO4 5716   2.566   2.798  10.415 -0.3956 -0.0492  0.2762
  358loPI   GL1 5717   2.475   2.937   9.959  0.0062 -0.0679 -0.0286
  358loPI   GL2 5718   2.384   2.632   9.918  0.2096 -0.2468 -0.0234
  358loPI   C1A 5719   2.633   3.094   9.612 -0.0222  0.0622 -0.2908
  358loPI   C2A 5720   2.594   3.052   9.262 -0.0326 -0.2189 -0.2116
  358loPI   C3A 5721   2.747   3.033   8.860 -0.0952 -0.0299 -0.2085
  358loPI   C4A 5722   2.605   3.209   8.495 -0.0171  0.4186  0.3030
  358loPI   C5A 5723   2.812   2.966   8.185  0.1233  0.0474  0.1051
  358loPI   C6A 5724   3.203   2.876   8.053 -0.0734 -0.2241  0.0330
  358loPI   C1B 5725   2.528   2.576   9.461 -0.0516 -0.1093  0.0686
  358loPI   C2B 5726   2.544   2.596   9.084 -0.0585 -0.0709  0.2039
  358loPI   C3B 5727   2.448   2.695   8.648  0.0079  0.0813 -0.1023
  358loPI   C4B 5728   2.435   2.488   8.232 -0.0001 -0.2002  0.1478
  359loPI    C1 5729  17.153   9.691  10.608 -0.0093  0.0036 -0.0635
  359loPI    C2 5730  17.551   9.667  10.636  0.0125 -0.2308 -0.4855
  359loPI    C3 5731  17.338   9.345  10.529 -0.2900 -0.0985 -0.2941
  359loPI   PO4 5732  17.046   9.860  10.332  0.0976 -0.1452  0.0087
  359loPI   GL1 5733  16.985  10.008   9.735  0.0950  0.0621  0.0375
  359loPI   GL2 5734  16.779   9.878   9.540 -0.0716 -0.0685  0.1484
  359loPI   C1A 5735  17.109  10.129   9.302 -0.3249  0.2241 -0.1802
  359loPI   C2A 5736  16.914  10.221   8.979 -0.2253  0.1997 -0.0448
  359loPI   C3A 5737  16.909  10.279   8.507 -0.0843  0.0820 -0.0073
  359loPI   C4A 5738  16.709  10.326   8.006  0.0267 -0.1135 -0.0041
  359loPI   C5A 5739  16.872  10.658   7.780  0.2052 -0.0651  0.2656
  359loPI   C6A 5740  16.888  10.557   7.427 -0.0574  0.0950 -0.2604
  359loPI   C1B 5741  16.502   9.909   9.119 -0.1394  0.0962  0.0378
  359loPI   C2B 5742  16.438   9.994   8.684 -0.0419 -0.2935 -0.1372
  359loPI   C3B 5743  16.397  10.168   8.325 -0.0816  0.0448 -0.0110
  359loPI   C4B 5744  16.087  10.284   7.926 -0.1860  0.0577 -0.2101
  360loPI    C1 5745   3.343  12.371  10.735 -0.0029  0.0047 -0.0100
  360loPI    C2 5746   3.473  12.652  10.989 -0.0939  0.0601 -0.0243
  360loPI    C3 5747   3.191  12.393  11.105 -0.2222  0.1612 -0.1072
  360loPI   PO4 5748   3.507  12.483  10.530 -0.3454 -0.0842 -0.2757
  360loPI   GL1 5749   3.579  12.703  10.165 -0.0225  0.2323 -0.1843
  360loPI   GL2 5750   3.186  12.538  10.178  0.0073  0.0542 -0.1081
  360loPI   C1A 5751   3.840  12.956   9.976  0.1077  0.2163 -0.0742
  360loPI   C2A 5752   3.650  12.968   9.597 -0.0249  0.3390  0.0448
  360loPI   C3A 5753   3.692  12.991   9.164 -0.3734 -0.3027 -0.1149
  360loPI   C4A 5754   3.765  12.918   8.650 -0.0988 -0.1642 -0.0762
  360loPI   C5A 5755   3.732  12.704   8.239 -0.2484 -0.3401  0.0542
  360loPI   C6A 5756   4.059  12.647   7.913 -0.0449 -0.0199 -0.0682
  360loPI   C1B 5757   3.288  12.567   9.748  0.1295 -0.3984  0.1312
  360loPI   C2B 5758   3.230  12.558   9.376 -0.1052 -0.0749 -0.1961
  360loPI   C3B 5759   3.334  12.617   8.986  0.0942 -0.0419  0.0954
  360loPI   C4B 5760   3.226  12.769   8.537  0.1579  0.4778 -0.3654
  361loPI    C1 5761   1.002   9.370  10.081  0.1779 -0.0796 -0.0273
  361loPI    C2 5762   1.345   9.345  10.285  0.0870  0.0350  0.1420
  361loPI    C3 5763   1.058   9.594  10.408 -0.0477 -0.0425 -0.0129
  361loPI   PO4 5764   1.067   9.191   9.937  0.2571  0.3468  0.1189
  361loPI   GL1 5765   1.071   9.033   9.574 -0.0379  0.1123 -0.0734
  361loPI   GL2 5766   1.355   9.209   9.417  0.0397 -0.1238  0.0965
  361loPI   C1A 5767   1.022   8.793   9.150 -0.1603  0.0112 -0.0295
  361loPI   C2A 5768   0.924   8.812   8.690 -0.0222  0.1356  0.1546
  361loPI   C3A 5769   0.767   8.759   8.318 -0.1282 -0.0994 -0.0107
  361loPI   C4A 5770   0.631   8.996   7.902  0.1198  0.1701 -0.2742
  361loPI   C5A 5771   0.564   9.391   7.955 -0.2549  0.2417 -0.1663
  361loPI   C6A 5772   0.734   9.823   8.024  0.0946  0.1015 -0.0792
  361loPI   C1B 5773   1.271   9.216   9.057 -0.1366  0.3615  0.0344
  361loPI   C2B 5774   1.411   9.356   8.636  0.4270 -0.4269  0.2676
  361loPI   C3B 5775   1.385   9.738   8.326  0.1323  0.3103 -0.2454
  361loPI   C4B 5776   1.264  10.024   7.956 -0.2825 -0.4158 -0.3051
  362loPI    C1 5777  11.966  16.024  11.177 -0.0276  0.0246 -0.1037
  362loPI    C2 5778  11.666  16.164  11.402 -0.1321 -0.4226  0.0460
  362loPI    C3 5779  11.980  15.986  11.575  0.3242  0.2100 -0.0948
  362loPI   PO4 5780  11.795  15.854  10.983 -0.2305 -0.0899  0.0209
  362loPI   GL1 5781  11.690  15.908  10.590 -0.1647  0.0294  0.2145
  362loPI   GL2 5782  12.065  15.913  10.350 -0.1827 -0.0980 -0.0969
  362loPI   C1A 5783  11.608  15.893  10.175 -0.0129 -0.3451 -0.2392
  362loPI   C2A 5784  11.634  15.929   9.676 -0.1974  0.2023 -0.2112
  362loPI   C3A 5785  11.626  15.940   9.190  0.0827 -0.0972 -0.0212
  362loPI   C4A 5786  11.710  15.901   8.738  0.0957  0.2201  0.0675
  362loPI   C5A 5787  11.893  15.898   8.414  0.0840  0.0750 -0.1062
  362loPI   C6A 5788  11.640  15.669   8.072 -0.3354  0.1881 -0.3277
  362loPI   C1B 5789  12.093  16.032   9.976 -0.2848 -0.4412  0.1655
  362loPI   C2B 5790  12.070  16.139   9.459  0.1428  0.2491  0.1042
  362loPI   C3B 5791  11.994  16.269   9.084 -0.0335  0.2771 -0.2034
  362loPI   C4B 5792  11.980  16.354   8.627  0.0590  0.0439  0.0469
  363loPI    C1 5793   5.012  16.663  10.845  0.0870 -0.0586 -0.0458
  363loPI    C2 5794   4.690  16.796  11.042  0.1687 -0.1717  0.1670
  363loPI    C3 5795   4.973  16.590  11.237  0.2347 -0.3155 -0.0771
  363loPI   PO4 5796   5.073  16.825  10.725  0.0252 -0.1694 -0.1805
  363loPI   GL1 5797   5.294  16.942  10.433 -0.0565 -0.0203  0.0120
  363loPI   GL2 5798   5.529  17.114  10.314 -0.1264 -0.0547  0.0453
  363loPI   C1A 5799   5.225  16.858   9.975  0.0257  0.1630 -0.1148
  363loPI   C2A 5800   5.250  16.883   9.537 -0.2780  0.1436  0.1237
  363loPI   C3A 5801   5.239  16.849   9.133 -0.3350 -0.1947  0.0837
  363loPI   C4A 5802   5.337  16.768   8.686  0.3091 -0.1478 -0.1369
  363loPI   C5A 5803   4.980  16.790   8.351 -0.2168 -0.0670  0.0517
  363loPI   C6A 5804   4.709  16.938   8.114 -0.1426  0.3718  0.0626
  363loPI   C1B 5805   5.492  17.330   9.858 -0.0129  0.1129 -0.0823
  363loPI   C2B 5806   5.582  17.281   9.366 -0.0758 -0.1109 -0.2634
  363loPI   C3B 5807   5.625  17.305   8.871 -0.2227 -0.0232  0.0849
  363loPI   C4B 5808   5.464  17.393   8.543  0.0022  0.0591 -0.0670
  364loPI    C1 5809  10.448  14.397  10.822 -0.1634  0.1279 -0.1986
  364loPI    C2 5810  10.188  14.200  11.054 -0.0003 -0.1488 -0.2469
  364loPI    C3 5811  10.339  14.549  11.176 -0.0433 -0.2109 -0.0117
  364loPI   PO4 5812  10.384  14.482  10.629 -0.0849 -0.0569  0.0020
  364loPI   GL1 5813  10.562  14.762  10.372  0.0897 -0.0629  0.3518
  364loPI   GL2 5814  10.517  15.071  10.361  0.1663 -0.2599  0.0780
  364loPI   C1A 5815  10.641  14.791   9.994  0.0650  0.0469  0.2367
  364loPI   C2A 5816  10.619  14.872   9.591 -0.1076 -0.1681  0.3248
  364loPI   C3A 5817  10.529  14.870   9.124  0.2152  0.1562  0.2288
  364loPI   C4A 5818  10.546  15.053   8.661  0.2894 -0.2660  0.0139
  364loPI   C5A 5819  10.747  15.188   8.235 -0.1861 -0.1517 -0.2440
  364loPI   C6A 5820  11.169  15.401   8.145  0.3758 -0.0906 -0.1156
  364loPI   C1B 5821  10.528  15.293   9.989 -0.1698 -0.1653 -0.3148
  364loPI   C2B 5822  10.381  15.328   9.657  0.2710  0.0014  0.1184
  364loPI   C3B 5823  10.369  15.367   9.240 -0.0085 -0.0620  0.1882
  364loPI   C4B 5824  10.493  15.515   8.850  0.1389  0.3247  0.0291
  365loPI    C1 5825   3.234   8.854  10.422  0.0867  0.2109 -0.0077
  365loPI    C2 5826   3.468   8.667  10.687 -0.1110 -0.0230  0.0056
  365loPI    C3 5827   3.133   8.848  10.809 -0.0983  0.0437 -0.0572
  365loPI   PO4 5828   3.441   8.966  10.187 -0.1257 -0.1010 -0.0466
  365loPI   GL1 5829   3.345   9.459   9.956 -0.0220 -0.1372 -0.1478
  365loPI   GL2 5830   3.648   9.536   9.807  0.1300  0.0288  0.1386
  365loPI   C1A 5831   3.150   9.725   9.741  0.2322  0.3676  0.0027
  365loPI   C2A 5832   3.182   9.791   9.262  0.4520 -0.2239 -0.1970
  365loPI   C3A 5833   3.137   9.939   8.835  0.0631  0.4421  0.0633
  365loPI   C4A 5834   3.143   9.858   8.410  0.4389  0.0784  0.1847
  365loPI   C5A 5835   3.088  10.063   7.981  0.0764  0.2290  0.2025
  365loPI   C6A 5836   2.947  10.153   7.576 -0.0382  0.1531  0.1458
  365loPI   C1B 5837   3.677   9.563   9.338 -0.1308  0.0624  0.0544
  365loPI   C2B 5838   3.712   9.731   8.971  0.1004  0.1365  0.1726
  365loPI   C3B 5839   3.632   9.802   8.559  0.0674  0.3103  0.1043
  365loPI   C4B 5840   3.753   9.705   8.152  0.2716  0.0159 -0.2569
  366loPI    C1 5841  15.581   3.996  10.389 -0.0385  0.0391  0.0810
  366loPI    C2 5842  15.971   4.058  10.452 -0.0586  0.2428  0.0109
  366loPI    C3 5843  15.718   4.045  10.761  0.0100  0.0593  0.0604
  366loPI   PO4 5844  15.535   4.040  10.040  0.0032 -0.2213 -0.1410
  366loPI   GL1 5845  15.639   3.960   9.586 -0.0962  0.1019 -0.1836
  366loPI   GL2 5846  15.489   3.595   9.757 -0.3338  0.2345  0.0432
  366loPI   C1A 5847  15.708   3.951   9.132 -0.1171  0.1191 -0.0254
  366loPI   C2A 5848  15.612   3.854   8.695  0.0122  0.2875 -0.0457
  366loPI   C3A 5849  15.451   3.824   8.340  0.2287  0.2161  0.1937
  366loPI   C4A 5850  15.499   4.211   7.985  0.0972  0.2261 -0.1428
  366loPI   C5A 5851  15.387   4.602   7.750  0.0116  0.2375  0.3695
  366loPI   C6A 5852  15.632   4.996   7.748  0.1335 -0.3874 -0.0798
  366loPI   C1B 5853  15.471   3.562   9.378  0.1164 -0.2163 -0.0071
  366loPI   C2B 5854  15.615   3.429   8.860 -0.0773  0.1291 -0.1203
  366loPI   C3B 5855  15.688   3.328   8.444 -0.1212 -0.0278  0.2052
  366loPI   C4B 5856  15.493   3.442   8.058  0.3199  0.0973 -0.0463
  367loPI    C1 5857   6.685   5.067  10.691  0.3134  0.2052 -0.2264
  367loPI    C2 5858   6.757   5.360  10.954  0.1597  0.1250 -0.0935
  367loPI    C3 5859   6.745   4.979  11.076 -0.1438  0.1069 -0.1726
  367loPI   PO4 5860   6.711   5.221  10.436  0.1254  0.0837 -0.1486
  367loPI   GL1 5861   7.014   5.345  10.145  0.0172  0.2057 -0.0017
  367loPI   GL2 5862   7.166   5.550   9.939 -0.1859 -0.1484 -0.3607
  367loPI   C1A 5863   7.311   5.116   9.848 -0.1143  0.2727 -0.0586
  367loPI   C2A 5864   7.322   5.052   9.367 -0.0413  0.1481  0.3298
  367loPI   C3A 5865   7.266   4.849   8.929 -0.2195 -0.0919 -0.2281
  367loPI   C4A 5866   7.261   4.881   8.446  0.1134  0.0593 -0.1621
  367loPI   C5A 5867   7.023   4.768   8.063  0.0851 -0.1293  0.1242
  367loPI   C6A 5868   6.732   4.378   7.994 -0.0266 -0.2315  0.1732
  367loPI   C1B 5869   7.274   5.517   9.554 -0.0803  0.0284 -0.1259
  367loPI   C2B 5870   7.179   5.486   9.176  0.5317  0.1061  0.0564
  367loPI   C3B 5871   7.156   5.330   8.766 -0.1873 -0.0730  0.0055
  367loPI   C4B 5872   7.111   5.346   8.391  0.1266 -0.0920  0.2216
  368loPI    C1 5873   4.780  15.416  10.894 -0.0026 -0.0680 -0.0050
  368loPI    C2 5874   4.524  15.279  10.619 -0.1096 -0.0002  0.0597
  368loPI    C3 5875   4.387  15.412  10.971 -0.0039  0.2289  0.0159
  368loPI   PO4 5876   4.992  15.500  10.807 -0.2073  0.0639  0.1136
  368loPI   GL1 5877   5.195  15.535  10.368 -0.0012 -0.1524 -0.0207
  368loPI   GL2 5878   5.032  15.832  10.369 -0.0143  0.0956 -0.0536
  368loPI   C1A 5879   5.084  15.488   9.935 -0.1008 -0.0409 -0.0166
  368loPI   C2A 5880   5.095  15.507   9.476 -0.0293  0.0671  0.3234
  368loPI   C3A 5881   5.180  15.441   9.143  0.1173 -0.2400  0.2296
  368loPI   C4A 5882   5.168  15.501   8.687  0.0839 -0.0773  0.1405
  368loPI   C5A 5883   4.815  15.411   8.411  0.1544 -0.2060 -0.0989
  368loPI   C6A 5884   4.321  15.518   8.380 -0.1018 -0.1540 -0.1390
  368loPI   C1B 5885   4.991  15.949  10.009  0.0229 -0.1111 -0.0629
  368loPI   C2B 5886   4.917  15.998   9.513  0.0068  0.0549 -0.3263
  368loPI   C3B 5887   5.058  15.945   9.181 -0.0881  0.1100  0.1830
  368loPI   C4B 5888   4.971  15.925   8.773  0.0661 -0.0934 -0.0625
  369loPI    C1 5889  10.552  13.912  10.737  0.0861  0.0415 -0.0290
  369loPI    C2 5890  10.431  13.652  11.016 -0.1182  0.0737 -0.0856
  369loPI    C3 5891  10.609  13.993  11.125  0.0467 -0.0360 -0.0068
  369loPI   PO4 5892  10.399  13.881  10.599 -0.1393 -0.2346 -0.0817
  369loPI   GL1 5893  10.289  13.758  10.200  0.1935 -0.3698 -0.2839
  369loPI   GL2 5894  10.013  13.654  10.202 -0.0302 -0.0025 -0.0241
  369loPI   C1A 5895  10.311  13.811   9.737 -0.2553 -0.2284 -0.1031
  369loPI   C2A 5896  10.221  13.889   9.362  0.1558  0.1171 -0.1310
  369loPI   C3A 5897  10.260  13.978   9.009  0.2010  0.0823 -0.1238
  369loPI   C4A 5898  10.204  14.164   8.627  0.0739 -0.1304 -0.1039
  369loPI   C5A 5899  10.097  14.216   8.277  0.3388 -0.3633  0.0769
  369loPI   C6A 5900   9.845  14.384   7.858  0.3304 -0.0827  0.0698
  369loPI   C1B 5901   9.753  13.599   9.844 -0.0938  0.3079  0.1348
  369loPI   C2B 5902   9.681  13.607   9.441  0.3179  0.1006 -0.0583
  369loPI   C3B 5903   9.851  13.636   9.006  0.2098 -0.0451  0.1455
  369loPI   C4B 5904   9.824  13.848   8.589  0.0920  0.0919 -0.2217
  370loPI    C1 5905   6.647  17.550  10.831 -0.0228  0.0528 -0.0887
  370loPI    C2 5906   6.720  17.651  11.211  0.0390  0.0217 -0.0922
  370loPI    C3 5907   6.961  17.393  11.023 -0.1108 -0.1233 -0.0873
  370loPI   PO4 5908   6.730  17.659  10.656  0.1014 -0.2055 -0.0097
  370loPI   GL1 5909   6.749  17.958  10.419 -0.1942 -0.0073 -0.3025
  370loPI   GL2 5910   6.431  18.082  10.493 -0.0813  0.1295 -0.0134
  370loPI   C1A 5911   6.751  17.800  10.008 -0.3879  0.2266 -0.3792
  370loPI   C2A 5912   6.833  17.731   9.619 -0.0134  0.0651  0.0229
  370loPI   C3A 5913   7.011  17.799   9.186  0.2730  0.0350 -0.3138
  370loPI   C4A 5914   7.021  17.759   8.809 -0.0522  0.1297  0.0693
  370loPI   C5A 5915   6.847  17.835   8.473  0.0885 -0.2975 -0.0719
  370loPI   C6A 5916   6.702  17.918   8.078 -0.1197  0.0520  0.0151
  370loPI   C1B 5917   6.218  17.945  10.092 -0.0452  0.1657 -0.0741
  370loPI   C2B 5918   6.342  17.883   9.751 -0.0237 -0.1340 -0.1111
  370loPI   C3B 5919   6.369  17.878   9.362 -0.0630 -0.4075 -0.0323
  370loPI   C4B 5920   6.541  17.850   8.993  0.1235  0.1183 -0.0859
  371loPI    C1 5921   7.919   9.263  10.424 -0.1936  0.0175 -0.0564
  371loPI    C2 5922   7.746   9.542  10.652 -0.1256 -0.1059  0.1483
  371loPI    C3 5923   7.981   9.264  10.819 -0.1442 -0.2495 -0.0612
  371loPI   PO4 5924   7.765   9.205  10.209 -0.0606  0.1065  0.0110
  371loPI   GL1 5925   7.744   9.197   9.843  0.0280  0.0405 -0.1955
  371loPI   GL2 5926   7.423   9.001   9.878  0.1861  0.0726 -0.1557
  371loPI   C1A 5927   7.737   9.290   9.399  0.0937 -0.3355  0.1479
  371loPI   C2A 5928   7.676   9.251   9.017 -0.0416  0.1325 -0.1094
  371loPI   C3A 5929   7.795   9.132   8.597 -0.2686 -0.1244 -0.1010
  371loPI   C4A 5930   7.702   9.253   8.178  0.1087  0.0744  0.3679
  371loPI   C5A 5931   7.424   9.090   7.723  0.1446  0.0171  0.0374
  371loPI   C6A 5932   7.306   8.712   7.646 -0.2255  0.3217 -0.2876
  371loPI   C1B 5933   7.309   9.000   9.402  0.2100 -0.0538  0.3670
  371loPI   C2B 5934   7.332   8.884   8.964  0.0639  0.3650 -0.4248
  371loPI   C3B 5935   7.391   8.834   8.466  0.1080 -0.2420 -0.0949
  371loPI   C4B 5936   7.211   8.818   8.106 -0.1183 -0.0696  0.1801
  372loPI    C1 5937   2.833   3.571  10.546  0.0345 -0.1018  0.1913
  372loPI    C2 5938   3.080   3.512  10.854 -0.0379 -0.2833  0.2161
  372loPI    C3 5939   2.689   3.566  10.919 -0.0143 -0.0492  0.1733
  372loPI   PO4 5940   2.966   3.703  10.362  0.2495 -0.1351 -0.0877
  372loPI   GL1 5941   3.059   3.918   9.945  0.1606  0.2081  0.1294
  372loPI   GL2 5942   2.801   4.002   9.933  0.1463  0.0648 -0.0476
  372loPI   C1A 5943   3.159   3.862   9.453  0.1733 -0.0163 -0.1422
  372loPI   C2A 5944   3.267   3.816   8.959  0.0919 -0.0969 -0.0805
  372loPI   C3A 5945   3.397   3.778   8.523 -0.2013  0.2196 -0.4417
  372loPI   C4A 5946   3.516   3.840   8.138  0.1745 -0.1631  0.3486
  372loPI   C5A 5947   3.663   3.429   7.810 -0.2959 -0.1888  0.3056
  372loPI   C6A 5948   3.624   3.020   7.855 -0.2368  0.0186  0.1895
  372loPI   C1B 5949   2.717   3.999   9.579  0.1903  0.3450  0.2273
  372loPI   C2B 5950   2.788   3.990   9.137 -0.5074  0.2625 -0.0490
  372loPI   C3B 5951   2.876   4.002   8.716  0.0583 -0.0915 -0.0839
  372loPI   C4B 5952   2.975   3.983   8.285 -0.0950 -0.1176 -0.3130
  373loPI    C1 5953  10.320   1.853  11.004 -0.1089  0.1636  0.0169
  373loPI    C2 5954  10.583   2.025  10.756  0.2185 -0.2394  0.0742
  373loPI    C3 5955  10.601   2.098  11.149  0.0326 -0.0114  0.0423
  373loPI   PO4 5956  10.117   1.867  10.878  0.0309 -0.2628 -0.2153
  373loPI   GL1 5957  10.149   2.001  10.453 -0.2371  0.0013 -0.2788
  373loPI   GL2 5958  10.248   2.199  10.397 -0.0328 -0.1721 -0.0722
  373loPI   C1A 5959  10.153   1.909   9.998 -0.1661  0.3106  0.1043
  373loPI   C2A 5960  10.106   1.989   9.519 -0.1356  0.1924  0.0935
  373loPI   C3A 5961   9.962   2.019   9.111 -0.0857 -0.0562 -0.0851
  373loPI   C4A 5962  10.154   1.971   8.692  0.1382  0.2454 -0.0799
  373loPI   C5A 5963  10.146   1.798   8.276  0.4000  0.0689 -0.1655
  373loPI   C6A 5964  10.505   1.576   8.157  0.1461  0.2119  0.3817
  373loPI   C1B 5965  10.031   2.449  10.066  0.1119 -0.1493  0.2299
  373loPI   C2B 5966  10.059   2.456   9.662  0.0732  0.0553  0.1853
  373loPI   C3B 5967   9.937   2.490   9.141  0.0741  0.0407  0.1077
  373loPI   C4B 5968   9.982   2.482   8.727  0.3543 -0.1093  0.0462
  374loPI    C1 5969  11.152  11.226  10.627 -0.0282  0.1264  0.1251
  374loPI    C2 5970  11.023  11.537  10.843 -0.1896  0.1251  0.0323
  374loPI    C3 5971  10.810  11.198  10.833 -0.1740  0.1193 -0.1144
  374loPI   PO4 5972  11.221  11.321  10.382 -0.0561 -0.0244 -0.4728
  374loPI   GL1 5973  11.526  11.446  10.031  0.2670 -0.0019  0.2610
  374loPI   GL2 5974  11.686  11.143  10.043 -0.0546 -0.2334 -0.0196
  374loPI   C1A 5975  11.890  11.552   9.770 -0.0279  0.0068 -0.1213
  374loPI   C2A 5976  11.892  11.588   9.425 -0.2564 -0.1623 -0.0628
  374loPI   C3A 5977  11.926  11.646   9.009  0.2153  0.0647  0.1113
  374loPI   C4A 5978  11.821  11.680   8.583 -0.0746  0.1910 -0.2993
  374loPI   C5A 5979  11.942  11.402   8.192 -0.0351 -0.0098  0.1878
  374loPI   C6A 5980  11.909  11.388   7.800  0.0845 -0.0785 -0.1766
  374loPI   C1B 5981  11.612  11.135   9.555 -0.3254 -0.0448  0.1136
  374loPI   C2B 5982  11.589  11.296   9.159  0.0226  0.0566  0.0456
  374loPI   C3B 5983  11.537  11.322   8.756 -0.3011 -0.2285  0.0176
  374loPI   C4B 5984  11.474  11.321   8.386 -0.3350  0.5039  0.0974
  375loPI    C1 5985  12.453   6.237  10.238  0.0747  0.1832 -0.0917
  375loPI    C2 5986  12.733   6.470  10.074  0.2410  0.0088 -0.0589
  375loPI    C3 5987  12.608   6.541  10.447  0.2319  0.0950 -0.0782
  375loPI   PO4 5988  12.503   5.894  10.133 -0.0198  0.2068 -0.2063
  375loPI   GL1 5989  12.580   5.594   9.858  0.1080 -0.1617 -0.0004
  375loPI   GL2 5990  12.830   5.553   9.638 -0.3013 -0.4082  0.1533
  375loPI   C1A 5991  12.329   5.589   9.493 -0.1596  0.3058 -0.3043
  375loPI   C2A 5992  12.254   5.440   9.079  0.2418 -0.1679  0.0510
  375loPI   C3A 5993  12.233   5.391   8.713 -0.1337 -0.2530  0.2032
  375loPI   C4A 5994  12.326   5.304   8.357 -0.4091  0.0111 -0.0531
  375loPI   C5A 5995  12.302   5.082   7.910 -0.0016  0.0500 -0.3131
  375loPI   C6A 5996  12.654   5.201   7.624  0.1077  0.4135  0.2763
  375loPI   C1B 5997  12.752   5.668   9.280 -0.2113 -0.0277  0.1622
  375loPI   C2B 5998  12.642   5.689   8.786  0.4328 -0.1304  0.0224
  375loPI   C3B 5999  12.472   5.818   8.371 -0.1026  0.0091  0.3480
  375loPI   C4B 6000  12.138   5.993   8.107  0.1222  0.1904  0.0929
  376loPI    C1 6001   0.633  14.204  11.227 -0.0067  0.1873 -0.0372
  376loPI    C2 6002   0.858  13.910  11.379 -0.2852  0.0356  0.0900
  376loPI    C3 6003   0.683  14.174  11.623 -0.3137  0.1026 -0.0025
  376loPI   PO4 6004   0.793  14.262  10.988  0.3028 -0.0795 -0.0106
  376loPI   GL1 6005   0.896  14.125  10.591  0.1254  0.2169  0.0625
  376loPI   GL2 6006   0.570  14.094  10.391  0.0768 -0.1360 -0.1482
  376loPI   C1A 6007   1.209  14.135  10.298 -0.4223  0.0001  0.2003
  376loPI   C2A 6008   1.104  14.239   9.898 -0.1731 -0.0149 -0.3437
  376loPI   C3A 6009   1.039  14.347   9.492 -0.2161 -0.1225 -0.1143
  376loPI   C4A 6010   1.034  14.280   9.141  0.0241  0.2422  0.0559
  376loPI   C5A 6011   1.151  14.464   8.735 -0.0655  0.0900  0.3106
  376loPI   C6A 6012   1.279  14.730   8.399 -0.2588  0.2275  0.2466
  376loPI   C1B 6013   0.635  14.351  10.079  0.2105 -0.0756  0.1076
  376loPI   C2B 6014   0.577  14.342   9.691  0.6488 -0.2123 -0.1202
  376loPI   C3B 6015   0.574  14.319   9.310  0.0315  0.0150  0.0963
  376loPI   C4B 6016   0.667  14.460   8.887 -0.0719 -0.0239  0.2595
  377loPI    C1 6017   7.612   6.551  10.470 -0.0597  0.1019 -0.1055
  377loPI    C2 6018   7.285   6.679  10.661 -0.1807 -0.0401 -0.2152
  377loPI    C3 6019   7.618   6.899  10.667 -0.1772 -0.0486  0.1692
  377loPI   PO4 6020   7.646   6.246  10.576  0.0252 -0.0176 -0.0254
  377loPI   GL1 6021   7.644   6.021  10.221  0.2374  0.2437 -0.1568
  377loPI   GL2 6022   7.449   5.877  10.138 -0.5535  0.0536  0.0321
  377loPI   C1A 6023   7.899   6.280   9.985 -0.0491 -0.0870  0.2635
  377loPI   C2A 6024   8.108   6.275   9.595  0.0951  0.1751 -0.3705
  377loPI   C3A 6025   7.967   6.142   9.288  0.2037 -0.0657 -0.1886
  377loPI   C4A 6026   8.039   6.158   8.843  0.0887  0.0032 -0.0565
  377loPI   C5A 6027   7.865   5.991   8.465 -0.0265 -0.0066 -0.3415
  377loPI   C6A 6028   7.540   6.214   8.287 -0.2115  0.2641  0.2869
  377loPI   C1B 6029   7.655   5.862   9.698  0.0173 -0.2238  0.2803
  377loPI   C2B 6030   7.613   5.828   9.283  0.3571  0.0055 -0.0920
  377loPI   C3B 6031   7.619   5.719   8.910  0.0856  0.0957 -0.1694
  377loPI   C4B 6032   7.585   5.539   8.456 -0.0080 -0.0464 -0.1031
  378loPI    C1 6033   4.245  10.738  10.544 -0.0048  0.0380 -0.0986
  378loPI    C2 6034   4.564  10.967  10.618 -0.0951  0.1092  0.0759
  378loPI    C3 6035   4.553  10.590  10.751 -0.0011  0.0434 -0.1002
  378loPI   PO4 6036   4.140  10.814  10.287  0.0348  0.1097  0.1170
  378loPI   GL1 6037   4.263  10.726   9.871  0.1189  0.0721  0.1259
  378loPI   GL2 6038   4.601  10.696   9.724  0.0876 -0.1171  0.2789
  378loPI   C1A 6039   4.196  10.852   9.459 -0.0080 -0.0996 -0.0565
  378loPI   C2A 6040   4.235  10.933   9.027  0.0648 -0.2702 -0.1196
  378loPI   C3A 6041   4.281  10.971   8.681 -0.3353  0.3809  0.3424
  378loPI   C4A 6042   4.194  11.026   8.310  0.0012 -0.0113 -0.2884
  378loPI   C5A 6043   4.204  11.016   7.922 -0.1512 -0.1051 -0.1501
  378loPI   C6A 6044   4.069  10.966   7.519 -0.0044 -0.1145  0.2110
  378loPI   C1B 6045   4.649  10.837   9.319 -0.0022 -0.1541 -0.1669
  378loPI   C2B 6046   4.747  10.786   8.879 -0.4207 -0.0661 -0.2003
  378loPI   C3B 6047   4.703  10.783   8.425 -0.1703  0.3176  0.0157
  378loPI   C4B 6048   4.651  10.906   7.992 -0.1154 -0.1458 -0.2244
  379loPI    C1 6049   6.111   1.594  11.358  0.0362 -0.0801  0.0005
  379loPI    C2 6050   5.833   1.465  11.101 -0.2013  0.1762  0.1234
  379loPI    C3 6051   5.724   1.615  11.455  0.1009  0.1956  0.2114
  379loPI   PO4 6052   6.261   1.763  11.160 -0.2203  0.0716 -0.0832
  379loPI   GL1 6053   6.159   1.639  10.682 -0.0991  0.1253 -0.1343
  379loPI   GL2 6054   5.763   1.642  10.583  0.0251  0.1627 -0.0193
  379loPI   C1A 6055   6.355   1.882  10.359 -0.2399  0.3524 -0.0301
  379loPI   C2A 6056   6.372   1.779   9.953  0.1213 -0.1019  0.3719
  379loPI   C3A 6057   6.353   1.816   9.510  0.1210 -0.2194  0.0682
  379loPI   C4A 6058   6.439   1.842   9.110 -0.0382  0.0225  0.0440
  379loPI   C5A 6059   6.529   1.541   8.693 -0.0186 -0.1208  0.1185
  379loPI   C6A 6060   6.290   1.141   8.563  0.1331 -0.0031 -0.0482
  379loPI   C1B 6061   6.082   1.485  10.213  0.1194 -0.0149 -0.0286
  379loPI   C2B 6062   6.124   1.391   9.742 -0.1073  0.0217 -0.2890
  379loPI   C3B 6063   5.997   1.508   9.291 -0.0377 -0.0637 -0.1382
  379loPI   C4B 6064   6.084   1.413   8.921 -0.1640 -0.1489 -0.0234
  380loPI    C1 6065   8.690   1.079  11.059 -0.1355  0.1692  0.0126
  380loPI    C2 6066   8.862   1.019  11.415 -0.2226  0.0291  0.0322
  380loPI    C3 6067   8.698   1.374  11.329  0.2921  0.2492 -0.0800
  380loPI   PO4 6068   8.926   1.078  10.754  0.2029 -0.0357  0.0514
  380loPI   GL1 6069   9.002   0.733  10.465  0.2572 -0.0469  0.1966
  380loPI   GL2 6070   9.335   0.680  10.427  0.1480  0.0362 -0.4341
  380loPI   C1A 6071   8.694   0.742  10.161  0.1571  0.0698 -0.0234
  380loPI   C2A 6072   8.583   0.666   9.656  0.1376 -0.2165 -0.1980
  380loPI   C3A 6073   8.594   0.709   9.179  0.1306 -0.0811 -0.1087
  380loPI   C4A 6074   8.360   0.541   8.895  0.2177  0.0270 -0.3495
  380loPI   C5A 6075   8.282   0.152   8.771 -0.5029  0.0735  0.5772
  380loPI   C6A 6076   8.360  -0.265   8.596 -0.0969  0.2518 -0.1534
  380loPI   C1B 6077   9.114   0.538  10.039 -0.2233  0.1871  0.0978
  380loPI   C2B 6078   9.103   0.549   9.665 -0.0596  0.0641  0.0388
  380loPI   C3B 6079   9.026   0.490   9.294 -0.1727  0.1011  0.1524
  380loPI   C4B 6080   9.231   0.522   8.842  0.0532  0.1913  0.3061
  381loPI    C1 6081  13.381   4.053  10.540 -0.1306  0.1522 -0.2016
  381loPI    C2 6082  13.229   4.189  10.884  0.0021 -0.1566 -0.0161
  381loPI    C3 6083  13.587   4.012  10.880  0.0793 -0.0016 -0.3446
  381loPI   PO4 6084  13.459   4.217  10.385 -0.0536 -0.1066 -0.3540
  381loPI   GL1 6085  13.307   4.340  10.056 -0.3219 -0.0373  0.2857
  381loPI   GL2 6086  13.083   4.218   9.832  0.2210  0.0173 -0.1488
  381loPI   C1A 6087  13.544   4.400   9.631 -0.2231 -0.2082  0.0874
  381loPI   C2A 6088  13.607   4.341   9.179 -0.2411 -0.0993  0.0614
  381loPI   C3A 6089  13.699   4.216   8.712  0.3860  0.1117  0.1277
  381loPI   C4A 6090  13.659   4.048   8.338  0.0668 -0.0849 -0.0870
  381loPI   C5A 6091  13.798   4.025   7.894 -0.0153 -0.1293  0.1681
  381loPI   C6A 6092  14.197   4.164   7.764 -0.0623 -0.2557  0.1783
  381loPI   C1B 6093  13.013   4.217   9.428  0.0041 -0.0345 -0.0214
  381loPI   C2B 6094  13.113   4.214   9.014  0.0377  0.0905  0.0260
  381loPI   C3B 6095  13.269   4.452   8.613 -0.0236  0.0583  0.1454
  381loPI   C4B 6096  13.403   4.481   8.131 -0.1956  0.3276 -0.1178
  382loPI    C1 6097   4.031   5.697  10.602  0.1604 -0.2522 -0.0372
  382loPI    C2 6098   4.277   5.952  10.416 -0.0136  0.0410  0.1259
  382loPI    C3 6099   4.376   5.804  10.774 -0.0535  0.1244  0.1715
  382loPI   PO4 6100   3.970   5.531  10.371 -0.1726  0.3747 -0.1669
  382loPI   GL1 6101   4.108   5.250  10.044 -0.0615 -0.0571  0.1183
  382loPI   GL2 6102   3.969   4.966   9.918 -0.2867 -0.0358  0.1867
  382loPI   C1A 6103   4.252   5.321   9.686 -0.1573  0.1440  0.1593
  382loPI   C2A 6104   4.299   5.401   9.253 -0.0299 -0.1695 -0.0856
  382loPI   C3A 6105   4.394   5.306   8.911 -0.0858 -0.0494 -0.2415
  382loPI   C4A 6106   4.460   5.452   8.479 -0.1116  0.0807  0.1342
  382loPI   C5A 6107   4.371   5.407   8.126  0.0310 -0.1449  0.0921
  382loPI   C6A 6108   4.129   5.145   7.852 -0.1048  0.3723 -0.5465
  382loPI   C1B 6109   3.911   5.053   9.401  0.0965  0.0648 -0.0034
  382loPI   C2B 6110   4.046   5.036   9.033  0.1597  0.0107 -0.2239
  382loPI   C3B 6111   4.051   4.923   8.701 -0.1085 -0.3199  0.3056
  382loPI   C4B 6112   4.058   4.906   8.307 -0.4391 -0.2767 -0.0456
  383loPI    C1 6113  13.858  11.210  10.780  0.1035 -0.0066  0.1725
  383loPI    C2 6114  13.978  10.854  10.918  0.1956  0.0023  0.1162
  383loPI    C3 6115  13.861  11.138  11.174 -0.0225 -0.1190  0.1534
  383loPI   PO4 6116  13.883  11.204  10.494  0.0382 -0.0522  0.0131
  383loPI   GL1 6117  13.759  11.489  10.184  0.2405 -0.0771 -0.0884
  383loPI   GL2 6118  13.977  11.804  10.146 -0.2824 -0.1973 -0.2894
  383loPI   C1A 6119  13.608  11.641   9.811 -0.0143 -0.0145  0.2419
  383loPI   C2A 6120  13.466  11.738   9.404  0.1234  0.0816 -0.1180
  383loPI   C3A 6121  13.398  11.673   9.051  0.1754 -0.1521 -0.1239
  383loPI   C4A 6122  13.179  11.755   8.674 -0.3000 -0.0215  0.1775
  383loPI   C5A 6123  12.949  11.795   8.353 -0.2141  0.1731 -0.2400
  383loPI   C6A 6124  12.872  11.598   7.939  0.1446  0.0755  0.0561
  383loPI   C1B 6125  14.138  11.792   9.790  0.0397 -0.3942 -0.2130
  383loPI   C2B 6126  14.082  11.834   9.269  0.0055 -0.0497 -0.1519
  383loPI   C3B 6127  13.880  11.854   8.916  0.0593 -0.1934 -0.0527
  383loPI   C4B 6128  14.043  11.945   8.548 -0.1243 -0.0151 -0.2312
  384loPI    C1 6129  14.744  10.289  10.104  0.0429  0.1655 -0.0723
  384loPI    C2 6130  14.411  10.478  10.219  0.0074  0.1835 -0.2032
  384loPI    C3 6131  14.396  10.091  10.121  0.0902  0.0963  0.1162
  384loPI   PO4 6132  14.820  10.394   9.975 -0.4302 -0.0101  0.0674
  384loPI   GL1 6133  14.773  10.732   9.639 -0.2138 -0.0658  0.1481
  384loPI   GL2 6134  14.466  10.901   9.774 -0.1227 -0.0786  0.4226
  384loPI   C1A 6135  14.691  10.853   9.254  0.1287 -0.0035 -0.3083
  384loPI   C2A 6136  14.615  11.023   8.906  0.0175 -0.0773 -0.2367
  384loPI   C3A 6137  14.604  11.067   8.463 -0.3079 -0.0035 -0.2332
  384loPI   C4A 6138  14.790  10.792   8.173  0.1702 -0.1421  0.2919
  384loPI   C5A 6139  14.926  10.771   7.815  0.0719 -0.0354 -0.0842
  384loPI   C6A 6140  15.114  10.656   7.428 -0.1218  0.0279  0.3033
  384loPI   C1B 6141  14.151  10.865   9.458 -0.0965 -0.3210  0.1085
  384loPI   C2B 6142  14.150  10.860   9.020  0.2776  0.1163  0.0802
  384loPI   C3B 6143  14.174  10.804   8.562 -0.0213 -0.2074 -0.1358
  384loPI   C4B 6144  14.165  10.768   8.160  0.1306  0.1625 -0.0650
  385loPI    C1 6145   0.004   1.554  10.858 -0.3000 -0.2117 -0.0537
  385loPI    C2 6146  -0.149   1.359  11.172  0.0089 -0.1814  0.1197
  385loPI    C3 6147   0.242   1.334  11.093 -0.0117  0.0720 -0.0734
  385loPI   PO4 6148  -0.083   1.479  10.677  0.3020 -0.0027 -0.2273
  385loPI   GL1 6149   0.028   1.486  10.268  0.5100  0.2994  0.1460
  385loPI   GL2 6150   0.266   1.649  10.139 -0.2286 -0.1576  0.2320
  385loPI   C1A 6151   0.214   1.293   9.828  0.0074  0.1784 -0.0060
  385loPI   C2A 6152   0.330   1.203   9.357  0.1424  0.1237 -0.3306
  385loPI   C3A 6153   0.450   1.118   8.999 -0.1594 -0.1400  0.1232
  385loPI   C4A 6154   0.560   1.226   8.540 -0.0965 -0.1737 -0.0516
  385loPI   C5A 6155   0.460   1.237   8.121  0.0616 -0.1073  0.1657
  385loPI   C6A 6156   0.305   1.357   7.756 -0.0879  0.2584 -0.1187
  385loPI   C1B 6157   0.219   1.796   9.717  0.0522 -0.0797 -0.2281
  385loPI   C2B 6158   0.208   1.759   9.224 -0.0347 -0.2775 -0.0089
  385loPI   C3B 6159   0.290   1.566   8.827 -0.1648  0.0225 -0.2099
  385loPI   C4B 6160   0.356   1.711   8.426 -0.1753 -0.2517 -0.1792
  386loPI    C1 6161   6.984   2.861  11.057  0.1757  0.0944  0.0855
  386loPI    C2 6162   7.215   3.170  11.165 -0.0446  0.2648  0.0779
  386loPI    C3 6163   6.838   3.147  11.296 -0.0019 -0.0528  0.1553
  386loPI   PO4 6164   7.064   2.780  10.770  0.0733  0.0483  0.1803
  386loPI   GL1 6165   6.949   2.887  10.420  0.1149 -0.0299 -0.2002
  386loPI   GL2 6166   6.698   2.704  10.360  0.0162 -0.2011 -0.0160
  386loPI   C1A 6167   7.277   2.669  10.161  0.1983 -0.1526 -0.2347
  386loPI   C2A 6168   7.362   2.519   9.854  0.2231 -0.0382 -0.2443
  386loPI   C3A 6169   7.182   2.565   9.437  0.0523  0.0566  0.0335
  386loPI   C4A 6170   7.184   2.500   8.936  0.3233 -0.0321 -0.1905
  386loPI   C5A 6171   7.290   2.490   8.547  0.3464  0.1954  0.0755
  386loPI   C6A 6172   7.206   2.329   8.062 -0.0419 -0.3075  0.5574
  386loPI   C1B 6173   6.706   2.619   9.981 -0.2035  0.1916 -0.0363
  386loPI   C2B 6174   6.745   2.606   9.601  0.2647 -0.2041  0.1764
  386loPI   C3B 6175   6.691   2.637   9.159  0.1369 -0.2224  0.1742
  386loPI   C4B 6176   6.767   2.740   8.718 -0.0932 -0.0016  0.2410
  387loPI    C1 6177   3.744  15.335  10.615  0.0746  0.2357  0.0205
  387loPI    C2 6178   3.839  15.350  11.003  0.0011  0.1609  0.0418
  387loPI    C3 6179   4.059  15.130  10.751  0.0484  0.2089  0.0410
  387loPI   PO4 6180   3.415  15.402  10.641 -0.0333  0.0910 -0.0162
  387loPI   GL1 6181   3.117  15.499  10.346  0.0712 -0.4533  0.2339
  387loPI   GL2 6182   2.878  15.254  10.333  0.3308  0.0382  0.1794
  387loPI   C1A 6183   3.183  15.513   9.933 -0.0724 -0.0464  0.0005
  387loPI   C2A 6184   3.053  15.573   9.648  0.0476  0.0398  0.1261
  387loPI   C3A 6185   3.068  15.622   9.253 -0.0591 -0.0310 -0.1632
  387loPI   C4A 6186   3.024  15.763   8.798  0.3390 -0.0433  0.5793
  387loPI   C5A 6187   3.229  15.911   8.538 -0.1147  0.0342  0.0016
  387loPI   C6A 6188   3.354  15.953   8.129  0.1486 -0.1359  0.0856
  387loPI   C1B 6189   2.749  15.251   9.905 -0.0827  0.1145 -0.0223
  387loPI   C2B 6190   2.778  15.163   9.458  0.2058 -0.0211 -0.2185
  387loPI   C3B 6191   2.935  15.223   9.057 -0.1133  0.5473  0.1107
  387loPI   C4B 6192   2.788  15.344   8.658 -0.0728 -0.1922  0.0825
  388loPI    C1 6193   1.822  16.375  11.228 -0.0405  0.0754 -0.0520
  388loPI    C2 6194   1.776  16.761  11.320 -0.1254  0.0679 -0.0624
  388loPI    C3 6195   2.142  16.602  11.303 -0.1145  0.0189  0.4692
  388loPI   PO4 6196   1.688  16.334  11.053  0.0612  0.3863 -0.1651
  388loPI   GL1 6197   1.829  16.701  10.836  0.4709  0.0722  0.0356
  388loPI   GL2 6198   2.134  16.437  10.855 -0.0385 -0.1801  0.1664
  388loPI   C1A 6199   1.662  16.653  10.406 -0.1110 -0.0089  0.0382
  388loPI   C2A 6200   1.598  16.654  10.015  0.0898  0.0127 -0.2380
  388loPI   C3A 6201   1.518  16.563   9.597 -0.1097 -0.1021 -0.0037
  388loPI   C4A 6202   1.426  16.531   9.128 -0.0530 -0.2440  0.0068
  388loPI   C5A 6203   1.472  16.458   8.660  0.0039 -0.0757 -0.0355
  388loPI   C6A 6204   1.408  16.740   8.323  0.1293  0.0991 -0.1159
  388loPI   C1B 6205   2.117  16.465  10.405  0.0039 -0.3429 -0.1404
  388loPI   C2B 6206   2.036  16.402   9.863  0.2104  0.0624  0.1417
  388loPI   C3B 6207   2.035  16.293   9.424  0.3636  0.2641 -0.2174
  388loPI   C4B 6208   1.954  16.392   9.069 -0.0794 -0.2717  0.0663
  389loPI    C1 6209   8.830   3.932  11.063 -0.0080  0.1711 -0.1256
  389loPI    C2 6210   8.681   4.279  11.194 -0.0287  0.1109  0.0119
  389loPI    C3 6211   8.934   4.071  11.423  0.0878  0.1002 -0.1257
  389loPI   PO4 6212   8.804   4.003  10.818  0.0271 -0.0347  0.0889
  389loPI   GL1 6213   8.865   3.992  10.386 -0.0657 -0.2790  0.1400
  389loPI   GL2 6214   8.688   3.735  10.424  0.0729  0.1464  0.0608
  389loPI   C1A 6215   8.848   4.097   9.956 -0.1798 -0.0309  0.2572
  389loPI   C2A 6216   8.806   4.071   9.504  0.0977  0.3633  0.0774
  389loPI   C3A 6217   8.732   3.945   9.120  0.0580 -0.1539 -0.2038
  389loPI   C4A 6218   8.850   3.912   8.710  0.0804 -0.0191 -0.1233
  389loPI   C5A 6219   8.900   3.754   8.259 -0.2907  0.1189 -0.0958
  389loPI   C6A 6220   9.031   3.721   7.780  0.0061  0.3309 -0.1528
  389loPI   C1B 6221   8.806   3.537  10.008 -0.1370  0.0057  0.1904
  389loPI   C2B 6222   8.874   3.485   9.557  0.0279  0.0233  0.2130
  389loPI   C3B 6223   8.824   3.446   9.069  0.0194  0.0732  0.0971
  389loPI   C4B 6224   8.878   3.281   8.570 -0.1512 -0.0118 -0.0620
  390loPI    C1 6225   5.301   1.834  11.072 -0.0768 -0.1438  0.1530
  390loPI    C2 6226   5.502   2.117  11.269 -0.2212  0.0325  0.0501
  390loPI    C3 6227   5.165   1.968  11.423 -0.0075 -0.2765  0.2317
  390loPI   PO4 6228   5.394   1.934  10.799 -0.0643 -0.1748 -0.0242
  390loPI   GL1 6229   5.192   2.102  10.420 -0.2641 -0.1409  0.1272
  390loPI   GL2 6230   5.257   2.386  10.504  0.0819  0.1688 -0.0122
  390loPI   C1A 6231   5.368   1.750  10.017 -0.1104  0.1601  0.0438
  390loPI   C2A 6232   5.472   1.713   9.536 -0.1801 -0.1632 -0.0507
  390loPI   C3A 6233   5.568   1.649   9.147 -0.1476  0.2587 -0.1705
  390loPI   C4A 6234   5.632   1.559   8.761 -0.1184 -0.3137 -0.1203
  390loPI   C5A 6235   5.761   1.833   8.433  0.1625  0.1297 -0.1642
  390loPI   C6A 6236   5.504   1.927   8.109 -0.1410 -0.3550 -0.1100
  390loPI   C1B 6237   5.441   2.279  10.076 -0.0516 -0.1503 -0.1744
  390loPI   C2B 6238   5.438   2.193   9.590  0.0252 -0.0602 -0.1952
  390loPI   C3B 6239   5.457   2.105   9.187  0.0425 -0.3446 -0.1782
  390loPI   C4B 6240   5.500   2.097   8.768  0.0789 -0.0553  0.1682
  391loPI    C1 6241  15.588  13.935  11.237  0.1400  0.0052  0.0235
  391loPI    C2 6242  15.505  13.611  11.457 -0.3138  0.0025 -0.1399
  391loPI    C3 6243  15.560  13.965  11.634 -0.3257 -0.0659  0.0016
  391loPI   PO4 6244  15.424  13.979  11.043 -0.0374  0.1526 -0.0922
  391loPI   GL1 6245  15.504  13.925  10.576  0.0561  0.0665  0.1953
  391loPI   GL2 6246  15.200  14.155  10.565 -0.1657  0.0775  0.2030
  391loPI   C1A 6247  15.463  13.774  10.135  0.1391  0.0809 -0.2107
  391loPI   C2A 6248  15.393  13.765   9.748 -0.2713  0.0546  0.1374
  391loPI   C3A 6249  15.362  13.799   9.362 -0.0628 -0.0398 -0.0095
  391loPI   C4A 6250  15.344  13.835   8.980 -0.1838  0.2134 -0.0712
  391loPI   C5A 6251  15.547  13.946   8.659 -0.0172  0.0504 -0.1873
  391loPI   C6A 6252  15.815  13.663   8.450 -0.1134 -0.1439  0.1052
  391loPI   C1B 6253  15.331  14.223  10.122  0.2161 -0.1189 -0.2177
  391loPI   C2B 6254  15.313  14.240   9.734  0.0357 -0.0972  0.1882
  391loPI   C3B 6255  15.191  14.387   9.204  0.2863  0.0978 -0.0065
  391loPI   C4B 6256  15.336  14.641   8.767 -0.1566 -0.0089  0.0838
  392loPI    C1 6257  10.469   5.043  10.832  0.0886 -0.0970 -0.1848
  392loPI    C2 6258  10.831   4.874  10.817  0.2441  0.2203 -0.1052
  392loPI    C3 6259  10.633   4.892  11.164  0.1401  0.0279 -0.1528
  392loPI   PO4 6260  10.328   4.935  10.650  0.2631 -0.5308  0.3782
  392loPI   GL1 6261  10.178   4.810  10.152 -0.0040  0.0597 -0.1136
  392loPI   GL2 6262  10.058   5.145  10.130 -0.1923 -0.2565 -0.0566
  392loPI   C1A 6263   9.780   4.719  10.032  0.0743  0.0124  0.3361
  392loPI   C2A 6264   9.626   4.706   9.562 -0.1522  0.0327 -0.0312
  392loPI   C3A 6265   9.624   4.649   9.138 -0.2229 -0.0047  0.0615
  392loPI   C4A 6266   9.609   4.541   8.658  0.3355 -0.0627 -0.0386
  392loPI   C5A 6267   9.719   4.338   8.330 -0.3174 -0.2520  0.1761
  392loPI   C6A 6268   9.800   3.965   8.162 -0.2159 -0.0832 -0.5924
  392loPI   C1B 6269  10.175   4.996   9.714 -0.0705 -0.2402 -0.0067
  392loPI   C2B 6270  10.037   4.955   9.238 -0.2525 -0.0277  0.2186
  392loPI   C3B 6271  10.002   4.870   8.792 -0.2696 -0.0219 -0.0193
  392loPI   C4B 6272   9.935   4.778   8.334  0.0239 -0.0697 -0.0810
  393loPI    C1 6273  11.416   0.169  10.954 -0.2263 -0.1824  0.0883
  393loPI    C2 6274  11.677  -0.011  11.197 -0.0691 -0.0413  0.0253
  393loPI    C3 6275  11.680  -0.092  10.806  0.1689  0.2770 -0.0438
  393loPI   PO4 6276  11.141   0.135  11.059 -0.1999  0.2132  0.1500
  393loPI   GL1 6277  10.693   0.030  10.895 -0.0383  0.4040  0.0711
  393loPI   GL2 6278  10.456  -0.039  10.716 -0.2014 -0.3291  0.2986
  393loPI   C1A 6279  10.809   0.068  10.457  0.0874  0.0286  0.3386
  393loPI   C2A 6280  10.766   0.157  10.095  0.1337  0.0627  0.3008
  393loPI   C3A 6281  10.673   0.109   9.625  0.3013 -0.0784 -0.0159
  393loPI   C4A 6282  10.605   0.072   9.182  0.1106  0.2181 -0.1343
  393loPI   C5A 6283  10.480   0.255   8.801 -0.0349  0.1295  0.2948
  393loPI   C6A 6284  10.157   0.329   8.706  0.2204  0.0173  0.1185
  393loPI   C1B 6285  10.396  -0.314  10.365  0.3107  0.0795  0.2969
  393loPI   C2B 6286  10.399  -0.283   9.849  0.2378 -0.3777  0.0096
  393loPI   C3B 6287  10.214  -0.220   9.445  0.0269  0.2291  0.0838
  393loPI   C4B 6288  10.299  -0.277   8.992 -0.0868  0.1941  0.0261
  394loPI    C1 6289  14.785   9.269  10.289 -0.2225 -0.1059 -0.3667
  394loPI    C2 6290  14.793   8.883  10.393 -0.1157 -0.0627 -0.2098
  394loPI    C3 6291  14.530   9.131  10.565 -0.1470 -0.0541 -0.2700
  394loPI   PO4 6292  14.918   9.245  10.065  0.1638  0.0252 -0.0666
  394loPI   GL1 6293  14.947   9.459   9.683  0.1227 -0.0771  0.3133
  394loPI   GL2 6294  15.150   9.742   9.668  0.1830 -0.1480 -0.2766
  394loPI   C1A 6295  15.000   9.456   9.216 -0.2572  0.1510  0.0796
  394loPI   C2A 6296  14.988   9.450   8.703  0.0429 -0.0614  0.2496
  394loPI   C3A 6297  14.679   9.612   8.386 -0.0653 -0.0846 -0.0530
  394loPI   C4A 6298  14.388   9.576   8.093  0.2727  0.1829 -0.1906
  394loPI   C5A 6299  14.151   9.495   7.827  0.1005  0.1425 -0.3981
  394loPI   C6A 6300  13.865   9.220   7.660  0.1768 -0.0022 -0.0248
  394loPI   C1B 6301  15.273   9.845   9.222 -0.0108 -0.0715  0.0583
  394loPI   C2B 6302  15.372   9.693   8.828  0.0724  0.0229 -0.4688
  394loPI   C3B 6303  15.196   9.657   8.321  0.1976  0.2264  0.1657
  394loPI   C4B 6304  14.925   9.746   7.980 -0.0533 -0.0628  0.0628
  395loPI    C1 6305  15.660   6.790   9.884  0.0870  0.0880 -0.3491
  395loPI    C2 6306  16.010   6.637  10.001  0.0119  0.0808 -0.1294
  395loPI    C3 6307  15.881   6.982  10.156 -0.1105  0.0485 -0.1576
  395loPI   PO4 6308  15.606   6.748   9.613  0.0703 -0.0817 -0.1776
  395loPI   GL1 6309  15.795   6.780   9.301  0.1185 -0.2201 -0.0444
  395loPI   GL2 6310  16.049   6.570   9.406  0.0777  0.3950  0.2034
  395loPI   C1A 6311  15.699   6.780   8.912  0.0737 -0.0821  0.1211
  395loPI   C2A 6312  15.721   6.868   8.454  0.1425  0.0656  0.0780
  395loPI   C3A 6313  15.701   7.060   8.152  0.2239 -0.1968 -0.0893
  395loPI   C4A 6314  15.388   7.240   7.812 -0.2353  0.0799  0.0661
  395loPI   C5A 6315  15.179   7.474   7.533 -0.1030 -0.0684 -0.0061
  395loPI   C6A 6316  15.119   7.790   7.324 -0.2181  0.0740 -0.4196
  395loPI   C1B 6317  16.112   6.421   8.962  0.0502 -0.2501 -0.0795
  395loPI   C2B 6318  16.155   6.201   8.564  0.1997  0.4905 -0.0573
  395loPI   C3B 6319  16.036   5.993   8.312 -0.1368  0.1058  0.1161
  395loPI   C4B 6320  15.731   5.949   8.036  0.0914  0.1118  0.0336
  396loPI    C1 6321   1.167  14.611  11.161 -0.4929  0.2367  0.0370
  396loPI    C2 6322   1.201  14.742  11.538  0.1752  0.1491  0.0188
  396loPI    C3 6323   1.193  14.349  11.462 -0.1623  0.1661 -0.0495
  396loPI   PO4 6324   1.351  14.722  11.045  0.0354 -0.1480  0.1218
  396loPI   GL1 6325   1.501  14.682  10.648  0.0507 -0.3226  0.2422
  396loPI   GL2 6326   1.495  14.371  10.634  0.1958  0.1585 -0.1423
  396loPI   C1A 6327   1.438  14.961  10.324 -0.4168 -0.1402  0.0171
  396loPI   C2A 6328   1.337  15.194  10.014 -0.2524  0.0658 -0.0079
  396loPI   C3A 6329   1.368  15.192   9.590  0.2852  0.1802  0.0295
  396loPI   C4A 6330   1.360  15.081   9.192 -0.2267 -0.0134 -0.1333
  396loPI   C5A 6331   1.168  15.072   8.853 -0.0916 -0.2368 -0.0848
  396loPI   C6A 6332   0.848  14.872   8.648 -0.3377 -0.0812 -0.3397
  396loPI   C1B 6333   1.519  14.512  10.123 -0.0765  0.1007  0.0103
  396loPI   C2B 6334   1.453  14.586   9.679  0.0110  0.3093 -0.0883
  396loPI   C3B 6335   1.418  14.631   9.221  0.2779  0.0552  0.2316
  396loPI   C4B 6336   1.586  14.777   8.842  0.0027  0.2446 -0.3086
  397loPI    C1 6337  15.794  15.108  11.209  0.0971 -0.0999  0.0598
  397loPI    C2 6338  15.760  15.505  11.180  0.3276 -0.0956 -0.1935
  397loPI    C3 6339  15.532  15.303  11.439  0.2537  0.2075 -0.0172
  397loPI   PO4 6340  15.856  15.099  10.940 -0.1841  0.2529 -0.2243
  397loPI   GL1 6341  15.928  14.868  10.594 -0.3520 -0.0124  0.0189
  397loPI   GL2 6342  16.093  14.544  10.585  0.0213 -0.0535 -0.1760
  397loPI   C1A 6343  16.144  14.919  10.264  0.1258  0.0416 -0.0023
  397loPI   C2A 6344  16.152  15.055   9.782 -0.1667 -0.0607  0.0754
  397loPI   C3A 6345  16.049  15.022   9.456 -0.0215  0.0045  0.1740
  397loPI   C4A 6346  16.057  15.148   8.974  0.1327  0.1547  0.4585
  397loPI   C5A 6347  15.777  15.375   8.704 -0.1818 -0.2369  0.0982
  397loPI   C6A 6348  15.626  15.804   8.614  0.0817 -0.3127  0.1276
  397loPI   C1B 6349  16.266  14.439  10.182  0.1529  0.0071  0.0894
  397loPI   C2B 6350  16.264  14.422   9.783 -0.1119 -0.0490 -0.2316
  397loPI   C3B 6351  16.172  14.490   9.332 -0.0825  0.1548 -0.1041
  397loPI   C4B 6352  16.213  14.615   8.945 -0.2494  0.1602 -0.1122
  398loPI    C1 6353   8.319  12.208  10.696 -0.0658  0.5077  0.0119
  398loPI    C2 6354   8.665  12.017  10.754 -0.1066  0.3442 -0.2639
  398loPI    C3 6355   8.478  12.189  11.062 -0.0821 -0.0848 -0.0015
  398loPI   PO4 6356   8.230  12.116  10.437  0.0868  0.0117 -0.2660
  398loPI   GL1 6357   8.556  11.917  10.109  0.2498  0.0079 -0.2315
  398loPI   GL2 6358   8.712  11.623   9.945 -0.2220  0.0465  0.2574
  398loPI   C1A 6359   8.737  12.102   9.757  0.0191  0.0290 -0.1086
  398loPI   C2A 6360   8.767  12.087   9.260  0.1065  0.0361  0.2214
  398loPI   C3A 6361   8.664  11.886   8.924 -0.3880  0.0688 -0.3336
  398loPI   C4A 6362   8.445  11.851   8.618  0.1555  0.1282 -0.3240
  398loPI   C5A 6363   8.449  11.408   8.275 -0.1559 -0.0329 -0.0652
  398loPI   C6A 6364   8.225  11.219   7.995  0.1495  0.0718 -0.1030
  398loPI   C1B 6365   8.681  11.566   9.532  0.3700 -0.0801  0.1526
  398loPI   C2B 6366   8.495  11.454   9.114 -0.1350  0.3238  0.1334
  398loPI   C3B 6367   8.721  11.379   8.730  0.1454  0.1470 -0.0142
  398loPI   C4B 6368   8.936  11.496   8.453  0.0607  0.2024  0.0049
  399loPI    C1 6369  17.820  11.728  10.636  0.0225  0.0463  0.0068
  399loPI    C2 6370  17.433  11.819  10.592 -0.0077 -0.0839  0.0007
  399loPI    C3 6371  17.645  11.985  10.888 -0.0933 -0.0893  0.0654
  399loPI   PO4 6372  17.957  11.803  10.447  0.0620 -0.0699 -0.1626
  399loPI   GL1 6373  18.010  12.005  10.158 -0.2525  0.0710  0.1672
  399loPI   GL2 6374  18.117  12.396  10.123 -0.1549  0.1466  0.1833
  399loPI   C1A 6375  18.130  11.909   9.736  0.1387 -0.1050  0.3489
  399loPI   C2A 6376  18.259  12.016   9.257 -0.1018  0.0998 -0.0892
  399loPI   C3A 6377  18.264  12.104   8.898 -0.0243  0.0206 -0.0122
  399loPI   C4A 6378  18.106  12.296   8.427 -0.1524  0.3095  0.3554
  399loPI   C5A 6379  17.903  12.477   8.022 -0.2000  0.2619 -0.0120
  399loPI   C6A 6380  17.923  12.617   7.589  0.0201  0.0271  0.0924
  399loPI   C1B 6381  18.098  12.497   9.702 -0.2560 -0.0433 -0.1477
  399loPI   C2B 6382  18.138  12.529   9.302 -0.0188  0.2422 -0.2427
  399loPI   C3B 6383  18.119  12.610   8.920  0.0043  0.0376  0.4648
  399loPI   C4B 6384  18.163  12.783   8.485 -0.2385  0.0106 -0.0961
  400loPI    C1 6385   3.128   6.879  10.304 -0.1702 -0.1026 -0.0895
  400loPI    C2 6386   2.919   6.593  10.490  0.0858 -0.3455 -0.1678
  400loPI    C3 6387   3.307   6.642  10.572  0.0307  0.0234 -0.1102
  400loPI   PO4 6388   3.145   6.863  10.061  0.0696  0.2777 -0.2067
  400loPI   GL1 6389   3.243   6.544   9.712 -0.1345  0.0755  0.0865
  400loPI   GL2 6390   3.483   6.688   9.689 -0.1062  0.0454  0.2157
  400loPI   C1A 6391   3.064   6.304   9.363  0.0982  0.2025 -0.1957
  400loPI   C2A 6392   3.157   6.282   8.962  0.1719 -0.3618 -0.1113
  400loPI   C3A 6393   3.392   6.198   8.607  0.1063  0.1429  0.2190
  400loPI   C4A 6394   3.499   6.080   8.185 -0.0221  0.2125  0.0435
  400loPI   C5A 6395   3.580   6.439   8.104  0.0619  0.1043 -0.0598
  400loPI   C6A 6396   3.458   7.003   8.149  0.3303  0.2521 -0.0545
  400loPI   C1B 6397   3.581   6.603   9.295 -0.0888  0.0994 -0.1644
  400loPI   C2B 6398   3.545   6.634   8.801  0.2641  0.0077 -0.1437
  400loPI   C3B 6399   3.831   6.512   8.551 -0.1512  0.0941  0.1162
  400loPI   C4B 6400   4.029   6.296   8.159  0.0379  0.1568 -0.1221
  401loPI    C1 6401  13.872  13.106  10.999 -0.2107 -0.0102 -0.1720
  401loPI    C2 6402  14.221  13.027  10.820 -0.1202  0.1069 -0.0503
  401loPI    C3 6403  14.142  12.871  11.179 -0.0913  0.2762  0.0302
  401loPI   PO4 6404  13.737  13.192  10.744 -0.0909 -0.1394 -0.1801
  401loPI   GL1 6405  13.936  13.056  10.369 -0.1220  0.0388  0.1737
  401loPI   GL2 6406  14.161  13.220  10.324 -0.2216  0.0859 -0.0664
  401loPI   C1A 6407  13.643  13.270  10.026  0.0809  0.1262 -0.0622
  401loPI   C2A 6408  13.697  13.366   9.639 -0.2515  0.2379 -0.0591
  401loPI   C3A 6409  13.634  13.425   9.321  0.0681  0.0134  0.0566
  401loPI   C4A 6410  13.565  13.333   8.900 -0.3963  0.1784 -0.1548
  401loPI   C5A 6411  13.652  13.507   8.540  0.1356  0.1031 -0.0298
  401loPI   C6A 6412  13.899  13.348   8.199  0.0787  0.1955  0.0932
  401loPI   C1B 6413  14.127  13.095   9.911  0.0513 -0.0996  0.1890
  401loPI   C2B 6414  14.079  13.208   9.437  0.1513 -0.2095 -0.0264
  401loPI   C3B 6415  14.099  13.334   9.032 -0.4862 -0.1876  0.0591
  401loPI   C4B 6416  14.136  13.461   8.620 -0.2080  0.2072 -0.0939
  402loPI    C1 6417   2.441  13.453  10.945 -0.2878 -0.0715  0.0569
  402loPI    C2 6418   2.171  13.378  11.231 -0.1709  0.2878  0.2683
  402loPI    C3 6419   2.480  13.620  11.306  0.2300 -0.1354  0.0372
  402loPI   PO4 6420   2.310  13.291  10.752  0.2616  0.0656  0.1940
  402loPI   GL1 6421   2.401  13.178  10.325 -0.1187  0.0587  0.2045
  402loPI   GL2 6422   2.222  13.050  10.111  0.2069  0.0120  0.1215
  402loPI   C1A 6423   2.311  13.478   9.973  0.2989  0.0893  0.3229
  402loPI   C2A 6424   2.242  13.502   9.493  0.1362 -0.1412 -0.0952
  402loPI   C3A 6425   2.329  13.509   9.080  0.1587 -0.1124  0.2276
  402loPI   C4A 6426   2.207  13.393   8.658 -0.1822 -0.2055  0.0871
  402loPI   C5A 6427   2.040  13.399   8.342 -0.0185 -0.0822 -0.1843
  402loPI   C6A 6428   1.915  13.070   8.066  0.1162 -0.3608  0.1130
  402loPI   C1B 6429   2.323  13.052   9.662 -0.0795 -0.0483  0.0218
  402loPI   C2B 6430   2.337  13.028   9.175 -0.0537 -0.0832 -0.0605
  402loPI   C3B 6431   2.385  12.952   8.782  0.2902 -0.0443  0.2186
  402loPI   C4B 6432   2.271  12.937   8.413 -0.0594 -0.3084  0.1250
  403loPI    C1 6433  12.204   9.252  10.872 -0.2747  0.0347  0.1925
  403loPI    C2 6434  12.515   9.147  11.101 -0.0952 -0.0877 -0.1017
  403loPI    C3 6435  12.216   9.364  11.256  0.2037  0.1545  0.1481
  403loPI   PO4 6436  12.240   9.283  10.649  0.3382  0.2433 -0.1355
  403loPI   GL1 6437  12.082   9.207  10.228  0.1822  0.2820  0.1974
  403loPI   GL2 6438  11.782   9.422  10.101  0.0678 -0.1497 -0.1265
  403loPI   C1A 6439  12.227   9.308   9.795 -0.0797  0.0934  0.0157
  403loPI   C2A 6440  12.261   9.522   9.440 -0.0125  0.1821 -0.0296
  403loPI   C3A 6441  12.228   9.565   9.033 -0.3438  0.1033 -0.4876
  403loPI   C4A 6442  12.279   9.543   8.633 -0.0040  0.1998  0.3631
  403loPI   C5A 6443  12.281   9.601   8.171 -0.0417  0.2260  0.0437
  403loPI   C6A 6444  12.556   9.796   7.824 -0.0955  0.0822  0.3427
  403loPI   C1B 6445  11.765   9.559   9.759 -0.2081  0.0408 -0.0525
  403loPI   C2B 6446  11.807   9.670   9.403  0.4042  0.0280 -0.0593
  403loPI   C3B 6447  11.792   9.800   8.913  0.0482 -0.0351 -0.1787
  403loPI   C4B 6448  11.755   9.666   8.518  0.0182  0.0634  0.0338
  404loPI    C1 6449  12.895  13.286  10.954  0.1058  0.2870 -0.1245
  404loPI    C2 6450  12.498  13.289  11.001  0.0958  0.0434 -0.1772
  404loPI    C3 6451  12.737  13.308  11.321  0.0404  0.0054 -0.1334
  404loPI   PO4 6452  12.857  13.478  10.647  0.3508 -0.0049  0.1001
  404loPI   GL1 6453  13.024  13.732  10.306 -0.1144  0.2871 -0.1383
  404loPI   GL2 6454  13.245  13.461  10.223  0.5238 -0.0009  0.0862
  404loPI   C1A 6455  12.953  13.875   9.922  0.0915  0.2574  0.0953
  404loPI   C2A 6456  13.113  14.003   9.464  0.1705 -0.1652  0.0667
  404loPI   C3A 6457  13.035  14.139   9.030 -0.1902  0.0361 -0.0174
  404loPI   C4A 6458  13.061  14.133   8.603 -0.0058 -0.0272  0.1078
  404loPI   C5A 6459  12.824  14.027   8.310  0.1393  0.1672 -0.0992
  404loPI   C6A 6460  12.486  13.991   8.016 -0.1718  0.4510  0.0054
  404loPI   C1B 6461  13.224  13.499   9.691  0.0903 -0.0550 -0.0677
  404loPI   C2B 6462  13.152  13.527   9.306  0.1180 -0.3051 -0.0086
  404loPI   C3B 6463  13.167  13.705   8.901  0.1100  0.1492  0.0850
  404loPI   C4B 6464  13.098  13.662   8.531  0.1683  0.3053 -0.1082
  405loPI    C1 6465   3.697   8.290  10.187  0.1889 -0.0647  0.0640
  405loPI    C2 6466   3.621   8.197  10.569 -0.0497 -0.2087 -0.0161
  405loPI    C3 6467   3.997   8.190  10.432  0.0359 -0.1657  0.2126
  405loPI   PO4 6468   3.514   8.470  10.156 -0.1083  0.2729 -0.0689
  405loPI   GL1 6469   3.211   8.582   9.861  0.0545 -0.0104  0.0546
  405loPI   GL2 6470   2.960   8.474   9.570  0.0586 -0.1194 -0.0543
  405loPI   C1A 6471   3.409   8.683   9.428  0.1141 -0.3934  0.3891
  405loPI   C2A 6472   3.587   8.676   8.966  0.0594 -0.1356 -0.0004
  405loPI   C3A 6473   3.587   8.873   8.508 -0.1202  0.3473  0.1477
  405loPI   C4A 6474   3.505   9.011   8.073  0.2181  0.0315  0.0494
  405loPI   C5A 6475   3.669   9.181   7.650  0.2860 -0.1635  0.1870
  405loPI   C6A 6476   3.889   9.266   7.282  0.2736 -0.1724 -0.1352
  405loPI   C1B 6477   2.796   8.457   9.149 -0.2096 -0.0315 -0.0689
  405loPI   C2B 6478   2.797   8.530   8.666  0.2133  0.0916 -0.0471
  405loPI   C3B 6479   2.633   8.562   8.238 -0.2884 -0.2617 -0.3441
  405loPI   C4B 6480   2.469   8.672   7.776 -0.0740 -0.0471  0.1794
  406POPI    C1 6481   0.616   8.972  10.207 -0.0316 -0.0711  0.1574
  406POPI    C2 6482   0.707   8.694  10.480  0.0271  0.0266  0.2380
  406POPI    C3 6483   0.975   8.975  10.383  0.0530 -0.0811 -0.0122
  406POPI   PO4 6484   0.631   8.845   9.958  0.0165 -0.2091 -0.0863
  406POPI   GL1 6485   0.439   8.786   9.474 -0.1536 -0.0497 -0.1611
  406POPI   GL2 6486   0.574   8.956   9.360 -0.0469 -0.1043 -0.0062
  406POPI   C1A 6487   0.551   8.584   9.073 -0.2983 -0.0626 -0.0425
  406POPI   D2A 6488   0.425   8.537   8.760 -0.1943  0.2463 -0.0709
  406POPI   C3A 6489   0.363   8.450   8.306 -0.0646  0.2746  0.0923
  406POPI   C4A 6490   0.222   8.394   7.892  0.1276  0.0828  0.1749
  406POPI   C1B 6491   0.298   9.032   9.004  0.0915  0.1100 -0.0991
  406POPI   C2B 6492   0.426   9.086   8.618  0.0095  0.1011 -0.0258
  406POPI   C3B 6493   0.264   9.023   8.365  0.0513  0.1398  0.2495
  406POPI   C4B 6494   0.107   8.916   7.988  0.1780 -0.0747  0.0176
  407POPI    C1 6495  16.358   6.045  10.069 -0.4003 -0.2992 -0.0046
  407POPI    C2 6496  16.314   6.347  10.327 -0.2182 -0.1363 -0.1615
  407POPI    C3 6497  16.200   5.978  10.430 -0.1420 -0.0745  0.1535
  407POPI   PO4 6498  16.247   6.135   9.713  0.1221  0.1947  0.0446
  407POPI   GL1 6499  16.100   6.036   9.294 -0.2477 -0.4249  0.1681
  407POPI   GL2 6500  15.911   5.861   9.494 -0.1460 -0.1181 -0.2016
  407POPI   C1A 6501  15.979   5.793   8.886 -0.2456  0.2224 -0.0158
  407POPI   D2A 6502  16.030   5.590   8.572  0.3454  0.1589  0.1783
  407POPI   C3A 6503  15.704   5.366   8.263 -0.0085 -0.0944 -0.1503
  407POPI   C4A 6504  15.439   5.415   8.003  0.1484 -0.0205 -0.2162
  407POPI   C1B 6505  15.555   5.813   9.260  0.1164  0.0765  0.2694
  407POPI   C2B 6506  15.216   5.779   8.948 -0.0492 -0.1687 -0.1864
  407POPI   C3B 6507  15.045   5.934   8.546  0.0127  0.1653  0.4716
  407POPI   C4B 6508  15.169   5.887   8.137 -0.0271 -0.0326  0.0487
  408POPI    C1 6509  17.813   4.238  10.303 -0.0294  0.2886  0.0666
  408POPI    C2 6510  17.665   3.893  10.441  0.1267  0.0892 -0.2542
  408POPI    C3 6511  17.427   4.211  10.403 -0.0323  0.0015 -0.0127
  408POPI   PO4 6512  17.882   4.165  10.028  0.2355 -0.0794  0.3085
  408POPI   GL1 6513  17.823   4.081   9.548  0.1121  0.0143 -0.1863
  408POPI   GL2 6514  17.802   4.364   9.570  0.1320 -0.4080  0.0248
  408POPI   C1A 6515  17.558   3.841   9.330  0.2151  0.0909  0.1510
  408POPI   D2A 6516  17.283   3.796   8.988  0.1390 -0.3180 -0.1296
  408POPI   C3A 6517  17.379   3.812   8.505  0.0920  0.1722 -0.1783
  408POPI   C4A 6518  17.467   4.018   8.073 -0.1973 -0.3728  0.0835
  408POPI   C1B 6519  17.783   4.224   9.103  0.0127  0.1065  0.0961
  408POPI   C2B 6520  17.750   4.277   8.645 -0.1542 -0.2282  0.1780
  408POPI   C3B 6521  17.826   4.359   8.277  0.2841  0.0028  0.0511
  408POPI   C4B 6522  17.834   4.395   7.846 -0.0977  0.0309 -0.2384
  409POPI    C1 6523  14.092  16.632  11.141  0.0260  0.0279 -0.0791
  409POPI    C2 6524  13.761  16.481  11.304  0.0841 -0.0607 -0.0426
  409POPI    C3 6525  13.871  16.856  11.387 -0.1276  0.0453 -0.2313
  409POPI   PO4 6526  14.103  16.571  10.881  0.0623 -0.1291 -0.0840
  409POPI   GL1 6527  14.166  16.549  10.455 -0.1047  0.1297 -0.3271
  409POPI   GL2 6528  13.837  16.646  10.440  0.0048 -0.1920  0.1300
  409POPI   C1A 6529  14.271  16.304  10.135  0.3452  0.0907  0.3280
  409POPI   D2A 6530  14.294  16.425   9.690  0.0691  0.0711  0.0379
  409POPI   C3A 6531  14.279  16.509   9.269  0.3099  0.1860 -0.0730
  409POPI   C4A 6532  14.323  16.578   8.845  0.1471  0.0610 -0.3519
  409POPI   C1B 6533  13.847  16.554   9.949  0.3148 -0.0183 -0.1332
  409POPI   C2B 6534  13.796  16.548   9.524  0.0489 -0.2095 -0.2836
  409POPI   C3B 6535  13.833  16.697   9.155 -0.1347  0.2891  0.1394
  409POPI   C4B 6536  13.827  16.707   8.717 -0.0875  0.0477  0.0282
  410POPI    C1 6537  13.590  17.780  11.109  0.1434  0.0551  0.0939
  410POPI    C2 6538  13.608  18.051  11.403  0.0724 -0.1189  0.2608
  410POPI    C3 6539  13.368  17.732  11.439 -0.2512  0.0668 -0.1628
  410POPI   PO4 6540  13.865  17.614  11.003 -0.1080  0.0586  0.0354
  410POPI   GL1 6541  13.859  17.445  10.605 -0.3742  0.2713 -0.1261
  410POPI   GL2 6542  13.635  17.148  10.417  0.0338 -0.1417  0.1248
  410POPI   C1A 6543  14.122  17.433  10.166 -0.0395 -0.1381 -0.1921
  410POPI   D2A 6544  14.167  17.461   9.756  0.0869  0.0484 -0.0040
  410POPI   C3A 6545  14.112  17.462   9.460 -0.1280 -0.0252  0.0283
  410POPI   C4A 6546  14.123  17.562   9.056  0.0548 -0.2224  0.2202
  410POPI   C1B 6547  13.694  17.042   9.901  0.1663  0.2485  0.1657
  410POPI   C2B 6548  13.728  17.116   9.391 -0.2317 -0.3871  0.0361
  410POPI   C3B 6549  13.629  17.143   8.904 -0.1137 -0.1190  0.1359
  410POPI   C4B 6550  13.543  16.991   8.392 -0.0591 -0.2400 -0.1789
  411POPI    C1 6551   5.729  12.698  10.893  0.1343  0.1632 -0.1163
  411POPI    C2 6552   5.472  12.989  10.990 -0.0936 -0.0299 -0.1304
  411POPI    C3 6553   5.417  12.619  11.130  0.0375 -0.1291 -0.3357
  411POPI   PO4 6554   5.820  12.792  10.617  0.3769  0.0369 -0.1931
  411POPI   GL1 6555   5.838  12.768  10.267 -0.0801  0.2106  0.3105
  411POPI   GL2 6556   5.810  12.992  10.110  0.0690 -0.0757 -0.1651
  411POPI   C1A 6557   6.039  12.518   9.988 -0.0055  0.0146 -0.2843
  411POPI   D2A 6558   6.127  12.617   9.610  0.0312  0.4566  0.1882
  411POPI   C3A 6559   6.196  12.741   9.238 -0.0680  0.1114 -0.0247
  411POPI   C4A 6560   6.125  12.791   8.792  0.3346  0.0768  0.1154
  411POPI   C1B 6561   6.102  13.167   9.875  0.0223  0.1759 -0.1117
  411POPI   C2B 6562   6.084  13.185   9.512 -0.1430 -0.0460 -0.1031
  411POPI   C3B 6563   6.022  13.203   9.086  0.4355 -0.1068  0.0762
  411POPI   C4B 6564   6.035  13.295   8.714  0.1827  0.2144  0.1001
  412POPI    C1 6565   8.178   4.089  11.180  0.0542  0.0423 -0.0289
  412POPI    C2 6566   8.405   3.783  11.303  0.1057 -0.0009 -0.2285
  412POPI    C3 6567   8.293   4.066  11.563  0.1522 -0.1286 -0.0677
  412POPI   PO4 6568   8.268   4.092  10.883 -0.2183  0.2423 -0.1530
  412POPI   GL1 6569   8.293   4.011  10.391 -0.0296  0.0895 -0.2418
  412POPI   GL2 6570   8.310   4.306  10.115  0.1280 -0.0894  0.3045
  412POPI   C1A 6571   8.396   3.797  10.038 -0.0172  0.1484 -0.2924
  412POPI   D2A 6572   8.410   3.720   9.570 -0.1542  0.1018 -0.0657
  412POPI   C3A 6573   8.368   3.639   9.159  0.1044 -0.0198 -0.0905
  412POPI   C4A 6574   8.507   3.579   8.669  0.0507 -0.3717  0.2060
  412POPI   C1B 6575   8.393   4.268   9.646 -0.1603 -0.2051 -0.1516
  412POPI   C2B 6576   8.270   4.183   9.255 -0.1302 -0.2882  0.0373
  412POPI   C3B 6577   8.331   4.051   8.848  0.0565 -0.0276 -0.1144
  412POPI   C4B 6578   8.136   3.915   8.541  0.0452 -0.4820 -0.3698
  413POPI    C1 6579   6.794  12.915  10.646 -0.2584 -0.2017 -0.2515
  413POPI    C2 6580   6.917  12.537  10.684 -0.1045 -0.1400 -0.1285
  413POPI    C3 6581   6.609  12.670  10.902  0.2455 -0.0206  0.3083
  413POPI   PO4 6582   6.755  12.994  10.424  0.1666 -0.2721  0.1529
  413POPI   GL1 6583   6.862  13.092  10.057  0.0137 -0.1108  0.0474
  413POPI   GL2 6584   6.941  12.789   9.991 -0.0326  0.2675  0.1442
  413POPI   C1A 6585   6.648  13.359   9.807  0.1285 -0.1482 -0.1052
  413POPI   D2A 6586   6.468  13.620   9.531 -0.0701 -0.2294 -0.2982
  413POPI   C3A 6587   6.544  13.529   9.016  0.2059 -0.0224  0.2877
  413POPI   C4A 6588   6.326  13.736   8.679 -0.1570 -0.0402 -0.4011
  413POPI   C1B 6589   7.102  12.818   9.600 -0.0389 -0.1477 -0.1181
  413POPI   C2B 6590   6.943  12.743   9.316  0.0038  0.0486 -0.4322
  413POPI   C3B 6591   6.647  12.672   9.007  0.0399 -0.1036  0.0040
  413POPI   C4B 6592   6.629  12.454   8.565 -0.2247 -0.2109 -0.1743
  414POPI    C1 6593  10.518   1.418  11.290  0.1020  0.1711 -0.0347
  414POPI    C2 6594  10.892   1.276  11.292  0.0546  0.0454  0.0484
  414POPI    C3 6595  10.827   1.668  11.338  0.1755  0.0671  0.0382
  414POPI   PO4 6596  10.421   1.320  10.994 -0.1602 -0.0534  0.1116
  414POPI   GL1 6597  10.345   1.550  10.602 -0.4520 -0.1084  0.2441
  414POPI   GL2 6598  10.559   1.558  10.459  0.2057  0.2493 -0.2913
  414POPI   C1A 6599  10.159   1.399  10.176  0.1546  0.1421  0.2395
  414POPI   D2A 6600  10.265   1.466   9.736 -0.1661 -0.0925  0.0385
  414POPI   C3A 6601  10.261   1.115   9.587 -0.1903  0.2134  0.1048
  414POPI   C4A 6602  10.374   1.098   9.139 -0.3123  0.2376 -0.0627
  414POPI   C1B 6603  10.596   1.740  10.110 -0.3801  0.0672 -0.0507
  414POPI   C2B 6604  10.568   1.832   9.725 -0.1297 -0.0432 -0.2555
  414POPI   C3B 6605  10.553   1.856   9.373  0.4653  0.1307 -0.1559
  414POPI   C4B 6606  10.304   1.556   9.205 -0.0785  0.1212  0.0590
  415POPI    C1 6607   0.720   2.910  10.520 -0.1703  0.0755 -0.0175
  415POPI    C2 6608   0.797   3.232  10.295  0.0533  0.0502  0.0206
  415POPI    C3 6609   1.096   2.991  10.409 -0.0981 -0.1076  0.0887
  415POPI   PO4 6610   0.508   2.771  10.339  0.0973 -0.4202 -0.0601
  415POPI   GL1 6611   0.422   2.717   9.919 -0.0059  0.2044  0.1306
  415POPI   GL2 6612   0.410   3.069   9.951  0.2748 -0.2306  0.0026
  415POPI   C1A 6613   0.165   2.816   9.552  0.0060  0.3907 -0.1072
  415POPI   D2A 6614  -0.144   3.086   9.321  0.0088 -0.1453  0.2292
  415POPI   C3A 6615  -0.178   3.068   8.905 -0.0168  0.0028  0.1971
  415POPI   C4A 6616  -0.438   2.911   8.515 -0.0258  0.2600 -0.0508
  415POPI   C1B 6617   0.474   3.170   9.496  0.2384 -0.1078  0.2150
  415POPI   C2B 6618   0.318   3.323   9.107  0.2114  0.0819 -0.0079
  415POPI   C3B 6619   0.271   3.247   8.734  0.2124 -0.1119  0.0302
  415POPI   C4B 6620  -0.011   3.172   8.435  0.1215  0.0016 -0.1417
  416POPI    C1 6621  14.861   4.939  10.483  0.1588  0.3894  0.1606
  416POPI    C2 6622  14.559   4.766  10.680  0.1266  0.0660 -0.1629
  416POPI    C3 6623  14.651   5.149  10.752 -0.2251  0.1088  0.0878
  416POPI   PO4 6624  14.696   4.921  10.242  0.2682  0.2950  0.1375
  416POPI   GL1 6625  14.632   4.752   9.807 -0.1746  0.2758 -0.1672
  416POPI   GL2 6626  14.989   4.658   9.910 -0.0558 -0.0932  0.0449
  416POPI   C1A 6627  14.554   4.588   9.372  0.1708 -0.2600 -0.0128
  416POPI   D2A 6628  14.572   4.469   8.925 -0.4243  0.2142 -0.0814
  416POPI   C3A 6629  14.948   4.624   8.781 -0.1516  0.0876  0.0234
  416POPI   C4A 6630  14.947   4.937   8.478  0.1643 -0.0034  0.3040
  416POPI   C1B 6631  14.999   4.444   9.571 -0.0222 -0.1930 -0.2101
  416POPI   C2B 6632  14.964   4.327   9.189  0.1836  0.2660 -0.0732
  416POPI   C3B 6633  14.916   4.129   8.825 -0.3461 -0.1736  0.1958
  416POPI   C4B 6634  14.670   4.276   8.401  0.1564 -0.1899 -0.0582
  417POPI    C1 6635  16.602   6.483   9.929  0.0039 -0.2713 -0.1747
  417POPI    C2 6636  16.987   6.420   9.838  0.0926  0.0024 -0.0018
  417POPI    C3 6637  16.828   6.251  10.163  0.1120  0.0216  0.0177
  417POPI   PO4 6638  16.456   6.744   9.746 -0.1588 -0.2601  0.0374
  417POPI   GL1 6639  16.536   6.934   9.383 -0.1900  0.0958  0.1620
  417POPI   GL2 6640  16.271   7.082   9.220 -0.3015  0.1849 -0.2650
  417POPI   C1A 6641  16.738   7.012   8.900 -0.1430 -0.0167  0.1536
  417POPI   D2A 6642  17.060   6.769   8.813  0.0046 -0.0188  0.1480
  417POPI   C3A 6643  17.008   6.811   8.371 -0.1234  0.2151 -0.1843
  417POPI   C4A 6644  17.059   6.814   7.941 -0.2848 -0.0085  0.0440
  417POPI   C1B 6645  16.241   6.879   8.864  0.0913 -0.0976  0.0133
  417POPI   C2B 6646  16.175   6.664   8.465  0.1459 -0.0049  0.0175
  417POPI   C3B 6647  16.051   6.688   8.002  0.0867 -0.2417  0.1358
  417POPI   C4B 6648  15.903   7.050   7.704 -0.0820  0.1503  0.1125
  418POPI    C1 6649   7.220  14.890  11.376 -0.0094  0.3365 -0.1825
  418POPI    C2 6650   6.862  15.063  11.417  0.0096  0.3346  0.0033
  418POPI    C3 6651   7.132  15.093  11.710  0.0249  0.0167  0.0253
  418POPI   PO4 6652   7.131  14.881  11.039 -0.1653  0.1003  0.2547
  418POPI   GL1 6653   6.969  14.897  10.692  0.3823  0.1505 -0.2232
  418POPI   GL2 6654   7.138  14.953  10.535 -0.1596  0.0183 -0.2143
  418POPI   C1A 6655   6.665  15.003  10.382 -0.0760 -0.3527 -0.0795
  418POPI   D2A 6656   6.669  15.061   9.876  0.1052 -0.0555  0.0856
  418POPI   C3A 6657   6.694  14.893   9.529 -0.0929  0.3244  0.0509
  418POPI   C4A 6658   6.547  14.979   9.125  0.0222 -0.0499 -0.0674
  418POPI   C1B 6659   7.235  14.939  10.122 -0.1500  0.1846 -0.0356
  418POPI   C2B 6660   7.166  14.920   9.697  0.0620 -0.1514 -0.0823
  418POPI   C3B 6661   7.189  14.922   9.239  0.2136 -0.3304 -0.1880
  418POPI   C4B 6662   7.055  14.835   8.828  0.0559 -0.2614 -0.1251
  419POPI    C1 6663   2.407   6.018  10.277 -0.0419 -0.1472  0.1202
  419POPI    C2 6664   2.782   5.972  10.408 -0.0530 -0.0414  0.1898
  419POPI    C3 6665   2.549   6.258  10.563 -0.0864  0.0457 -0.0172
  419POPI   PO4 6666   2.411   6.000   9.966 -0.0685 -0.1671 -0.1022
  419POPI   GL1 6667   2.241   6.089   9.617  0.1070 -0.0975 -0.0857
  419POPI   GL2 6668   2.528   6.330   9.576 -0.1443 -0.0912 -0.3294
  419POPI   C1A 6669   2.296   6.111   9.100  0.0641 -0.1664  0.1329
  419POPI   D2A 6670   2.403   6.140   8.755  0.0441 -0.0758 -0.0626
  419POPI   C3A 6671   2.153   6.161   8.421  0.2436 -0.0477 -0.2491
  419POPI   C4A 6672   2.205   6.284   7.967  0.0493 -0.1279 -0.2154
  419POPI   C1B 6673   2.716   6.585   9.183 -0.3850 -0.3483  0.0575
  419POPI   C2B 6674   2.753   6.553   8.846 -0.0109  0.2025  0.1669
  419POPI   C3B 6675   3.076   6.577   8.544  0.1213  0.3572 -0.1499
  419POPI   C4B 6676   3.130   6.646   8.137  0.1032 -0.0082 -0.2571
  420POPI    C1 6677  13.841   8.010  10.305 -0.1884 -0.3889  0.2274
  420POPI    C2 6678  14.111   8.173  10.552 -0.0181  0.0402 -0.2253
  420POPI    C3 6679  13.737   8.111  10.678  0.0997  0.1225  0.1788
  420POPI   PO4 6680  13.803   8.141  10.101  0.0725 -0.0989  0.1878
  420POPI   GL1 6681  13.745   8.105   9.689 -0.3608 -0.3731 -0.0327
  420POPI   GL2 6682  13.566   8.113   9.446 -0.0557 -0.3324 -0.3053
  420POPI   C1A 6683  13.763   7.649   9.393 -0.2215  0.0439  0.0880
  420POPI   D2A 6684  13.683   7.658   8.935  0.2681 -0.1282 -0.0041
  420POPI   C3A 6685  13.764   8.147   8.903  0.0837  0.1207 -0.1961
  420POPI   C4A 6686  13.775   8.388   8.479  0.0503 -0.0194  0.0027
  420POPI   C1B 6687  13.258   7.951   9.169 -0.0874 -0.2002  0.0391
  420POPI   C2B 6688  13.166   7.969   8.797  0.2176  0.2064 -0.1330
  420POPI   C3B 6689  13.127   7.814   8.368 -0.0335  0.0367 -0.1499
  420POPI   C4B 6690  13.063   7.899   7.947  0.1631  0.0242  0.1683
  421POPI    C1 6691  12.559  15.429  11.072 -0.0723  0.0234  0.1048
  421POPI    C2 6692  12.744  15.522  11.414 -0.3197 -0.0801  0.2701
  421POPI    C3 6693  12.429  15.737  11.291 -0.0771  0.1153 -0.0261
  421POPI   PO4 6694  12.785  15.488  10.826 -0.1717 -0.0262  0.0615
  421POPI   GL1 6695  12.669  15.505  10.492 -0.2393  0.0692 -0.2256
  421POPI   GL2 6696  12.327  15.442  10.400  0.1358  0.1927  0.0439
  421POPI   C1A 6697  12.711  15.213  10.064  0.1707 -0.0422 -0.0903
  421POPI   D2A 6698  12.633  15.277   9.713 -0.0891  0.3187  0.2314
  421POPI   C3A 6699  12.639  15.537   9.310 -0.0015 -0.1516 -0.2601
  421POPI   C4A 6700  12.697  15.745   8.875 -0.2457 -0.2135 -0.0988
  421POPI   C1B 6701  12.347  15.618   9.934  0.2744 -0.0007 -0.1436
  421POPI   C2B 6702  12.242  15.619   9.620  0.1121 -0.0102 -0.0917
  421POPI   C3B 6703  12.193  15.681   9.187 -0.2552 -0.0879  0.0400
  421POPI   C4B 6704  12.184  15.766   8.761 -0.2068  0.0219  0.1428
  422POPI    C1 6705   6.649  14.524  10.934 -0.0441 -0.1088 -0.0460
  422POPI    C2 6706   6.624  14.230  11.204 -0.0106  0.0064  0.0837
  422POPI    C3 6707   6.813  14.570  11.296 -0.1340  0.1071 -0.0315
  422POPI   PO4 6708   6.733  14.388  10.744  0.0113 -0.1707 -0.0020
  422POPI   GL1 6709   6.735  14.500  10.361  0.0912 -0.1594 -0.1892
  422POPI   GL2 6710   7.026  14.506  10.244 -0.1486  0.0148  0.1064
  422POPI   C1A 6711   6.452  14.564  10.050  0.1027 -0.1547 -0.0415
  422POPI   D2A 6712   6.291  14.583   9.634 -0.5151  0.1232  0.0173
  422POPI   C3A 6713   6.199  14.622   9.170  0.2442  0.1287 -0.1171
  422POPI   C4A 6714   6.143  14.608   8.770  0.1338  0.0299 -0.2910
  422POPI   C1B 6715   6.949  14.400   9.788  0.1362  0.1336 -0.2097
  422POPI   C2B 6716   6.927  14.504   9.350 -0.0311 -0.1299  0.4501
  422POPI   C3B 6717   6.683  14.513   8.893 -0.4901 -0.0463 -0.1041
  422POPI   C4B 6718   6.546  14.871   8.664 -0.0511  0.3370  0.0980
  423POPI    C1 6719  10.630  12.883  10.851 -0.0213 -0.1240  0.2741
  423POPI    C2 6720  10.344  13.105  11.021 -0.1628 -0.1041  0.0161
  423POPI    C3 6721  10.728  13.209  11.061 -0.2150  0.0770  0.0599
  423POPI   PO4 6722  10.583  12.879  10.615 -0.0796  0.2966  0.2699
  423POPI   GL1 6723  10.794  12.965  10.294  0.0920  0.0275  0.0252
  423POPI   GL2 6724  10.913  13.108  10.161  0.0898  0.0895  0.3636
  423POPI   C1A 6725  10.675  12.781   9.874 -0.1110  0.2601 -0.0986
  423POPI   D2A 6726  10.507  12.871   9.540 -0.0107  0.1784  0.2882
  423POPI   C3A 6727  10.444  12.819   9.052  0.0651  0.2834  0.0731
  423POPI   C4A 6728  10.446  13.116   8.670  0.3613 -0.0609  0.0526
  423POPI   C1B 6729  10.826  13.193   9.664  0.1305  0.0225 -0.2754
  423POPI   C2B 6730  10.811  13.110   9.217  0.0274 -0.0945  0.2051
  423POPI   C3B 6731  10.792  13.385   8.804  0.0468 -0.2968  0.0685
  423POPI   C4B 6732  10.803  13.463   8.301  0.1028  0.0899 -0.0243
  424POPI    C1 6733  12.769   8.475  10.276  0.0688 -0.1034 -0.1869
  424POPI    C2 6734  12.967   8.445  10.623  0.0354 -0.1581 -0.1725
  424POPI    C3 6735  12.599   8.292  10.589 -0.0834  0.1139 -0.1399
  424POPI   PO4 6736  12.966   8.371  10.124 -0.3198 -0.2633 -0.0536
  424POPI   GL1 6737  12.719   8.159   9.824 -0.0791 -0.0188  0.1742
  424POPI   GL2 6738  12.420   8.356   9.892  0.0848  0.1195  0.0302
  424POPI   C1A 6739  12.777   7.997   9.405  0.1251  0.1604 -0.0011
  424POPI   D2A 6740  12.731   8.085   9.053  0.2527  0.2226  0.3840
  424POPI   C3A 6741  12.732   8.299   8.674 -0.1970 -0.3068 -0.2368
  424POPI   C4A 6742  12.757   8.210   8.189  0.1555  0.1190 -0.3156
  424POPI   C1B 6743  12.288   8.270   9.576 -0.2017 -0.0563 -0.0984
  424POPI   C2B 6744  12.313   8.364   9.064  0.0409  0.1696 -0.1087
  424POPI   C3B 6745  12.173   8.309   8.690  0.3819 -0.0408  0.1656
  424POPI   C4B 6746  12.352   8.491   8.252  0.1216 -0.0483 -0.0362
  425POPI    C1 6747   6.692  10.737  10.624 -0.0500  0.2262  0.1010
  425POPI    C2 6748   6.694  11.034  10.356 -0.2948  0.2290  0.1001
  425POPI    C3 6749   6.801  11.106  10.734 -0.0606  0.2505  0.0314
  425POPI   PO4 6750   6.628  10.525  10.445  0.0069 -0.0324  0.0596
  425POPI   GL1 6751   6.928  10.448  10.065 -0.0819 -0.1928  0.0294
  425POPI   GL2 6752   7.149  10.464   9.825  0.1143  0.0548  0.0606
  425POPI   C1A 6753   6.701  10.233   9.747 -0.1700 -0.0017 -0.0828
  425POPI   D2A 6754   6.705  10.059   9.392 -0.0002  0.0709 -0.2665
  425POPI   C3A 6755   6.577  10.081   9.021  0.1961 -0.2592  0.0813
  425POPI   C4A 6756   6.488   9.961   8.567 -0.1511 -0.0077 -0.3130
  425POPI   C1B 6757   7.035  10.444   9.423  0.1495 -0.2670  0.2123
  425POPI   C2B 6758   6.844  10.494   9.079  0.2785 -0.0973  0.1279
  425POPI   C3B 6759   6.840  10.368   8.602  0.1266 -0.0905  0.2753
  425POPI   C4B 6760   6.767  10.174   8.192 -0.4326 -0.0931 -0.0861
  426POPI    C1 6761   7.714  12.176  10.544 -0.0414  0.0947  0.1238
  426POPI    C2 6762   7.834  12.435  10.264 -0.1772  0.0575  0.0302
  426POPI    C3 6763   7.844  12.539  10.650  0.1426  0.0592  0.0239
  426POPI   PO4 6764   7.479  12.142  10.394 -0.2222  0.0323 -0.1089
  426POPI   GL1 6765   7.148  12.345  10.117 -0.0195  0.2313  0.0906
  426POPI   GL2 6766   7.418  12.414   9.979  0.0515  0.0565  0.0344
  426POPI   C1A 6767   6.953  12.301   9.672  0.4182  0.1620 -0.3432
  426POPI   D2A 6768   6.627  12.338   9.436 -0.0818 -0.0978  0.1112
  426POPI   C3A 6769   6.802  12.185   9.096  0.1619  0.0860  0.0568
  426POPI   C4A 6770   7.057  12.301   8.772 -0.0562 -0.1457  0.0810
  426POPI   C1B 6771   7.462  12.412   9.565 -0.0584 -0.0609  0.0689
  426POPI   C2B 6772   7.409  12.555   9.152 -0.2365 -0.1251  0.1165
  426POPI   C3B 6773   7.290  12.721   8.718 -0.1388 -0.2879 -0.0641
  426POPI   C4B 6774   7.413  13.008   8.301 -0.2300 -0.0239  0.0590
  427POPI    C1 6775   3.937  11.541  10.716  0.1061 -0.0709  0.0907
  427POPI    C2 6776   4.237  11.772  10.588 -0.0271  0.0318 -0.0412
  427POPI    C3 6777   4.082  11.830  10.952 -0.0413  0.1317 -0.0630
  427POPI   PO4 6778   3.748  11.610  10.422  0.1989 -0.0748 -0.1394
  427POPI   GL1 6779   3.845  11.429   9.996 -0.1495  0.2954  0.0301
  427POPI   GL2 6780   4.075  11.171   9.844  0.0596 -0.0121 -0.3351
  427POPI   C1A 6781   3.596  11.429   9.670  0.0215 -0.0558 -0.0375
  427POPI   D2A 6782   3.589  11.563   9.240 -0.0382  0.2980 -0.3368
  427POPI   C3A 6783   3.591  11.596   8.802  0.5687  0.1103  0.0095
  427POPI   C4A 6784   3.555  11.560   8.325 -0.3306 -0.0688 -0.2011
  427POPI   C1B 6785   4.025  11.339   9.483 -0.1515  0.3890  0.4550
  427POPI   C2B 6786   4.020  11.436   9.057  0.0610  0.1191 -0.0444
  427POPI   C3B 6787   4.093  11.481   8.677 -0.1196 -0.0199  0.0114
  427POPI   C4B 6788   4.049  11.480   8.258  0.0693 -0.2624 -0.0449
  428POPI    C1 6789   0.256   7.995  10.092 -0.0836 -0.0529 -0.1052
  428POPI    C2 6790  -0.003   8.051  10.392 -0.1640 -0.2580 -0.1345
  428POPI    C3 6791   0.355   7.887  10.464 -0.0294  0.0484 -0.0902
  428POPI   PO4 6792   0.114   7.908   9.909  0.1798 -0.2475  0.2166
  428POPI   GL1 6793   0.027   8.175   9.587 -0.0351 -0.0586  0.4785
  428POPI   GL2 6794   0.252   8.215   9.355 -0.0286  0.0034  0.2301
  428POPI   C1A 6795  -0.096   7.802   9.291  0.1233  0.0833 -0.1027
  428POPI   D2A 6796  -0.113   7.757   8.724 -0.1247 -0.0349 -0.1064
  428POPI   C3A 6797  -0.227   7.585   8.303  0.3086 -0.3821 -0.4336
  428POPI   C4A 6798  -0.319   7.531   7.909 -0.4345  0.0246  0.1292
  428POPI   C1B 6799   0.154   8.110   8.934  0.0464  0.1251  0.0677
  428POPI   C2B 6800   0.084   8.174   8.566 -0.2565  0.1775 -0.1029
  428POPI   C3B 6801  -0.023   8.027   8.190  0.1303  0.1938  0.1967
  428POPI   C4B 6802  -0.170   8.123   7.920  0.3559  0.1400  0.0852
  429POPI    C1 6803   8.372   4.884  10.821  0.0594 -0.1030 -0.0555
  429POPI    C2 6804   8.591   4.771  11.136 -0.1376  0.1720  0.1853
  429POPI    C3 6805   8.247   4.585  11.055  0.1283 -0.1965 -0.1371
  429POPI   PO4 6806   8.566   4.896  10.610  0.0987 -0.0623 -0.1334
  429POPI   GL1 6807   8.500   4.713  10.290 -0.1822  0.1029 -0.0886
  429POPI   GL2 6808   8.240   4.879  10.217 -0.1456  0.0874  0.0404
  429POPI   C1A 6809   8.743   4.603   9.982  0.1294 -0.1739  0.0085
  429POPI   D2A 6810   8.790   4.628   9.617  0.0569 -0.0734 -0.0005
  429POPI   C3A 6811   8.677   4.464   9.252 -0.0907  0.3078 -0.0324
  429POPI   C4A 6812   8.746   4.382   8.833 -0.1755  0.0327 -0.2245
  429POPI   C1B 6813   8.351   4.757   9.809  0.4230 -0.0240 -0.2172
  429POPI   C2B 6814   8.218   4.667   9.406  0.2161 -0.0522  0.0640
  429POPI   C3B 6815   8.224   4.580   8.941  0.1777 -0.0504 -0.2464
  429POPI   C4B 6816   8.081   4.439   8.602 -0.1711  0.0565 -0.3326
  430POPI    C1 6817   3.222   5.255  10.329 -0.0742 -0.2681  0.1569
  430POPI    C2 6818   2.910   5.223  10.578 -0.2432  0.2359  0.0223
  430POPI    C3 6819   3.283   5.206  10.721 -0.3358  0.1607  0.2591
  430POPI   PO4 6820   3.201   5.179  10.102 -0.2152 -0.1196  0.1508
  430POPI   GL1 6821   2.946   4.890   9.752  0.2090 -0.1296  0.0576
  430POPI   GL2 6822   2.613   4.775   9.854  0.1519  0.1688  0.0479
  430POPI   C1A 6823   3.002   4.896   9.328  0.3101  0.2789  0.0896
  430POPI   D2A 6824   3.078   4.754   8.903 -0.1568 -0.0218 -0.0164
  430POPI   C3A 6825   3.157   4.965   8.442 -0.1675  0.0774  0.1074
  430POPI   C4A 6826   3.237   5.133   7.971  0.0936 -0.3110 -0.0464
  430POPI   C1B 6827   2.478   4.931   9.423 -0.2178  0.0821 -0.2248
  430POPI   C2B 6828   2.545   5.035   8.990  0.1944 -0.1816  0.4172
  430POPI   C3B 6829   2.695   4.935   8.646 -0.1027 -0.2610 -0.2160
  430POPI   C4B 6830   2.468   5.233   8.477 -0.2782 -0.0977  0.2327
  431POPI    C1 6831   6.070  12.236  10.730  0.0322 -0.1481  0.0078
  431POPI    C2 6832   5.736  12.310  10.523  0.1075  0.0024 -0.0614
  431POPI    C3 6833   5.713  12.177  10.900 -0.0302  0.0155 -0.0648
  431POPI   PO4 6834   6.237  12.392  10.640 -0.1882  0.2923  0.0446
  431POPI   GL1 6835   6.558  12.392  10.348 -0.1977  0.2035  0.2071
  431POPI   GL2 6836   6.648  12.131  10.187  0.0573  0.0364 -0.0484
  431POPI   C1A 6837   6.574  12.525   9.904 -0.1623 -0.4393 -0.0112
  431POPI   D2A 6838   6.529  12.876   9.660 -0.2071 -0.0580 -0.0553
  431POPI   C3A 6839   6.551  13.080   9.255  0.1987  0.0893 -0.1038
  431POPI   C4A 6840   6.533  13.096   8.780 -0.1670  0.0579  0.0785
  431POPI   C1B 6841   6.644  11.900   9.822 -0.2975  0.0898  0.0796
  431POPI   C2B 6842   6.518  11.867   9.366  0.0712 -0.1072  0.0900
  431POPI   C3B 6843   6.378  11.833   9.012  0.2805 -0.1240 -0.0609
  431POPI   C4B 6844   6.568  11.925   8.634 -0.0425  0.0719  0.2837
  432POPI    C1 6845  12.742   3.109  10.601 -0.3320  0.1312  0.1121
  432POPI    C2 6846  13.044   3.225  10.836 -0.1441 -0.0624 -0.0298
  432POPI    C3 6847  12.911   2.848  10.851 -0.2503 -0.0287 -0.1072
  432POPI   PO4 6848  12.675   3.226  10.418  0.0181  0.2274 -0.1426
  432POPI   GL1 6849  12.673   3.237   9.951 -0.0235  0.0582  0.0607
  432POPI   GL2 6850  12.538   3.347   9.758  0.1839 -0.0387  0.1258
  432POPI   C1A 6851  12.500   2.867   9.679  0.1283 -0.1102  0.2275
  432POPI   D2A 6852  12.402   2.594   9.414 -0.2214 -0.0415 -0.0203
  432POPI   C3A 6853  12.516   2.719   9.026  0.0244 -0.1210  0.0339
  432POPI   C4A 6854  12.540   2.556   8.574  0.2140  0.1525  0.1013
  432POPI   C1B 6855  12.559   3.169   9.304 -0.0347  0.0482  0.3226
  432POPI   C2B 6856  12.675   3.160   8.823  0.1716 -0.2207  0.0010
  432POPI   C3B 6857  12.633   3.368   8.482  0.0590 -0.1096  0.1319
  432POPI   C4B 6858  12.415   3.514   8.331  0.1227 -0.3217  0.0053
  433POPI    C1 6859   2.600   1.240  10.937  0.0318  0.0336  0.0762
  433POPI    C2 6860   2.412   0.974  11.169 -0.1128  0.1544  0.0995
  433POPI    C3 6861   2.452   1.352  11.291 -0.0320  0.1769  0.0047
  433POPI   PO4 6862   2.636   1.072  10.733  0.0385 -0.0349  0.0176
  433POPI   GL1 6863   2.818   1.090  10.294 -0.4299  0.0147  0.3766
  433POPI   GL2 6864   2.876   0.801  10.069 -0.3507 -0.3188 -0.0983
  433POPI   C1A 6865   2.711   1.180   9.848  0.2800  0.0022  0.0072
  433POPI   D2A 6866   2.796   0.950   9.538 -0.0213 -0.0875 -0.1860
  433POPI   C3A 6867   2.791   1.074   9.028 -0.1679 -0.0831  0.1212
  433POPI   C4A 6868   2.905   1.068   8.619 -0.2444  0.0788  0.0463
  433POPI   C1B 6869   2.829   0.496   9.664  0.3333 -0.0472  0.0055
  433POPI   C2B 6870   2.979   0.460   9.276 -0.0425  0.0457  0.4262
  433POPI   C3B 6871   3.018   0.504   8.822 -0.0995  0.0463 -0.2325
  433POPI   C4B 6872   3.056   0.455   8.354 -0.1964 -0.1837 -0.3043
  434POPI    C1 6873   4.807   1.174  10.934  0.1127 -0.1284  0.1622
  434POPI    C2 6874   4.877   1.532  11.098  0.1129 -0.0619  0.0184
  434POPI    C3 6875   4.662   1.260  11.297 -0.0733  0.0969  0.0375
  434POPI   PO4 6876   4.949   1.128  10.737  0.0984 -0.1735 -0.2049
  434POPI   GL1 6877   4.995   1.026  10.359  0.2285 -0.1357  0.1896
  434POPI   GL2 6878   4.750   0.932  10.174  0.5490  0.2373  0.1557
  434POPI   C1A 6879   5.265   0.915  10.024 -0.0066  0.4351  0.0688
  434POPI   D2A 6880   5.166   0.733   9.561  0.0764  0.1028 -0.1526
  434POPI   C3A 6881   5.355   0.763   9.247  0.2666  0.0079 -0.1417
  434POPI   C4A 6882   5.306   0.779   8.818 -0.0758 -0.0371 -0.1390
  434POPI   C1B 6883   4.657   0.918   9.732  0.0714 -0.0752  0.2388
  434POPI   C2B 6884   4.808   0.930   9.197 -0.2195 -0.1061  0.0534
  434POPI   C3B 6885   4.820   0.877   8.782 -0.2643  0.3601  0.1326
  434POPI   C4B 6886   5.095   0.831   8.396 -0.0357  0.0757 -0.1695
  435POPI    C1 6887   1.500   9.890  10.234 -0.0813  0.0435  0.1433
  435POPI    C2 6888   1.816   9.711  10.066 -0.1239 -0.0348  0.1466
  435POPI    C3 6889   1.865   9.939  10.391 -0.0556  0.0377  0.0858
  435POPI   PO4 6890   1.364   9.854  10.060  0.3041 -0.0401  0.2054
  435POPI   GL1 6891   1.515   9.884   9.629  0.0307  0.0948  0.3098
  435POPI   GL2 6892   1.698   9.596   9.449 -0.0060 -0.0956 -0.1346
  435POPI   C1A 6893   1.540  10.045   9.192  0.0172  0.2842  0.0498
  435POPI   D2A 6894   1.573  10.052   8.727 -0.0857  0.0742 -0.1201
  435POPI   C3A 6895   1.728  10.300   8.452  0.0351  0.0478  0.0452
  435POPI   C4A 6896   1.790  10.654   8.168 -0.0948 -0.0177 -0.0262
  435POPI   C1B 6897   1.702   9.562   9.008 -0.3637 -0.0462  0.2581
  435POPI   C2B 6898   1.811   9.677   8.572  0.0484  0.0033 -0.0778
  435POPI   C3B 6899   1.858   9.765   8.104  0.0128 -0.0531  0.0566
  435POPI   C4B 6900   1.723  10.161   7.922 -0.5246 -0.0001  0.0943
  436POPI    C1 6901   0.576  13.269  10.608 -0.0954  0.1405  0.0989
  436POPI    C2 6902   0.929  13.128  10.734 -0.1409 -0.1972 -0.1394
  436POPI    C3 6903   0.611  13.118  10.977 -0.0760 -0.2429 -0.0556
  436POPI   PO4 6904   0.542  13.155  10.411 -0.1021  0.1076 -0.1152
  436POPI   GL1 6905   0.185  13.110  10.132  0.1001  0.2475  0.1639
  436POPI   GL2 6906   0.111  12.908   9.933 -0.1560  0.1502 -0.1357
  436POPI   C1A 6907   0.403  13.310   9.848  0.0842 -0.0002 -0.2639
  436POPI   D2A 6908   0.425  13.504   9.474  0.2301 -0.1978  0.0368
  436POPI   C3A 6909   0.461  13.444   9.014 -0.2967  0.1466 -0.4408
  436POPI   C4A 6910   0.233  13.706   8.791  0.1237 -0.0440 -0.1150
  436POPI   C1B 6911   0.086  12.951   9.598 -0.2619 -0.0624 -0.2315
  436POPI   C2B 6912   0.113  13.021   9.232  0.1796 -0.0874  0.2459
  436POPI   C3B 6913   0.024  13.152   8.850 -0.0621  0.2250 -0.0660
  436POPI   C4B 6914   0.245  13.376   8.417  0.1193  0.1352  0.1813
  437POPI    C1 6915  10.671  10.600  10.744 -0.1293  0.1400  0.2309
  437POPI    C2 6916  10.683  10.311  11.020 -0.3498 -0.0401  0.0564
  437POPI    C3 6917  10.399  10.593  11.038 -0.2328  0.0743  0.1343
  437POPI   PO4 6918  10.724  10.478  10.490  0.0515  0.3517 -0.3040
  437POPI   GL1 6919  10.494  10.201  10.223  0.0984 -0.1285  0.1539
  437POPI   GL2 6920  10.534   9.881  10.227 -0.0708  0.2286 -0.0367
  437POPI   C1A 6921  10.548  10.486   9.835  0.3320 -0.2382  0.2092
  437POPI   D2A 6922  10.560  10.882   9.633  0.3750  0.0044  0.2467
  437POPI   C3A 6923  10.550  11.069   9.299  0.1163  0.0883 -0.2585
  437POPI   C4A 6924  10.676  11.288   8.939 -0.2325 -0.1498  0.0806
  437POPI   C1B 6925  10.463   9.987   9.765 -0.3754  0.0615 -0.0746
  437POPI   C2B 6926  10.512   9.973   9.361 -0.4070 -0.0852  0.0966
  437POPI   C3B 6927  10.682  10.106   8.884 -0.3726 -0.2210  0.1002
  437POPI   C4B 6928  10.856  10.046   8.484 -0.0145 -0.0026 -0.1842
  438POPI    C1 6929   4.590  16.296  11.101  0.0348  0.2183 -0.0761
  438POPI    C2 6930   4.309  16.167  11.354  0.1213  0.0850 -0.0471
  438POPI    C3 6931   4.579  16.436  11.475  0.1266  0.0656 -0.0155
  438POPI   PO4 6932   4.462  16.335  10.885 -0.1349 -0.2635  0.1101
  438POPI   GL1 6933   4.293  16.144  10.433 -0.2421 -0.0951 -0.1656
  438POPI   GL2 6934   3.936  16.201  10.343 -0.1588 -0.1088  0.0374
  438POPI   C1A 6935   4.361  16.108  10.008  0.0091 -0.1944  0.0240
  438POPI   D2A 6936   4.420  16.080   9.555 -0.0033  0.0442  0.0876
  438POPI   C3A 6937   4.339  16.034   9.176 -0.1560  0.0885 -0.1708
  438POPI   C4A 6938   4.533  16.143   8.859 -0.3147 -0.0255 -0.1248
  438POPI   C1B 6939   3.933  16.297   9.848 -0.0856  0.0758  0.2309
  438POPI   C2B 6940   3.931  16.227   9.337  0.2903 -0.1481  0.1811
  438POPI   C3B 6941   3.899  16.117   8.901 -0.0628 -0.1912 -0.2108
  438POPI   C4B 6942   3.733  16.141   8.467  0.0429  0.2178  0.0134
  439POPI    C1 6943   1.002   6.466  10.213 -0.1115  0.0607  0.0595
  439POPI    C2 6944   1.010   6.146  10.452  0.0594  0.0508  0.0423
  439POPI    C3 6945   0.682   6.375  10.434  0.0001 -0.0215  0.1884
  439POPI   PO4 6946   1.030   6.408   9.996  0.0090 -0.0579 -0.1088
  439POPI   GL1 6947   1.251   6.381   9.694 -0.0492 -0.0353 -0.1587
  439POPI   GL2 6948   1.235   6.758   9.587 -0.0230 -0.0369  0.1573
  439POPI   C1A 6949   1.345   6.442   9.098 -0.0238 -0.1049  0.1841
  439POPI   D2A 6950   1.336   6.423   8.683  0.0504 -0.1497 -0.0893
  439POPI   C3A 6951   1.219   6.257   8.286 -0.0847 -0.0587 -0.0271
  439POPI   C4A 6952   1.429   6.305   7.854  0.1522  0.2338  0.2847
  439POPI   C1B 6953   0.953   6.794   9.264  0.0300  0.0454  0.0802
  439POPI   C2B 6954   0.997   6.745   8.882 -0.2594  0.2200  0.2135
  439POPI   C3B 6955   1.078   6.870   8.395 -0.1119 -0.1167 -0.1503
  439POPI   C4B 6956   1.304   6.748   8.069 -0.1499  0.3768 -0.1551
  440POPI    C1 6957   7.725   3.174  10.964 -0.0356  0.2575  0.1363
  440POPI    C2 6958   7.957   2.873  11.090 -0.1653  0.0292 -0.1583
  440POPI    C3 6959   7.731   3.075  11.351 -0.0746 -0.1260  0.0426
  440POPI   PO4 6960   7.934   3.336  10.819  0.3554  0.1238  0.1727
  440POPI   GL1 6961   8.159   3.467  10.371  0.0627  0.0649 -0.4094
  440POPI   GL2 6962   8.374   3.306  10.292  0.0341  0.0845 -0.2030
  440POPI   C1A 6963   8.032   3.276   9.958 -0.0549 -0.1281  0.2512
  440POPI   D2A 6964   7.950   3.325   9.467 -0.1858 -0.0781 -0.0706
  440POPI   C3A 6965   7.987   3.174   9.171 -0.3369 -0.0910  0.1739
  440POPI   C4A 6966   8.028   3.150   8.783  0.0693  0.1279  0.2061
  440POPI   C1B 6967   8.530   3.177   9.825  0.3370 -0.0292 -0.2709
  440POPI   C2B 6968   8.451   3.038   9.427 -0.1110 -0.0044  0.1470
  440POPI   C3B 6969   8.496   3.102   8.999  0.3872  0.3074  0.5558
  440POPI   C4B 6970   8.499   2.910   8.706  0.0782 -0.1826  0.0788
  441POPI    C1 6971   3.693   6.310  10.513  0.0062 -0.0420 -0.0003
  441POPI    C2 6972   3.972   6.182  10.770 -0.0013  0.0056  0.0320
  441POPI    C3 6973   3.634   5.974  10.721  0.0624 -0.0805 -0.0461
  441POPI   PO4 6974   3.879   6.463  10.338 -0.1787 -0.2929  0.0525
  441POPI   GL1 6975   3.826   6.395   9.900  0.1527 -0.2781  0.0728
  441POPI   GL2 6976   3.974   6.523   9.771  0.1808  0.0605  0.1883
  441POPI   C1A 6977   4.042   6.040   9.837 -0.0195  0.2463  0.0761
  441POPI   D2A 6978   4.327   5.822   9.578 -0.2355  0.1362 -0.2591
  441POPI   C3A 6979   4.449   5.860   9.209  0.1090 -0.1445 -0.3680
  441POPI   C4A 6980   4.279   5.826   8.821  0.2102 -0.2622 -0.1479
  441POPI   C1B 6981   4.251   6.335   9.449  0.0390  0.0090  0.1002
  441POPI   C2B 6982   4.272   6.394   8.961 -0.0946  0.1198  0.0428
  441POPI   C3B 6983   4.250   6.321   8.669 -0.1432  0.1399  0.3190
  441POPI   C4B 6984   4.477   6.245   8.356 -0.3168 -0.0741 -0.1530
  442POPI    C1 6985   8.726  10.591  10.308 -0.0206 -0.0382 -0.0697
  442POPI    C2 6986   8.486  10.308  10.457  0.0876 -0.2543 -0.2989
  442POPI    C3 6987   8.821  10.408  10.651 -0.2415  0.1386  0.0897
  442POPI   PO4 6988   8.869  10.580  10.129 -0.1021  0.0726 -0.3209
  442POPI   GL1 6989   8.866  10.573   9.730  0.1188 -0.0866 -0.0824
  442POPI   GL2 6990   9.197  10.448   9.720 -0.3804 -0.0556 -0.1774
  442POPI   C1A 6991   8.857  10.515   9.360 -0.1266  0.2644  0.0730
  442POPI   D2A 6992   9.060  10.431   8.952  0.0346 -0.0669 -0.2048
  442POPI   C3A 6993   8.947  10.634   8.599  0.0939  0.1325  0.0572
  442POPI   C4A 6994   9.028  11.014   8.433 -0.0821 -0.1111 -0.0903
  442POPI   C1B 6995   9.198  10.888   9.554  0.0695 -0.2699 -0.0023
  442POPI   C2B 6996   9.175  10.959   9.123  0.1000 -0.3290  0.1015
  442POPI   C3B 6997   9.406  10.882   8.689 -0.2785 -0.0437  0.0438
  442POPI   C4B 6998   9.723  10.814   8.395  0.1353 -0.0815 -0.0712
  443POPI    C1 6999  14.434   9.049  10.086 -0.0322 -0.0230  0.1431
  443POPI    C2 7000  14.164   9.186   9.825  0.2074  0.2663  0.0409
  443POPI    C3 7001  14.138   9.288  10.210  0.0567  0.1278  0.0686
  443POPI   PO4 7002  14.481   8.811   9.970  0.0186  0.0346  0.2120
  443POPI   GL1 7003  14.416   8.775   9.591  0.0635  0.1202  0.0919
  443POPI   GL2 7004  14.760   8.987   9.563  0.2126  0.0660 -0.0211
  443POPI   C1A 7005  14.169   9.007   9.358 -0.3470 -0.1884 -0.0299
  443POPI   D2A 7006  14.176   9.005   8.913 -0.2955 -0.0266 -0.0235
  443POPI   C3A 7007  14.043   9.195   8.580 -0.3160 -0.1583 -0.2280
  443POPI   C4A 7008  13.748   9.117   8.211  0.0155 -0.1088 -0.2079
  443POPI   C1B 7009  14.675   9.113   9.155  0.2299  0.1969  0.1060
  443POPI   C2B 7010  14.591   9.288   8.922  0.1350  0.0742  0.0319
  443POPI   C3B 7011  14.624   9.118   8.472  0.2109  0.0652  0.0216
  443POPI   C4B 7012  14.279   9.079   8.098  0.0372  0.0314 -0.1250
  444POPI    C1 7013  14.500   8.455  10.296  0.0363  0.2709 -0.3265
  444POPI    C2 7014  14.214   8.706  10.417 -0.1261 -0.0761  0.0317
  444POPI    C3 7015  14.484   8.570  10.678  0.1792  0.0024 -0.2368
  444POPI   PO4 7016  14.307   8.285  10.089 -0.3700  0.1309  0.1675
  444POPI   GL1 7017  14.356   8.270   9.599  0.1361  0.1278  0.0374
  444POPI   GL2 7018  14.234   8.051   9.465  0.2110  0.1426 -0.1454
  444POPI   C1A 7019  14.000   8.519   9.280 -0.1775  0.2257 -0.0047
  444POPI   D2A 7020  14.034   8.522   8.842 -0.0508 -0.2622  0.1584
  444POPI   C3A 7021  14.133   8.731   8.381  0.4249  0.0125  0.0555
  444POPI   C4A 7022  13.994   8.736   7.834 -0.1909  0.1421 -0.0516
  444POPI   C1B 7023  14.307   8.162   9.063  0.0312  0.0924 -0.0453
  444POPI   C2B 7024  14.235   8.210   8.523 -0.0753 -0.0542 -0.0701
  444POPI   C3B 7025  14.207   8.373   8.087 -0.0607 -0.1293  0.0753
  444POPI   C4B 7026  14.146   8.094   7.766 -0.0824 -0.1237  0.2018
  445POPI    C1 7027   4.928  12.354  10.568 -0.0862  0.1284  0.0226
  445POPI    C2 7028   5.222  12.314  10.836  0.0648  0.1268 -0.1421
  445POPI    C3 7029   4.964  12.618  10.867  0.0233  0.0728  0.0591
  445POPI   PO4 7030   5.133  12.247  10.344 -0.4365  0.1304 -0.2001
  445POPI   GL1 7031   5.244  12.048   9.910  0.0500  0.0337 -0.0596
  445POPI   GL2 7032   4.937  12.078   9.926  0.0238  0.1340  0.1561
  445POPI   C1A 7033   5.122  12.297   9.532  0.1194 -0.1203  0.0484
  445POPI   D2A 7034   5.037  12.382   9.173 -0.0938 -0.0521 -0.1361
  445POPI   C3A 7035   5.176  12.509   8.820 -0.2404 -0.0803 -0.1565
  445POPI   C4A 7036   5.186  12.689   8.433 -0.1264 -0.0401  0.2382
  445POPI   C1B 7037   4.805  11.843   9.628 -0.0912  0.0659  0.0870
  445POPI   C2B 7038   4.861  11.936   9.229 -0.3852 -0.0595  0.1197
  445POPI   C3B 7039   4.857  12.004   8.791 -0.0352 -0.0821  0.0865
  445POPI   C4B 7040   4.863  12.197   8.313  0.0559 -0.0966 -0.5444
  446POPI    C1 7041   2.894   1.954  10.822  0.0247  0.3021 -0.1031
  446POPI    C2 7042   2.639   1.763  11.063  0.3230 -0.0583 -0.0633
  446POPI    C3 7043   2.773   2.126  11.162  0.0700  0.0014  0.0691
  446POPI   PO4 7044   2.671   1.930  10.552 -0.1328 -0.0806 -0.0669
  446POPI   GL1 7045   2.704   1.869  10.076  0.2423  0.0650 -0.0372
  446POPI   GL2 7046   2.689   1.587  10.179  0.1547 -0.0370 -0.1196
  446POPI   C1A 7047   2.682   2.128   9.753  0.0077 -0.2229  0.1823
  446POPI   D2A 7048   2.774   2.228   9.276  0.2089  0.4253  0.0899
  446POPI   C3A 7049   2.559   2.091   8.950  0.3239 -0.0030 -0.2408
  446POPI   C4A 7050   2.588   2.080   8.422  0.2466  0.2888 -0.3052
  446POPI   C1B 7051   2.634   1.648   9.639  0.0312  0.0856 -0.3473
  446POPI   C2B 7052   2.719   1.582   9.160  0.2864 -0.0354  0.0654
  446POPI   C3B 7053   2.692   1.597   8.745  0.2412 -0.0451  0.1299
  446POPI   C4B 7054   2.848   1.545   8.358  0.1388 -0.1596  0.0293
  447POPI    C1 7055  13.146   0.621  11.185 -0.2153 -0.1284 -0.1133
  447POPI    C2 7056  13.026   0.922  11.420 -0.1409 -0.2349  0.0629
  447POPI    C3 7057  12.833   0.571  11.429  0.0127 -0.3184  0.1466
  447POPI   PO4 7058  13.209   0.694  10.982  0.0528  0.4947  0.1257
  447POPI   GL1 7059  13.215   0.654  10.593  0.0133 -0.1046  0.1795
  447POPI   GL2 7060  13.484   0.514  10.498  0.1415  0.0495  0.2472
  447POPI   C1A 7061  13.030   0.598  10.190 -0.0092 -0.2986 -0.0737
  447POPI   D2A 7062  12.918   0.498   9.804  0.1895 -0.3994 -0.0387
  447POPI   C3A 7063  13.034   0.354   9.386  0.0466  0.0327  0.2261
  447POPI   C4A 7064  12.934   0.356   8.956  0.1327 -0.1835  0.2975
  447POPI   C1B 7065  13.456   0.409  10.037  0.2321  0.0804  0.2090
  447POPI   C2B 7066  13.465   0.237   9.644  0.2138 -0.0926  0.0205
  447POPI   C3B 7067  13.443   0.119   9.168 -0.2587 -0.1719 -0.0882
  447POPI   C4B 7068  13.421   0.103   8.744 -0.2793  0.3455  0.0566
  448POPI    C1 7069  13.965   2.757  10.783  0.3098  0.0983  0.3758
  448POPI    C2 7070  13.895   2.385  10.912 -0.0633  0.0665  0.0971
  448POPI    C3 7071  13.777   2.698  11.131 -0.0063  0.0197  0.1952
  448POPI   PO4 7072  13.956   2.758  10.500  0.2606  0.0648  0.0578
  448POPI   GL1 7073  13.917   2.588  10.103  0.0998  0.0806  0.1877
  448POPI   GL2 7074  13.917   2.335   9.944  0.0020  0.4478 -0.2248
  448POPI   C1A 7075  14.175   2.713   9.715  0.3688  0.0347 -0.0174
  448POPI   D2A 7076  14.508   2.593   9.351 -0.1764  0.0647  0.2059
  448POPI   C3A 7077  14.403   2.345   9.008 -0.2814  0.0736 -0.2222
  448POPI   C4A 7078  14.514   2.254   8.567 -0.1116 -0.2133  0.0674
  448POPI   C1B 7079  13.746   2.433   9.499 -0.1810 -0.1177  0.0262
  448POPI   C2B 7080  13.906   2.440   9.066  0.1107 -0.0938  0.3740
  448POPI   C3B 7081  14.049   2.366   8.640  0.1461 -0.0976 -0.3293
  448POPI   C4B 7082  14.052   2.360   8.223 -0.2292  0.2144  0.1687
  449POPI    C1 7083   6.048   9.864  10.506 -0.0363  0.0394 -0.0376
  449POPI    C2 7084   5.745  10.089  10.640 -0.0051  0.1676 -0.1791
  449POPI    C3 7085   5.824   9.736  10.812 -0.1216  0.2154 -0.0252
  449POPI   PO4 7086   5.989   9.976  10.197  0.3366 -0.1152  0.0564
  449POPI   GL1 7087   5.988  10.080   9.833  0.1510  0.0445  0.0744
  449POPI   GL2 7088   6.239   9.687   9.782  0.1436 -0.3894  0.0954
  449POPI   C1A 7089   6.114  10.302   9.519 -0.2354  0.1347 -0.0119
  449POPI   D2A 7090   6.103  10.359   9.163  0.1275  0.0195  0.1499
  449POPI   C3A 7091   6.182  10.247   8.794  0.2646  0.2100 -0.0480
  449POPI   C4A 7092   6.345  10.509   8.437 -0.5121  0.0123 -0.1048
  449POPI   C1B 7093   6.255   9.763   9.361  0.0905 -0.0050 -0.0805
  449POPI   C2B 7094   6.159   9.645   8.869 -0.1764  0.3162  0.1815
  449POPI   C3B 7095   6.128   9.600   8.451  0.0309  0.1199 -0.0235
  449POPI   C4B 7096   5.917   9.478   8.011  0.0656  0.1459 -0.0489
  450POPI    C1 7097   5.670  14.865  11.089  0.0227  0.1239  0.0691
  450POPI    C2 7098   5.864  14.778  11.428  0.0651  0.3437  0.1027
  450POPI    C3 7099   5.476  14.874  11.438 -0.0363 -0.0424  0.0416
  450POPI   PO4 7100   5.757  14.968  10.952 -0.0030 -0.0673 -0.2217
  450POPI   GL1 7101   6.105  14.924  10.617  0.0920  0.0007 -0.3583
  450POPI   GL2 7102   6.274  14.740  10.598 -0.2612  0.2036 -0.0780
  450POPI   C1A 7103   6.197  15.077  10.180  0.0059 -0.0328  0.0224
  450POPI   D2A 7104   6.194  15.059   9.761 -0.1933  0.1982  0.2312
  450POPI   C3A 7105   6.140  15.071   9.412  0.1122  0.0510  0.1557
  450POPI   C4A 7106   6.126  15.175   9.018  0.4066  0.1699 -0.2360
  450POPI   C1B 7107   5.933  14.653  10.136 -0.0027  0.0044  0.0059
  450POPI   C2B 7108   5.754  14.702   9.757  0.0273  0.2349  0.0454
  450POPI   C3B 7109   5.741  14.682   9.371  0.1676 -0.2341  0.0772
  450POPI   C4B 7110   5.749  14.841   8.938 -0.0759 -0.1247  0.2042
  451POPI    C1 7111  15.778   0.748  10.792  0.0712 -0.2148 -0.1024
  451POPI    C2 7112  15.475   0.691  11.047  0.1481 -0.1243  0.0105
  451POPI    C3 7113  15.840   0.555  11.137  0.2116  0.0540  0.0257
  451POPI   PO4 7114  15.725   1.101  10.734  0.2322  0.1778 -0.1415
  451POPI   GL1 7115  15.990   1.392  10.507  0.0304  0.2360  0.2155
  451POPI   GL2 7116  16.147   1.649  10.252 -0.0281  0.2676  0.1596
  451POPI   C1A 7117  15.904   1.275  10.091 -0.1593 -0.0517 -0.1594
  451POPI   D2A 7118  15.925   1.127   9.720 -0.1724 -0.3479 -0.1001
  451POPI   C3A 7119  15.923   1.363   9.367  0.1505 -0.0210 -0.1284
  451POPI   C4A 7120  15.990   1.322   8.956  0.1566 -0.1822  0.0798
  451POPI   C1B 7121  16.068   1.680   9.778  0.2506 -0.0160 -0.3074
  451POPI   C2B 7122  16.367   1.675   9.373 -0.0556  0.2496 -0.2481
  451POPI   C3B 7123  16.320   1.677   9.004 -0.0822  0.1798  0.0051
  451POPI   C4B 7124  16.273   1.767   8.541 -0.1190  0.1647 -0.0446
  452POPI    C1 7125   2.979  12.862  10.840  0.0520 -0.1468  0.1486
  452POPI    C2 7126   2.589  12.859  10.751  0.0622 -0.0464  0.0989
  452POPI    C3 7127   2.726  12.640  11.056 -0.0630  0.0708  0.2412
  452POPI   PO4 7128   3.094  12.834  10.681 -0.0683  0.0294  0.1955
  452POPI   GL1 7129   3.186  13.107  10.354  0.0399  0.4316 -0.1444
  452POPI   GL2 7130   2.876  12.982  10.263  0.1632 -0.3609  0.2963
  452POPI   C1A 7131   3.336  13.099   9.991  0.1413  0.0203 -0.2128
  452POPI   D2A 7132   3.162  13.098   9.658  0.0324  0.1345 -0.2892
  452POPI   C3A 7133   3.222  13.006   9.260  0.1571 -0.0350  0.0016
  452POPI   C4A 7134   3.254  13.177   8.885  0.1220  0.0217  0.1906
  452POPI   C1B 7135   2.784  13.319   9.961  0.1774 -0.2040  0.1840
  452POPI   C2B 7136   2.735  13.325   9.482 -0.1368 -0.1208  0.1747
  452POPI   C3B 7137   2.766  13.273   9.022 -0.1379 -0.3130  0.3465
  452POPI   C4B 7138   2.891  13.223   8.572  0.2341  0.3848 -0.1244
  453POPI    C1 7139   0.445  14.627  10.983 -0.1796 -0.1323 -0.0743
  453POPI    C2 7140   0.534  14.538  10.604 -0.1748  0.0307 -0.1123
  453POPI    C3 7141   0.312  14.286  10.821 -0.1956 -0.0532 -0.2297
  453POPI   PO4 7142   0.716  14.853  10.955 -0.3345  0.0212  0.0350
  453POPI   GL1 7143   0.588  15.032  10.573 -0.0822  0.1497 -0.2436
  453POPI   GL2 7144   0.386  15.464  10.550 -0.0188  0.5328 -0.1646
  453POPI   C1A 7145   0.859  15.285  10.241 -0.2320 -0.2035  0.4380
  453POPI   D2A 7146   0.844  15.298   9.731  0.1831 -0.1091  0.1799
  453POPI   C3A 7147   0.814  15.324   9.362 -0.1725 -0.0275  0.1105
  453POPI   C4A 7148   0.725  15.292   8.920 -0.2620 -0.0257  0.2149
  453POPI   C1B 7149   0.395  15.258  10.141  0.3327  0.2236 -0.0248
  453POPI   C2B 7150   0.336  15.316   9.731  0.2132  0.0565 -0.0699
  453POPI   C3B 7151   0.265  15.414   9.348  0.2075 -0.3966 -0.2118
  453POPI   C4B 7152   0.264  15.422   8.890 -0.4025 -0.2227  0.0997
  454POPI    C1 7153  16.508   7.281   9.792 -0.1560 -0.0228 -0.1475
  454POPI    C2 7154  16.205   7.318  10.051 -0.1021  0.0527 -0.0946
  454POPI    C3 7155  16.572   7.438  10.154 -0.1173  0.2599 -0.2742
  454POPI   PO4 7156  16.392   7.462   9.587  0.1160  0.1954 -0.1070
  454POPI   GL1 7157  16.294   7.675   9.212  0.1766 -0.0341 -0.1213
  454POPI   GL2 7158  16.520   7.512   9.061 -0.2627  0.0383 -0.0687
  454POPI   C1A 7159  16.109   7.774   8.839  0.0193  0.0760  0.1563
  454POPI   D2A 7160  16.159   7.779   8.417 -0.0473  0.1817  0.1294
  454POPI   C3A 7161  16.484   7.624   8.126  0.3011  0.1267 -0.2771
  454POPI   C4A 7162  16.643   7.586   7.651 -0.0484 -0.2321 -0.0345
  454POPI   C1B 7163  16.425   7.335   8.712  0.2696  0.1989  0.0019
  454POPI   C2B 7164  16.549   7.003   8.458 -0.1004  0.1265 -0.0997
  454POPI   C3B 7165  16.533   6.796   8.105 -0.1653 -0.0481 -0.1780
  454POPI   C4B 7166  16.339   6.340   8.093  0.0681 -0.1620 -0.0059
  455POPI    C1 7167   4.154  17.067  11.033 -0.1107 -0.0484  0.1631
  455POPI    C2 7168   4.252  16.705  11.171 -0.0484  0.0139  0.2848
  455POPI    C3 7169   4.216  17.012  11.425 -0.2118  0.0693  0.1963
  455POPI   PO4 7170   4.296  17.063  10.793  0.0942 -0.1015  0.2410
  455POPI   GL1 7171   4.566  16.750  10.538 -0.2834 -0.5163 -0.0193
  455POPI   GL2 7172   4.793  16.859  10.326 -0.0235  0.0418 -0.3367
  455POPI   C1A 7173   4.299  16.717  10.214 -0.2756  0.0694 -0.1110
  455POPI   D2A 7174   4.249  16.659   9.814  0.1281  0.1342  0.2708
  455POPI   C3A 7175   4.334  16.671   9.348  0.1136  0.1855  0.1489
  455POPI   C4A 7176   4.320  16.598   8.946 -0.0712 -0.1623 -0.0240
  455POPI   C1B 7177   4.664  16.975   9.932 -0.0197  0.0081  0.1427
  455POPI   C2B 7178   4.733  16.975   9.492 -0.2769  0.1219 -0.1859
  455POPI   C3B 7179   4.751  16.946   9.092  0.1337 -0.0542  0.0342
  455POPI   C4B 7180   4.657  16.985   8.694  0.2548  0.1306 -0.0573
  456POPI    C1 7181   9.539   8.880  10.529  0.2064 -0.3812 -0.3147
  456POPI    C2 7182   9.396   8.588  10.762 -0.1962  0.0716  0.0266
  456POPI    C3 7183   9.593   8.896  10.925  0.1345  0.0489 -0.3170
  456POPI   PO4 7184   9.484   8.810  10.315 -0.0768  0.0812 -0.2019
  456POPI   GL1 7185   9.776   8.763   9.985 -0.2745 -0.0236  0.2605
  456POPI   GL2 7186   9.582   8.498   9.908 -0.0168 -0.0454 -0.0149
  456POPI   C1A 7187   9.894   8.773   9.505  0.0597  0.4121  0.2017
  456POPI   D2A 7188   9.966   8.774   9.059 -0.1025  0.0377 -0.0641
  456POPI   C3A 7189   9.714   8.851   8.730  0.2828 -0.3489  0.0214
  456POPI   C4A 7190   9.626   8.784   8.267  0.2383 -0.0991 -0.0900
  456POPI   C1B 7191   9.711   8.297   9.696  0.0948  0.4546 -0.0425
  456POPI   C2B 7192   9.885   8.316   9.296  0.3540 -0.0634  0.0731
  456POPI   C3B 7193   9.746   8.382   8.864  0.2588 -0.0662 -0.0320
  456POPI   C4B 7194   9.713   8.331   8.474  0.1904 -0.0577  0.0912
  457POPI    C1 7195  16.226   4.533  10.404 -0.2614  0.0280  0.0570
  457POPI    C2 7196  16.573   4.460  10.590 -0.0288 -0.0099 -0.3794
  457POPI    C3 7197  16.367   4.793  10.673 -0.0121 -0.1027  0.0553
  457POPI   PO4 7198  16.300   4.501  10.092 -0.3593  0.1185  0.0756
  457POPI   GL1 7199  16.022   4.103   9.892 -0.0180 -0.2162  0.1992
  457POPI   GL2 7200  16.045   3.785  10.016 -0.1461  0.0201  0.1963
  457POPI   C1A 7201  15.919   4.330   9.422  0.4404  0.1424 -0.0452
  457POPI   D2A 7202  15.903   4.390   9.042  0.0904 -0.1619 -0.0495
  457POPI   C3A 7203  15.911   4.349   8.610  0.0095 -0.0419 -0.1802
  457POPI   C4A 7204  15.905   4.167   8.231 -0.2810 -0.0442 -0.0213
  457POPI   C1B 7205  16.097   3.735   9.525 -0.0818  0.0355  0.0551
  457POPI   C2B 7206  16.014   3.571   9.105 -0.0461 -0.2687  0.0124
  457POPI   C3B 7207  16.123   3.285   8.764 -0.0436 -0.0153  0.4057
  457POPI   C4B 7208  16.132   3.029   8.372 -0.0407  0.2528 -0.0806
  458POPI    C1 7209   4.929   2.115  10.878 -0.0059  0.1282 -0.0489
  458POPI    C2 7210   4.764   2.404  11.100  0.0643  0.0657  0.0858
  458POPI    C3 7211   5.160   2.397  11.042  0.0345  0.1467 -0.1368
  458POPI   PO4 7212   4.722   2.107  10.599  0.2465  0.0337  0.1312
  458POPI   GL1 7213   4.489   1.836  10.322  0.1124  0.0812 -0.3190
  458POPI   GL2 7214   4.774   1.874  10.154 -0.0946 -0.1053  0.1674
  458POPI   C1A 7215   4.376   1.971   9.886 -0.0009 -0.1552  0.2748
  458POPI   D2A 7216   4.469   1.886   9.468 -0.1452 -0.1779  0.0446
  458POPI   C3A 7217   4.545   1.895   8.996 -0.1000  0.2472 -0.0771
  458POPI   C4A 7218   4.536   1.900   8.582  0.0415 -0.0791 -0.3893
  458POPI   C1B 7219   4.997   1.824   9.705  0.5790  0.2334 -0.0910
  458POPI   C2B 7220   4.990   1.685   9.267  0.0233  0.0486 -0.1639
  458POPI   C3B 7221   5.137   1.744   8.881  0.2814 -0.2917 -0.1945
  458POPI   C4B 7222   5.197   1.694   8.416 -0.2870 -0.0043 -0.0761
  459POPI    C1 7223  17.013   4.022  10.086 -0.1522 -0.0326 -0.0520
  459POPI    C2 7224  16.917   4.401  10.173 -0.4290 -0.1172  0.0191
  459POPI    C3 7225  16.925   4.125  10.463  0.3627 -0.0505  0.0811
  459POPI   PO4 7226  17.229   4.079   9.949  0.0366  0.0363 -0.1432
  459POPI   GL1 7227  17.287   4.268   9.569  0.0633  0.3052  0.2145
  459POPI   GL2 7228  17.068   4.479   9.697  0.1139 -0.1227  0.3257
  459POPI   C1A 7229  17.303   4.324   9.081 -0.0025 -0.0282  0.1671
  459POPI   D2A 7230  17.240   4.225   8.718 -0.3192  0.1853 -0.1255
  459POPI   C3A 7231  17.180   4.477   8.439 -0.2181 -0.4611  0.3757
  459POPI   C4A 7232  17.130   4.877   8.126 -0.3392  0.0752  0.1985
  459POPI   C1B 7233  16.925   4.552   9.305 -0.1922  0.1888 -0.0267
  459POPI   C2B 7234  16.879   4.600   8.942 -0.1678 -0.2270  0.2453
  459POPI   C3B 7235  16.759   4.388   8.721 -0.0308  0.1820 -0.1016
  459POPI   C4B 7236  16.474   4.221   8.495  0.0057  0.0117 -0.2191
  460POPI    C1 7237  17.276   3.071  10.448  0.1895  0.2762 -0.0166
  460POPI    C2 7238  17.485   2.770  10.289  0.0623  0.2244 -0.0868
  460POPI    C3 7239  17.306   2.724  10.644  0.1813  0.2736 -0.0199
  460POPI   PO4 7240  17.032   3.136  10.260 -0.1267  0.1867  0.1702
  460POPI   GL1 7241  17.015   3.384   9.902  0.1279  0.1303  0.0869
  460POPI   GL2 7242  16.752   3.273   9.822  0.2052 -0.2659 -0.2201
  460POPI   C1A 7243  17.008   3.671   9.530 -0.0799  0.3320  0.2971
  460POPI   D2A 7244  16.886   3.994   9.470 -0.1190  0.1252 -0.1762
  460POPI   C3A 7245  16.866   4.083   9.096  0.1918 -0.2056 -0.1325
  460POPI   C4A 7246  16.887   3.860   8.625 -0.0672  0.0941 -0.2530
  460POPI   C1B 7247  16.815   3.220   9.429 -0.2187  0.0470  0.0799
  460POPI   C2B 7248  17.015   3.325   8.949 -0.1493  0.2187  0.3747
  460POPI   C3B 7249  16.931   3.302   8.489 -0.1465 -0.0485 -0.0370
  460POPI   C4B 7250  17.099   2.985   8.171 -0.4525 -0.1284  0.2882
  461POPI    C1 7251   4.541  10.114  10.582  0.1108  0.0730  0.2318
  461POPI    C2 7252   4.835   9.972  10.814  0.1151 -0.0506  0.1514
  461POPI    C3 7253   4.476  10.053  10.972  0.1263 -0.1084  0.2067
  461POPI   PO4 7254   4.557   9.983  10.353  0.2606  0.0458  0.0205
  461POPI   GL1 7255   4.487   9.993   9.899  0.0611  0.1465  0.0268
  461POPI   GL2 7256   4.429  10.236   9.842 -0.0028  0.0210  0.1629
  461POPI   C1A 7257   4.627   9.929   9.536  0.1495  0.0674  0.1195
  461POPI   D2A 7258   4.645  10.011   9.154  0.1198 -0.0869  0.0581
  461POPI   C3A 7259   4.545   9.929   8.772 -0.2333  0.0837  0.0174
  461POPI   C4A 7260   4.498  10.052   8.363 -0.2873  0.0985 -0.0302
  461POPI   C1B 7261   4.330  10.384   9.458 -0.2995  0.0419  0.1506
  461POPI   C2B 7262   4.427  10.448   9.119 -0.1234 -0.1196 -0.1355
  461POPI   C3B 7263   4.395  10.458   8.695  0.1531  0.2780 -0.0389
  461POPI   C4B 7264   4.363  10.494   8.263 -0.0273 -0.0507  0.2068
  462POPI    C1 7265  15.271   8.244  10.130  0.1209  0.2980 -0.0433
  462POPI    C2 7266  15.511   8.367  10.425  0.1349  0.0310  0.0598
  462POPI    C3 7267  15.420   7.979  10.390 -0.2205  0.1184 -0.0249
  462POPI   PO4 7268  15.349   8.453   9.954 -0.0975  0.1918  0.4588
  462POPI   GL1 7269  15.326   8.676   9.555 -0.4980 -0.2728  0.1296
  462POPI   GL2 7270  15.577   8.642   9.417  0.0329 -0.2797  0.2362
  462POPI   C1A 7271  15.091   8.768   9.191  0.2110  0.1044 -0.0723
  462POPI   D2A 7272  15.032   8.823   8.675  0.2135  0.0070 -0.0310
  462POPI   C3A 7273  15.043   8.917   8.262 -0.0884  0.0044 -0.1583
  462POPI   C4A 7274  14.930   9.223   8.076 -0.3726 -0.0535  0.1263
  462POPI   C1B 7275  15.601   8.646   9.019  0.1997 -0.1163  0.1332
  462POPI   C2B 7276  15.480   8.679   8.610  0.1383  0.2549 -0.1823
  462POPI   C3B 7277  15.686   8.785   8.226  0.1758  0.1140  0.0782
  462POPI   C4B 7278  15.659   8.515   7.794 -0.3447 -0.1727  0.0830
  463POPI    C1 7279   1.405  12.805  10.746 -0.2190 -0.0191 -0.0050
  463POPI    C2 7280   1.057  12.667  10.888 -0.1057 -0.0376  0.2613
  463POPI    C3 7281   1.354  12.759  11.140  0.1110 -0.0957  0.0323
  463POPI   PO4 7282   1.340  12.849  10.428  0.0241  0.0893 -0.3597
  463POPI   GL1 7283   1.295  13.197  10.181 -0.0177 -0.1342 -0.2830
  463POPI   GL2 7284   0.981  13.064  10.181  0.1822  0.0165  0.1241
  463POPI   C1A 7285   1.371  13.292   9.738  0.1746 -0.1547 -0.0732
  463POPI   D2A 7286   1.356  13.377   9.373 -0.4316  0.0614 -0.1044
  463POPI   C3A 7287   1.495  13.339   8.976  0.2085  0.0999  0.2586
  463POPI   C4A 7288   1.283  13.179   8.646  0.1000  0.0939 -0.0737
  463POPI   C1B 7289   0.882  13.297   9.820  0.1821 -0.1592  0.1073
  463POPI   C2B 7290   0.890  13.411   9.507  0.0538  0.1431  0.1584
  463POPI   C3B 7291   0.956  13.346   9.045 -0.1958 -0.1102  0.1144
  463POPI   C4B 7292   0.800  13.538   8.669  0.0583  0.0717  0.4708
  464POPI    C1 7293  12.289   3.497  10.214 -0.1350  0.4810 -0.0168
  464POPI    C2 7294  12.649   3.668  10.180  0.1288 -0.0432  0.0326
  464POPI    C3 7295  12.455   3.678  10.529  0.1670  0.1023  0.0503
  464POPI   PO4 7296  12.176   3.536  10.004 -0.2671 -0.0916 -0.1467
  464POPI   GL1 7297  12.015   3.698   9.724  0.1091 -0.1307 -0.0756
  464POPI   GL2 7298  12.255   3.757   9.577  0.0355  0.0777  0.0661
  464POPI   C1A 7299  12.100   3.351   9.355  0.0790  0.2295  0.1085
  464POPI   D2A 7300  12.186   3.242   8.969 -0.2294 -0.1518 -0.1192
  464POPI   C3A 7301  11.984   3.347   8.640  0.2527 -0.0040  0.0740
  464POPI   C4A 7302  11.852   3.277   8.314 -0.1703 -0.0831 -0.0306
  464POPI   C1B 7303  12.219   3.805   9.133  0.4570 -0.0372 -0.1215
  464POPI   C2B 7304  12.157   3.804   8.702 -0.4259  0.2602 -0.0974
  464POPI   C3B 7305  12.020   3.802   8.250 -0.3531 -0.2233  0.1819
  464POPI   C4B 7306  12.321   3.765   7.910 -0.0011 -0.0392 -0.2186
  465POPI    C1 7307  12.492   1.093  11.107 -0.1502  0.1251  0.0520
  465POPI    C2 7308  12.740   1.347  11.292  0.1059 -0.0191 -0.0875
  465POPI    C3 7309  12.582   1.444  10.937  0.0841  0.0082 -0.0703
  465POPI   PO4 7310  12.630   0.868  11.028  0.2650 -0.1512 -0.1325
  465POPI   GL1 7311  12.685   0.726  10.616  0.2245  0.3401  0.5926
  465POPI   GL2 7312  12.510   1.007  10.578 -0.2370  0.0871 -0.1136
  465POPI   C1A 7313  12.533   0.677  10.146  0.1556  0.1860  0.0555
  465POPI   D2A 7314  12.481   0.642   9.678 -0.2955  0.0860  0.0556
  465POPI   C3A 7315  12.463   0.572   9.339 -0.2791 -0.0171  0.1199
  465POPI   C4A 7316  12.358   0.429   8.910 -0.0912 -0.1375 -0.0699
  465POPI   C1B 7317  12.389   1.201  10.206  0.0918 -0.0872  0.0398
  465POPI   C2B 7318  12.038   1.255   9.915 -0.2097 -0.0792  0.1730
  465POPI   C3B 7319  11.838   1.360   9.485 -0.1405  0.1562  0.0299
  465POPI   C4B 7320  11.826   1.113   9.093 -0.0461  0.2658 -0.1499
  466POPI    C1 7321  15.989  16.770  11.427  0.0652  0.0236  0.1577
  466POPI    C2 7322  16.355  16.714  11.578  0.1500 -0.0197 -0.0619
  466POPI    C3 7323  16.033  16.648  11.806  0.2810  0.2120  0.1953
  466POPI   PO4 7324  15.949  16.678  11.178  0.0357 -0.1313  0.1230
  466POPI   GL1 7325  16.077  16.479  10.830 -0.0850  0.0951 -0.3143
  466POPI   GL2 7326  15.793  16.607  10.710  0.0220  0.3132 -0.1089
  466POPI   C1A 7327  16.250  16.473  10.436 -0.1442 -0.0212  0.1969
  466POPI   D2A 7328  16.272  16.391  10.064  0.0876 -0.0482  0.2297
  466POPI   C3A 7329  16.106  16.420   9.669  0.2129 -0.0529 -0.2120
  466POPI   C4A 7330  16.162  16.502   9.216  0.1155 -0.0789 -0.1311
  466POPI   C1B 7331  15.765  16.542  10.276  0.2084 -0.1476 -0.2713
  466POPI   C2B 7332  15.603  16.532   9.828  0.1389  0.0954 -0.1829
  466POPI   C3B 7333  15.659  16.544   9.406 -0.2647 -0.0707  0.1742
  466POPI   C4B 7334  15.637  16.697   8.910  0.0679 -0.0991 -0.3238
  467POPI    C1 7335  10.974   9.620  10.552 -0.0197 -0.0866 -0.1745
  467POPI    C2 7336  11.012  10.016  10.514  0.1067 -0.0880 -0.0677
  467POPI    C3 7337  10.901   9.859  10.864 -0.0060 -0.1434 -0.1277
  467POPI   PO4 7338  10.910   9.559  10.287 -0.1899 -0.0144  0.3178
  467POPI   GL1 7339  10.945   9.754   9.925 -0.0478 -0.1822  0.1358
  467POPI   GL2 7340  10.978  10.088  10.003  0.2006  0.0945  0.2794
  467POPI   C1A 7341  10.885   9.712   9.522 -0.0553 -0.1762 -0.0461
  467POPI   D2A 7342  10.844   9.703   9.065  0.2256  0.0279 -0.1088
  467POPI   C3A 7343  10.698   9.542   8.713 -0.1152 -0.1355  0.1612
  467POPI   C4A 7344  10.593   9.501   8.301 -0.0755  0.0602 -0.0576
  467POPI   C1B 7345  10.917  10.222   9.614  0.0343 -0.1174  0.2699
  467POPI   C2B 7346  10.670  10.430   9.284  0.0284  0.0085 -0.1626
  467POPI   C3B 7347  10.606  10.711   8.910 -0.1146 -0.0804 -0.0382
  467POPI   C4B 7348  10.617  10.665   8.483  0.0025  0.3183 -0.2511
  468POPI    C1 7349   6.100   6.417  10.482  0.1726  0.1949 -0.0090
  468POPI    C2 7350   6.231   6.513  10.848  0.2592 -0.0510  0.0264
  468POPI    C3 7351   6.069   6.153  10.781  0.0202  0.0815 -0.1232
  468POPI   PO4 7352   6.262   6.409  10.159  0.1215  0.0597 -0.0432
  468POPI   GL1 7353   6.283   6.493   9.737  0.0355 -0.0872  0.0557
  468POPI   GL2 7354   6.527   6.719   9.719  0.1326 -0.0783 -0.0270
  468POPI   C1A 7355   6.191   6.226   9.396  0.1794 -0.1172 -0.0753
  468POPI   D2A 7356   6.292   6.318   8.907 -0.1995  0.0936  0.2653
  468POPI   C3A 7357   6.307   6.397   8.444  0.1795 -0.2106  0.1801
  468POPI   C4A 7358   6.166   6.223   8.123  0.1962 -0.0199 -0.0814
  468POPI   C1B 7359   6.550   6.616   9.289 -0.2421  0.2998  0.0859
  468POPI   C2B 7360   6.510   6.762   8.840 -0.0726 -0.1811  0.0339
  468POPI   C3B 7361   6.411   6.850   8.516  0.0615  0.2731 -0.0693
  468POPI   C4B 7362   6.106   6.814   8.213 -0.0564  0.5048  0.1259
  469POPI    C1 7363   0.195   8.689   9.915  0.2275  0.0864  0.1351
  469POPI    C2 7364   0.105   8.802  10.288 -0.0823 -0.0853  0.1157
  469POPI    C3 7365   0.318   8.469  10.226 -0.0924 -0.0958  0.1372
  469POPI   PO4 7366  -0.018   8.847   9.811 -0.0839  0.0251  0.0155
  469POPI   GL1 7367  -0.133   9.034   9.451  0.1020 -0.0244  0.2706
  469POPI   GL2 7368   0.100   9.281   9.609  0.1268  0.0721  0.0666
  469POPI   C1A 7369  -0.154   9.055   9.052 -0.0390  0.1928  0.2213
  469POPI   D2A 7370  -0.084   9.211   8.685  0.2048 -0.1165 -0.1388
  469POPI   C3A 7371  -0.268   9.002   8.301 -0.1672  0.3779 -0.2623
  469POPI   C4A 7372  -0.582   8.976   7.940  0.2665  0.0687 -0.1059
  469POPI   C1B 7373   0.245   9.439   9.231 -0.2308  0.1842 -0.2411
  469POPI   C2B 7374   0.228   9.583   8.844  0.0024 -0.0431  0.0387
  469POPI   C3B 7375   0.305   9.587   8.391 -0.0972  0.1028  0.0059
  469POPI   C4B 7376   0.263   9.800   8.116 -0.0911 -0.2813  0.1086
  470POPI    C1 7377  14.597   9.696  10.584  0.1837 -0.1977  0.1847
  470POPI    C2 7378  14.672  10.088  10.560 -0.2221 -0.1353 -0.1924
  470POPI    C3 7379  14.972   9.825  10.535  0.0626  0.1473  0.1398
  470POPI   PO4 7380  14.457   9.598  10.408  0.1989 -0.0784  0.1546
  470POPI   GL1 7381  14.404   9.575   9.907 -0.1825  0.6511 -0.0395
  470POPI   GL2 7382  14.172   9.778   9.806 -0.2720  0.1736 -0.1769
  470POPI   C1A 7383  14.488   9.416   9.541  0.0409 -0.1198  0.1740
  470POPI   D2A 7384  14.170   9.506   9.211 -0.0268  0.0184 -0.0384
  470POPI   C3A 7385  14.264   9.604   8.803  0.1250 -0.2247  0.1364
  470POPI   C4A 7386  13.933   9.717   8.558 -0.1727  0.0147 -0.2701
  470POPI   C1B 7387  14.236  10.005   9.436  0.2563 -0.0564  0.0824
  470POPI   C2B 7388  14.176  10.099   8.963 -0.0142 -0.1855  0.2957
  470POPI   C3B 7389  14.379  10.038   8.458 -0.4470  0.1400 -0.0881
  470POPI   C4B 7390  14.075  10.068   8.129 -0.1391  0.0305  0.1158
  471POPI    C1 7391  16.771   5.368  10.101  0.1775 -0.2175  0.1586
  471POPI    C2 7392  16.832   5.737  10.243  0.0872 -0.0536 -0.2152
  471POPI    C3 7393  16.507   5.532  10.352 -0.0632  0.1331 -0.3074
  471POPI   PO4 7394  16.721   5.358   9.823  0.3080  0.0577 -0.1399
  471POPI   GL1 7395  16.536   5.424   9.406 -0.3896  0.2149  0.0158
  471POPI   GL2 7396  16.533   5.778   9.380 -0.2944 -0.1012 -0.0684
  471POPI   C1A 7397  16.450   5.382   8.978 -0.2097  0.3661  0.2438
  471POPI   D2A 7398  16.466   5.237   8.560  0.1716 -0.0780 -0.1855
  471POPI   C3A 7399  16.162   5.185   8.329 -0.3022  0.1352  0.0196
  471POPI   C4A 7400  16.110   5.040   7.920 -0.0444 -0.3426  0.1242
  471POPI   C1B 7401  16.491   5.911   8.956 -0.2628  0.4078  0.0188
  471POPI   C2B 7402  16.528   5.776   8.582  0.0185  0.2134  0.0366
  471POPI   C3B 7403  16.589   5.901   8.239 -0.1284 -0.1092 -0.0781
  471POPI   C4B 7404  16.327   5.868   7.886 -0.1125 -0.1024  0.1663
  472POPI    C1 7405  15.141   5.881  10.437  0.0669  0.0701  0.2162
  472POPI    C2 7406  15.540   5.894  10.417  0.0699 -0.0946  0.1537
  472POPI    C3 7407  15.361   5.797  10.761  0.0793  0.1287  0.2230
  472POPI   PO4 7408  15.095   5.825  10.224 -0.0916 -0.0348  0.1204
  472POPI   GL1 7409  15.293   5.978   9.786  0.3029 -0.2052 -0.0173
  472POPI   GL2 7410  15.204   5.708   9.763  0.1378  0.1572  0.0473
  472POPI   C1A 7411  15.141   6.043   9.396 -0.2331 -0.0038  0.1746
  472POPI   D2A 7412  14.948   6.287   9.086  0.0964  0.3544 -0.0531
  472POPI   C3A 7413  14.864   6.424   8.656 -0.3779 -0.2926 -0.0470
  472POPI   C4A 7414  14.830   6.289   8.261 -0.1785 -0.0566 -0.1711
  472POPI   C1B 7415  15.269   5.377   9.402  0.0940 -0.0886 -0.4805
  472POPI   C2B 7416  15.524   5.244   9.223  0.2743  0.0902 -0.0335
  472POPI   C3B 7417  15.629   5.437   8.823  0.2109  0.2912 -0.0628
  472POPI   C4B 7418  15.558   5.744   8.490  0.1947 -0.0146  0.2141
  473DPPI    C1 7419  12.146   1.742  10.947  0.2247 -0.0610 -0.0257
  473DPPI    C2 7420  12.443   1.925  11.141  0.0117  0.0976  0.1556
  473DPPI    C3 7421  12.082   1.895  11.311 -0.1744  0.2221 -0.2069
  473DPPI   PO4 7422  12.103   1.786  10.663 -0.1216 -0.1591  0.1001
  473DPPI   GL1 7423  12.211   1.922  10.290 -0.2796 -0.3313  0.0001
  473DPPI   GL2 7424  12.207   2.249  10.387 -0.0925 -0.0236 -0.2097
  473DPPI   C1A 7425  11.996   1.738  10.064  0.3601 -0.1246 -0.1256
  473DPPI   C2A 7426  12.058   1.797   9.587  0.3922 -0.1420  0.0212
  473DPPI   C3A 7427  12.081   1.715   9.196 -0.1763 -0.0330 -0.0358
  473DPPI   C4A 7428  12.209   1.432   8.903 -0.1400 -0.1232  0.5340
  473DPPI   C1B 7429  12.204   2.483   9.947  0.0161 -0.0916 -0.3296
  473DPPI   C2B 7430  11.973   2.356   9.578  0.1935  0.0544 -0.3185
  473DPPI   C3B 7431  12.078   2.226   9.159 -0.0808  0.1677  0.1283
  473DPPI   C4B 7432  12.195   1.933   8.778  0.2065  0.0201 -0.0892
  474DPPI    C1 7433  13.599  15.905  11.210 -0.0854 -0.0391 -0.1938
  474DPPI    C2 7434  13.264  15.903  11.428 -0.1993  0.1841 -0.3618
  474DPPI    C3 7435  13.599  16.062  11.578 -0.0471 -0.4207 -0.0270
  474DPPI   PO4 7436  13.475  16.011  10.959  0.0442  0.2027  0.0013
  474DPPI   GL1 7437  13.466  16.118  10.575 -0.2435  0.0860 -0.1224
  474DPPI   GL2 7438  13.810  16.166  10.550  0.0757 -0.0184  0.4716
  474DPPI   C1A 7439  13.344  16.181  10.131 -0.0211  0.0591  0.0702
  474DPPI   C2A 7440  13.403  16.202   9.722  0.2803 -0.4565  0.1423
  474DPPI   C3A 7441  13.363  16.346   9.234  0.0699  0.2998  0.1106
  474DPPI   C4A 7442  13.423  16.408   8.895 -0.0274 -0.0204 -0.0294
  474DPPI   C1B 7443  13.808  16.039  10.182  0.1672 -0.0344 -0.0149
  474DPPI   C2B 7444  13.926  16.067   9.720  0.2084 -0.1910  0.1330
  474DPPI   C3B 7445  13.829  16.081   9.253  0.0404 -0.3146  0.0083
  474DPPI   C4B 7446  13.965  16.145   8.871 -0.1948  0.2621  0.0566
  475DPPI    C1 7447  13.018  17.825  11.119 -0.0238  0.0282 -0.3207
  475DPPI    C2 7448  13.122  18.159  11.313 -0.0045 -0.0842 -0.1362
  475DPPI    C3 7449  12.738  18.049  11.296 -0.0135 -0.0409 -0.2163
  475DPPI   PO4 7450  13.148  17.823  10.851 -0.1540 -0.1260 -0.0439
  475DPPI   GL1 7451  13.123  18.119  10.504  0.0325  0.2947  0.3253
  475DPPI   GL2 7452  12.977  17.798  10.388  0.1737  0.0584  0.2738
  475DPPI   C1A 7453  13.124  18.025   9.992 -0.1720  0.1100  0.1500
  475DPPI   C2A 7454  13.140  17.813   9.557  0.1265 -0.0904  0.1178
  475DPPI   C3A 7455  13.071  17.825   9.088 -0.1709  0.2070 -0.2803
  475DPPI   C4A 7456  13.258  17.640   8.651  0.0713  0.1074 -0.1438
  475DPPI   C1B 7457  12.998  17.573  10.109 -0.3189  0.1096  0.0108
  475DPPI   C2B 7458  12.725  17.421   9.781 -0.0479  0.1489 -0.0026
  475DPPI   C3B 7459  12.611  17.500   9.367  0.1697 -0.2774 -0.0797
  475DPPI   C4B 7460  12.721  17.475   8.992 -0.1430 -0.1327 -0.3272
  476DPPI    C1 7461  11.704  16.649  11.142 -0.1190  0.0494  0.0388
  476DPPI    C2 7462  11.726  17.016  10.984 -0.1070  0.0252 -0.0160
  476DPPI    C3 7463  11.468  16.940  11.280 -0.1424  0.0662 -0.0362
  476DPPI   PO4 7464  11.693  16.399  10.948  0.0104  0.0538  0.3221
  476DPPI   GL1 7465  11.487  16.417  10.485  0.1974 -0.1934 -0.5447
  476DPPI   GL2 7466  11.777  16.377  10.307  0.0738 -0.2009 -0.0013
  476DPPI   C1A 7467  11.346  16.746  10.191 -0.1731 -0.0514  0.0293
  476DPPI   C2A 7468  11.331  16.760   9.820  0.1622 -0.0987 -0.1438
  476DPPI   C3A 7469  11.404  16.862   9.329 -0.1183  0.2637  0.2244
  476DPPI   C4A 7470  11.452  16.974   8.980 -0.2635  0.2535  0.0701
  476DPPI   C1B 7471  11.739  16.430   9.854  0.1071  0.0416  0.1873
  476DPPI   C2B 7472  11.595  16.381   9.449 -0.2702 -0.2089  0.1932
  476DPPI   C3B 7473  11.592  16.496   9.012  0.2394 -0.1513  0.1461
  476DPPI   C4B 7474  11.564  16.568   8.641  0.1488  0.2531 -0.2605
  477DPPI    C1 7475   5.118   9.306  10.774  0.0930  0.1132 -0.0060
  477DPPI    C2 7476   5.516   9.322  10.744  0.1187  0.0317  0.2633
  477DPPI    C3 7477   5.341   9.006  10.916 -0.0664  0.0414  0.0960
  477DPPI   PO4 7478   5.057   9.405  10.434 -0.2357  0.0006  0.0053
  477DPPI   GL1 7479   5.198   9.410  10.028  0.0588  0.0991  0.0456
  477DPPI   GL2 7480   4.990   9.128   9.893 -0.1257  0.0412  0.0634
  477DPPI   C1A 7481   5.344   9.349   9.718  0.2052  0.3399  0.0648
  477DPPI   C2A 7482   5.308   9.411   9.215  0.1046  0.0050 -0.2415
  477DPPI   C3A 7483   5.414   9.432   8.885  0.1042  0.0006 -0.0318
  477DPPI   C4A 7484   5.217   9.414   8.607  0.0981  0.0276 -0.0421
  477DPPI   C1B 7485   4.958   9.068   9.471 -0.0062 -0.2379 -0.1519
  477DPPI   C2B 7486   4.966   9.049   9.051 -0.0769  0.1709 -0.1764
  477DPPI   C3B 7487   4.850   8.885   8.721 -0.1033  0.0480 -0.2344
  477DPPI   C4B 7488   4.795   9.021   8.366 -0.1789  0.5159 -0.0726
  478DPPI    C1 7489   4.225   7.611  10.387 -0.0424 -0.0828  0.0549
  478DPPI    C2 7490   3.973   7.729  10.675  0.0003  0.1022  0.0175
  478DPPI    C3 7491   4.366   7.793  10.715 -0.0082  0.2687 -0.1502
  478DPPI   PO4 7492   4.207   7.734  10.195  0.0852  0.2943  0.0305
  478DPPI   GL1 7493   4.072   7.693   9.826  0.3761  0.0310  0.0189
  478DPPI   GL2 7494   3.798   7.588   9.763  0.0438 -0.0675 -0.0806
  478DPPI   C1A 7495   4.321   7.851   9.458  0.1810 -0.1172  0.1225
  478DPPI   C2A 7496   4.435   7.874   9.017  0.0569  0.0211 -0.0332
  478DPPI   C3A 7497   4.530   8.040   8.648 -0.1233 -0.1970  0.2098
  478DPPI   C4A 7498   4.360   8.157   8.217  0.1050 -0.0522  0.0384
  478DPPI   C1B 7499   3.888   7.670   9.319  0.2046 -0.2940  0.1189
  478DPPI   C2B 7500   3.979   7.671   8.887 -0.1215  0.2731 -0.0579
  478DPPI   C3B 7501   3.948   7.883   8.405 -0.1082 -0.0281  0.0710
  478DPPI   C4B 7502   3.962   7.950   8.025  0.3274 -0.0665  0.2238
  479DPPI    C1 7503  15.735  16.104  11.232 -0.1569 -0.0993  0.1693
  479DPPI    C2 7504  15.979  16.254  11.511  0.0627  0.0755 -0.1112
  479DPPI    C3 7505  16.071  15.910  11.328 -0.2360 -0.2015  0.2425
  479DPPI   PO4 7506  15.679  16.288  11.076 -0.1225 -0.0420 -0.0202
  479DPPI   GL1 7507  15.482  16.156  10.697 -0.1755 -0.0011 -0.1092
  479DPPI   GL2 7508  15.161  15.996  10.628 -0.1406 -0.0348  0.0431
  479DPPI   C1A 7509  15.399  16.189  10.283  0.0333  0.0942  0.0394
  479DPPI   C2A 7510  15.255  16.156   9.836  0.1110  0.2605  0.0399
  479DPPI   C3A 7511  15.211  16.119   9.419  0.1421  0.1064  0.5862
  479DPPI   C4A 7512  15.305  16.258   8.967 -0.0605 -0.1233 -0.2225
  479DPPI   C1B 7513  15.021  15.821  10.242  0.3201 -0.0088 -0.0331
  479DPPI   C2B 7514  14.941  15.784   9.868  0.2870  0.2417  0.3013
  479DPPI   C3B 7515  14.882  15.817   9.409  0.2901 -0.0582  0.0903
  479DPPI   C4B 7516  14.901  15.694   9.006  0.1487  0.0511 -0.1696
  480DPPI    C1 7517  16.872   9.125   9.874 -0.1030 -0.0185  0.0199
  480DPPI    C2 7518  17.077   9.466   9.914 -0.0520 -0.0363 -0.0852
  480DPPI    C3 7519  17.199   9.137  10.105 -0.1176  0.0108  0.0394
  480DPPI   PO4 7520  16.893   9.002   9.679 -0.0964 -0.0447  0.2748
  480DPPI   GL1 7521  17.016   8.907   9.330  0.1635 -0.0673 -0.1692
  480DPPI   GL2 7522  17.058   8.571   9.492 -0.0398 -0.1994 -0.2505
  480DPPI   C1A 7523  17.034   8.932   8.902 -0.0960  0.0945 -0.2695
  480DPPI   C2A 7524  16.862   9.026   8.567  0.0912 -0.0302  0.0442
  480DPPI   C3A 7525  16.719   9.290   8.229  0.1542  0.1526  0.0341
  480DPPI   C4A 7526  16.454   9.277   7.943  0.0597  0.0008 -0.3753
  480DPPI   C1B 7527  17.059   8.300   9.157 -0.0116 -0.0655  0.1594
  480DPPI   C2B 7528  16.990   8.314   8.631 -0.0474 -0.0195 -0.0932
  480DPPI   C3B 7529  16.974   8.280   8.210  0.1765 -0.3547  0.1512
  480DPPI   C4B 7530  16.992   7.934   7.917 -0.2020 -0.0930  0.1048
  481DPPI    C1 7531   1.516   8.150  10.243  0.2183 -0.2055  0.2950
  481DPPI    C2 7532   1.391   7.806  10.081  0.0872  0.0305 -0.1198
  481DPPI    C3 7533   1.185   7.973  10.380 -0.0055 -0.1098 -0.1044
  481DPPI   PO4 7534   1.611   8.305  10.020  0.0114 -0.1527  0.0543
  481DPPI   GL1 7535   1.582   8.459   9.618 -0.2288  0.0000  0.0613
  481DPPI   GL2 7536   1.453   8.689   9.697  0.2837  0.1195  0.3465
  481DPPI   C1A 7537   1.330   8.294   9.289  0.3108  0.0520 -0.1031
  481DPPI   C2A 7538   1.297   8.341   8.854  0.0841 -0.1516 -0.0337
  481DPPI   C3A 7539   1.293   8.423   8.461 -0.0937 -0.1047 -0.0771
  481DPPI   C4A 7540   1.499   8.198   7.962 -0.1026  0.1572  0.2362
  481DPPI   C1B 7541   1.519   8.799   9.268 -0.1570 -0.0026  0.1030
  481DPPI   C2B 7542   1.466   8.869   8.741 -0.2145 -0.0182 -0.1464
  481DPPI   C3B 7543   1.251   8.942   8.339  0.0629 -0.1755 -0.1555
  481DPPI   C4B 7544   1.122   8.894   7.932 -0.0830 -0.1044  0.3387
  482DPPI    C1 7545  11.874   5.840  10.404  0.0882  0.2015 -0.0204
  482DPPI    C2 7546  11.502   5.953  10.309  0.1002  0.0502 -0.2565
  482DPPI    C3 7547  11.568   5.740  10.641 -0.0462 -0.0602 -0.2968
  482DPPI   PO4 7548  11.987   6.034  10.144 -0.0807 -0.2359 -0.0491
  482DPPI   GL1 7549  11.984   5.866   9.793 -0.5614  0.2047  0.2805
  482DPPI   GL2 7550  11.662   5.635   9.949 -0.0848 -0.1709 -0.0427
  482DPPI   C1A 7551  11.815   5.813   9.324  0.2297 -0.3209  0.1248
  482DPPI   C2A 7552  11.715   5.690   8.949  0.0039  0.0818 -0.1091
  482DPPI   C3A 7553  11.509   5.778   8.521 -0.0973  0.3320  0.1911
  482DPPI   C4A 7554  11.696   5.688   8.118 -0.0152 -0.0144 -0.2539
  482DPPI   C1B 7555  11.621   5.442   9.556 -0.2348  0.4391  0.2203
  482DPPI   C2B 7556  11.422   5.362   9.161  0.1555 -0.0626  0.2985
  482DPPI   C3B 7557  11.331   5.290   8.701 -0.2733 -0.0674 -0.1524
  482DPPI   C4B 7558  11.332   5.340   8.272 -0.1817 -0.0522 -0.0575
  483DPPI    C1 7559  14.340   3.668  10.564 -0.1319  0.1142 -0.2151
  483DPPI    C2 7560  14.009   3.809  10.739 -0.0125  0.0053  0.1047
  483DPPI    C3 7561  14.219   3.517  10.914  0.3160  0.1517 -0.0381
  483DPPI   PO4 7562  14.263   3.528  10.307 -0.2761 -0.0118 -0.0561
  483DPPI   GL1 7563  14.055   3.649   9.889 -0.0542 -0.3961  0.0192
  483DPPI   GL2 7564  13.699   3.561   9.832  0.0916  0.1187  0.0168
  483DPPI   C1A 7565  14.082   3.587   9.488 -0.0650 -0.0325 -0.1828
  483DPPI   C2A 7566  14.142   3.449   9.030 -0.0580  0.0131 -0.2214
  483DPPI   C3A 7567  14.089   3.304   8.585 -0.1748  0.1983  0.1118
  483DPPI   C4A 7568  14.301   3.292   8.168  0.0509 -0.0198 -0.1461
  483DPPI   C1B 7569  13.586   3.423   9.464 -0.3503  0.0449 -0.0557
  483DPPI   C2B 7570  13.575   3.377   9.004  0.0027 -0.1296 -0.1821
  483DPPI   C3B 7571  13.614   3.465   8.616 -0.1840 -0.1468 -0.0173
  483DPPI   C4B 7572  13.415   3.554   8.261 -0.2538 -0.1471 -0.3300
  484DPPI    C1 7573   9.407   2.581  10.884 -0.0943 -0.0440  0.0903
  484DPPI    C2 7574   9.648   2.899  10.847 -0.0316 -0.1025 -0.0086
  484DPPI    C3 7575   9.784   2.562  11.016 -0.0932 -0.0828  0.0815
  484DPPI   PO4 7576   9.373   2.532  10.678  0.1632 -0.0214  0.3446
  484DPPI   GL1 7577   9.315   2.273  10.415  0.1897  0.0350 -0.1392
  484DPPI   GL2 7578   9.643   2.204  10.258  0.2366  0.2354  0.0946
  484DPPI   C1A 7579   9.299   2.375   9.982 -0.1145  0.1101  0.1531
  484DPPI   C2A 7580   9.159   2.321   9.635 -0.1609 -0.1023  0.2954
  484DPPI   C3A 7581   9.046   2.412   9.206 -0.1922 -0.0834 -0.0163
  484DPPI   C4A 7582   9.110   2.299   8.705 -0.0095 -0.0210  0.1356
  484DPPI   C1B 7583   9.699   2.129   9.804  0.0320 -0.1638 -0.1235
  484DPPI   C2B 7584   9.566   2.170   9.428  0.0690  0.1869  0.0088
  484DPPI   C3B 7585   9.502   2.186   9.027 -0.0260 -0.0869 -0.0745
  484DPPI   C4B 7586   9.677   2.065   8.666 -0.1912 -0.2836 -0.0283
  485DPPI    C1 7587   7.856   2.380  11.225 -0.2260  0.0908 -0.1381
  485DPPI    C2 7588   7.483   2.330  11.362 -0.1688 -0.1223 -0.0558
  485DPPI    C3 7589   7.717   2.614  11.519 -0.1614 -0.2531  0.1729
  485DPPI   PO4 7590   7.857   2.375  10.972  0.1312 -0.0915  0.0323
  485DPPI   GL1 7591   7.905   2.708  10.624 -0.0206 -0.1916  0.2184
  485DPPI   GL2 7592   7.926   3.004  10.410 -0.2776 -0.2985  0.0753
  485DPPI   C1A 7593   7.928   2.494  10.196 -0.1547 -0.0531  0.0075
  485DPPI   C2A 7594   7.847   2.508   9.741 -0.2336  0.5069  0.1435
  485DPPI   C3A 7595   7.760   2.394   9.299  0.2209  0.0249  0.0194
  485DPPI   C4A 7596   7.729   2.339   8.835 -0.1138 -0.1218 -0.1496
  485DPPI   C1B 7597   7.645   2.913  10.001  0.1418 -0.0539 -0.1042
  485DPPI   C2B 7598   7.633   2.898   9.594 -0.2512 -0.0592  0.1440
  485DPPI   C3B 7599   7.537   2.847   9.180 -0.1457  0.2887 -0.2053
  485DPPI   C4B 7600   7.640   2.796   8.745  0.2605  0.1701  0.3111
  486DPPI    C1 7601   9.409   6.033  10.672  0.0706 -0.1604 -0.1561
  486DPPI    C2 7602   9.432   5.826  11.013 -0.2659 -0.0521 -0.0639
  486DPPI    C3 7603   9.691   6.122  10.941  0.1014 -0.3784 -0.1150
  486DPPI   PO4 7604   9.454   5.836  10.487  0.4086  0.2057  0.3780
  486DPPI   GL1 7605   9.311   5.780  10.090  0.2699 -0.4184 -0.0224
  486DPPI   GL2 7606   9.056   6.009  10.046 -0.2155 -0.0119  0.0680
  486DPPI   C1A 7607   9.573   5.731   9.810  0.4236  0.1609  0.0085
  486DPPI   C2A 7608   9.469   5.654   9.348  0.2684  0.3418 -0.1576
  486DPPI   C3A 7609   9.492   5.556   8.959 -0.0305  0.0579  0.0717
  486DPPI   C4A 7610   9.495   5.530   8.542 -0.0151 -0.2756 -0.2593
  486DPPI   C1B 7611   9.015   5.879   9.643 -0.0008 -0.3368 -0.0531
  486DPPI   C2B 7612   8.994   5.876   9.224  0.0898  0.0491 -0.0715
  486DPPI   C3B 7613   8.903   5.767   8.843  0.0517  0.1515 -0.0872
  486DPPI   C4B 7614   8.958   5.710   8.398  0.3939  0.0884  0.0257
  487DPPI    C1 7615  15.436   0.024  11.330  0.1420  0.1236 -0.0355
  487DPPI    C2 7616  15.318  -0.352  11.260  0.0462  0.1382  0.0450
  487DPPI    C3 7617  15.520  -0.263  11.595  0.0301  0.1662  0.0473
  487DPPI   PO4 7618  15.559   0.116  11.111  0.2787 -0.2001 -0.0875
  487DPPI   GL1 7619  15.599   0.302  10.721 -0.0616  0.1189 -0.0624
  487DPPI   GL2 7620  15.761  -0.051  10.690  0.0658  0.1715  0.0380
  487DPPI   C1A 7621  15.659   0.393  10.273  0.0960  0.2876  0.0572
  487DPPI   C2A 7622  15.547   0.422   9.846  0.2849 -0.1477  0.0274
  487DPPI   C3A 7623  15.638   0.375   9.418  0.1069  0.2466  0.1639
  487DPPI   C4A 7624  15.768   0.504   9.042 -0.0649 -0.1855 -0.0662
  487DPPI   C1B 7625  15.854  -0.077  10.224  0.2032  0.3246  0.2148
  487DPPI   C2B 7626  15.768  -0.070   9.812 -0.3224  0.0156 -0.1997
  487DPPI   C3B 7627  15.813  -0.084   9.352 -0.0319  0.1467  0.0263
  487DPPI   C4B 7628  15.861   0.012   8.919 -0.1366  0.2141  0.2348
  488DPPI    C1 7629  14.897   7.008  10.346 -0.0521  0.1807  0.1998
  488DPPI    C2 7630  15.282   6.931  10.270 -0.2028 -0.1896 -0.2324
  488DPPI    C3 7631  15.042   6.640  10.404 -0.3056  0.0751  0.1765
  488DPPI   PO4 7632  14.822   7.148  10.097  0.0606 -0.0456 -0.2640
  488DPPI   GL1 7633  14.832   7.354   9.650 -0.0036  0.0790 -0.1204
  488DPPI   GL2 7634  14.640   7.054   9.630  0.0506 -0.1756  0.0610
  488DPPI   C1A 7635  14.689   7.307   9.128 -0.0706 -0.0781 -0.1579
  488DPPI   C2A 7636  14.747   7.393   8.754 -0.2574 -0.0173  0.0076
  488DPPI   C3A 7637  14.745   7.451   8.389 -0.3453  0.0138  0.4942
  488DPPI   C4A 7638  14.886   7.285   7.913  0.1215  0.1618 -0.2198
  488DPPI   C1B 7639  14.361   7.010   9.300  0.1576 -0.0322 -0.0557
  488DPPI   C2B 7640  14.355   7.062   8.859  0.0772 -0.2094  0.3801
  488DPPI   C3B 7641  14.339   7.164   8.476 -0.1999 -0.1238  0.1710
  488DPPI   C4B 7642  14.332   7.120   8.060  0.0839 -0.0610  0.2739
  489DPPI    C1 7643   8.500  11.096  10.376 -0.0199  0.1978 -0.0590
  489DPPI    C2 7644   8.285  10.787  10.240  0.1051  0.0539  0.0654
  489DPPI    C3 7645   8.408  10.793  10.620  0.1232  0.2470  0.0578
  489DPPI   PO4 7646   8.488  11.224  10.160  0.1166  0.0289  0.0770
  489DPPI   GL1 7647   8.260  11.219   9.776  0.0915 -0.2560 -0.2182
  489DPPI   GL2 7648   7.918  11.123   9.926 -0.0631  0.0565 -0.1873
  489DPPI   C1A 7649   8.149  11.203   9.371  0.1022  0.0098  0.0617
  489DPPI   C2A 7650   8.055  11.272   8.954  0.0675 -0.0903  0.0328
  489DPPI   C3A 7651   8.199  11.035   8.567 -0.5717 -0.2465  0.1208
  489DPPI   C4A 7652   8.550  10.913   8.233 -0.0191  0.1574 -0.0740
  489DPPI   C1B 7653   7.718  11.106   9.548  0.1153  0.0748  0.3335
  489DPPI   C2B 7654   7.604  11.102   9.117  0.3801 -0.1483 -0.2335
  489DPPI   C3B 7655   7.702  11.180   8.566 -0.3751 -0.1198  0.3810
  489DPPI   C4B 7656   7.622  11.406   8.142 -0.2012  0.1117  0.0522
  490DPPI    C1 7657  17.427   0.779  10.825 -0.3542  0.1712 -0.1274
  490DPPI    C2 7658  17.456   0.858  11.216 -0.3484 -0.1508 -0.0602
  490DPPI    C3 7659  17.327   1.141  10.964  0.0418  0.1930  0.1141
  490DPPI   PO4 7660  17.353   0.491  10.852  0.0743  0.2235 -0.0300
  490DPPI   GL1 7661  17.205   0.092  10.514  0.1442 -0.0820  0.0434
  490DPPI   GL2 7662  17.326  -0.130  10.657  0.1877 -0.0816 -0.1658
  490DPPI   C1A 7663  17.215   0.135  10.113 -0.1916  0.0763 -0.2244
  490DPPI   C2A 7664  17.154   0.045   9.700  0.2084 -0.0947 -0.2649
  490DPPI   C3A 7665  17.134   0.015   9.293 -0.0164 -0.0882  0.0762
  490DPPI   C4A 7666  17.427   0.013   8.929  0.2908 -0.1058  0.1122
  490DPPI   C1B 7667  17.344  -0.376  10.295 -0.0733 -0.0259  0.0597
  490DPPI   C2B 7668  17.232  -0.446   9.836 -0.4273 -0.1912  0.0761
  490DPPI   C3B 7669  17.213  -0.469   9.454  0.0412 -0.2374 -0.4290
  490DPPI   C4B 7670  17.492  -0.483   9.075  0.1626  0.0694 -0.1391
  491DPPI    C1 7671  15.789   9.451   9.991 -0.1265  0.0784 -0.0284
  491DPPI    C2 7672  15.750   9.754  10.250 -0.2148  0.0251  0.0212
  491DPPI    C3 7673  15.789   9.379  10.385  0.1835  0.0432 -0.0323
  491DPPI   PO4 7674  16.013   9.579   9.814  0.0785  0.2152 -0.1076
  491DPPI   GL1 7675  16.251   9.824   9.519  0.2397 -0.0087 -0.1001
  491DPPI   GL2 7676  16.148   9.539   9.292  0.3853  0.0053 -0.1461
  491DPPI   C1A 7677  16.084  10.119   9.274 -0.0904 -0.1128 -0.1274
  491DPPI   C2A 7678  16.051  10.231   8.855  0.0152  0.1762 -0.0791
  491DPPI   C3A 7679  15.992  10.422   8.484  0.0360  0.1277  0.0485
  491DPPI   C4A 7680  15.790  10.713   8.118  0.0100 -0.0575 -0.0547
  491DPPI   C1B 7681  16.179   9.540   8.940 -0.1140  0.1698 -0.0450
  491DPPI   C2B 7682  15.969   9.758   8.692  0.1269 -0.0213  0.1831
  491DPPI   C3B 7683  15.702   9.649   8.342  0.2296 -0.1997  0.1960
  491DPPI   C4B 7684  15.521   9.727   7.916  0.2748 -0.1823  0.2760
  492DPPI    C1 7685  13.445   5.317  10.238  0.4168  0.0444  0.1740
  492DPPI    C2 7686  13.402   5.167  10.607 -0.0642  0.0791  0.1387
  492DPPI    C3 7687  13.525   5.545  10.557  0.2038  0.0098  0.2537
  492DPPI   PO4 7688  13.513   5.100  10.108 -0.1557 -0.0609  0.0348
  492DPPI   GL1 7689  13.310   4.845   9.820 -0.0608  0.0842  0.0707
  492DPPI   GL2 7690  13.063   4.971   9.709  0.0032  0.3714 -0.1206
  492DPPI   C1A 7691  13.260   4.732   9.343  0.1794 -0.0688  0.1037
  492DPPI   C2A 7692  13.374   4.761   8.957 -0.2351 -0.2252  0.1447
  492DPPI   C3A 7693  13.572   5.004   8.641  0.0833  0.1971  0.2299
  492DPPI   C4A 7694  13.617   4.991   8.137 -0.0195  0.2388 -0.2224
  492DPPI   C1B 7695  12.678   5.116   9.478  0.3591  0.1008  0.1282
  492DPPI   C2B 7696  12.651   5.182   9.027 -0.0433  0.0131  0.1142
  492DPPI   C3B 7697  12.789   5.289   8.558  0.3383  0.0366  0.1753
  492DPPI   C4B 7698  12.773   5.385   8.115 -0.1274  0.0796 -0.2517
  493DPPI    C1 7699  14.958   3.926  10.526  0.1580  0.1545  0.0425
  493DPPI    C2 7700  14.961   3.557  10.678  0.0090  0.0733 -0.1469
  493DPPI    C3 7701  15.280   3.794  10.723  0.1291 -0.0993 -0.0763
  493DPPI   PO4 7702  14.764   3.895  10.345  0.1597  0.1713 -0.1292
  493DPPI   GL1 7703  14.650   3.697   9.893  0.2517 -0.2528 -0.2347
  493DPPI   GL2 7704  14.984   3.713   9.730 -0.1159 -0.2624 -0.0811
  493DPPI   C1A 7705  14.587   3.510   9.500  0.1403 -0.2985  0.0032
  493DPPI   C2A 7706  14.829   3.401   9.187  0.1277 -0.5271 -0.0590
  493DPPI   C3A 7707  14.753   3.372   8.799  0.2460 -0.1411  0.2279
  493DPPI   C4A 7708  14.636   3.109   8.523 -0.0143 -0.1587 -0.0777
  493DPPI   C1B 7709  15.078   3.933   9.488  0.0464 -0.0517 -0.2171
  493DPPI   C2B 7710  15.226   3.916   9.122  0.1911 -0.2582 -0.0864
  493DPPI   C3B 7711  15.128   3.714   8.739  0.0960  0.2582  0.1675
  493DPPI   C4B 7712  14.928   3.761   8.457  0.0782 -0.1653 -0.3687
  494DPPI    C1 7713   1.715  14.247  11.142  0.1988 -0.0330 -0.2147
  494DPPI    C2 7714   2.009  14.345  11.396 -0.0225  0.0928 -0.0030
  494DPPI    C3 7715   1.659  14.209  11.536 -0.1017  0.0385 -0.2481
  494DPPI   PO4 7716   1.827  14.105  10.988 -0.0956 -0.0328 -0.2495
  494DPPI   GL1 7717   1.905  14.019  10.599 -0.1997 -0.0665  0.0067
  494DPPI   GL2 7718   2.000  14.416  10.494 -0.1969  0.1357 -0.0964
  494DPPI   C1A 7719   1.723  14.001  10.254  0.2032 -0.1819  0.1010
  494DPPI   C2A 7720   1.631  14.134   9.786  0.0116  0.0215 -0.1047
  494DPPI   C3A 7721   1.577  14.165   9.381 -0.0588 -0.0777  0.0249
  494DPPI   C4A 7722   1.565  14.251   8.910 -0.1259  0.1579  0.0417
  494DPPI   C1B 7723   1.986  14.407  10.046 -0.3279  0.0415  0.0011
  494DPPI   C2B 7724   2.038  14.521   9.650  0.3358 -0.0678 -0.1241
  494DPPI   C3B 7725   1.959  14.493   9.292  0.2449  0.0183 -0.2030
  494DPPI   C4B 7726   2.008  14.461   8.852  0.0644  0.1433  0.2190
  495DPPI    C1 7727  16.460  14.587  11.393  0.1454 -0.1861 -0.2049
  495DPPI    C2 7728  16.581  14.208  11.439  0.1111 -0.1682  0.0434
  495DPPI    C3 7729  16.631  14.472  11.736  0.1457  0.0259 -0.1327
  495DPPI   PO4 7730  16.557  14.652  11.091 -0.0470 -0.1073 -0.4880
  495DPPI   GL1 7731  16.387  14.886  10.796 -0.0499 -0.1042 -0.0243
  495DPPI   GL2 7732  16.374  15.125  10.687  0.0593 -0.0176  0.0097
  495DPPI   C1A 7733  16.654  14.874  10.355  0.3033  0.1167  0.1394
  495DPPI   C2A 7734  16.642  14.943   9.900 -0.0999  0.1723  0.1776
  495DPPI   C3A 7735  16.517  14.806   9.501 -0.0912  0.0652 -0.0444
  495DPPI   C4A 7736  16.535  14.956   9.152 -0.1293 -0.2815 -0.1032
  495DPPI   C1B 7737  16.470  15.367  10.366  0.1576  0.0595  0.2650
  495DPPI   C2B 7738  16.602  15.424   9.951  0.0616 -0.0714  0.0167
  495DPPI   C3B 7739  16.533  15.358   9.602 -0.0371  0.0220  0.1482
  495DPPI   C4B 7740  16.374  15.436   9.262 -0.1314 -0.1488  0.2282
  496DPPI    C1 7741  13.159  14.384  10.991 -0.0955  0.2199  0.1718
  496DPPI    C2 7742  12.863  14.641  10.911 -0.2326  0.0604  0.1609
  496DPPI    C3 7743  12.778  14.269  11.031 -0.0361  0.0079  0.1409
  496DPPI   PO4 7744  13.442  14.296  10.778 -0.0999  0.0153 -0.0235
  496DPPI   GL1 7745  13.667  14.212  10.374  0.0266  0.0589 -0.0542
  496DPPI   GL2 7746  13.368  14.163  10.297 -0.0375 -0.0308 -0.1279
  496DPPI   C1A 7747  13.911  14.149  10.064  0.1225 -0.0468 -0.0754
  496DPPI   C2A 7748  13.916  14.227   9.606  0.1000 -0.1551  0.0356
  496DPPI   C3A 7749  13.894  14.195   9.306  0.0715  0.2333 -0.1854
  496DPPI   C4A 7750  13.889  14.333   8.918 -0.3077 -0.1359  0.0443
  496DPPI   C1B 7751  13.368  14.284   9.989 -0.0020 -0.0405 -0.1896
  496DPPI   C2B 7752  13.430  14.298   9.643  0.0601  0.1388 -0.0818
  496DPPI   C3B 7753  13.474  14.403   9.209  0.2321  0.0335 -0.0027
  496DPPI   C4B 7754  13.411  14.532   8.812  0.3594 -0.0856 -0.1943
  497DPPI    C1 7755  10.845  14.703  11.080  0.0417  0.0338 -0.0507
  497DPPI    C2 7756  11.165  14.535  11.252  0.0271  0.0984  0.0401
  497DPPI    C3 7757  10.797  14.427  11.365  0.0125 -0.2013 -0.2798
  497DPPI   PO4 7758  10.866  14.719  10.820  0.0809 -0.0916  0.0378
  497DPPI   GL1 7759  11.022  14.819  10.457 -0.2365 -0.0187  0.4408
  497DPPI   GL2 7760  11.081  14.605  10.353 -0.3032  0.0798  0.1486
  497DPPI   C1A 7761  10.979  15.131  10.165  0.0321  0.0881 -0.4256
  497DPPI   C2A 7762  10.982  15.230   9.736  0.1021 -0.0620  0.0682
  497DPPI   C3A 7763  10.869  15.198   9.323 -0.1266  0.0470  0.1052
  497DPPI   C4A 7764  10.905  15.296   8.933 -0.1564  0.0680 -0.1429
  497DPPI   C1B 7765  11.064  14.644   9.913 -0.3193  0.0605  0.0927
  497DPPI   C2B 7766  11.045  14.742   9.427 -0.0725 -0.0214  0.2402
  497DPPI   C3B 7767  11.004  14.715   8.909 -0.0514  0.0351  0.0759
  497DPPI   C4B 7768  10.908  14.610   8.489  0.0394 -0.2545 -0.4473
  498DPPI    C1 7769   5.272  17.300  10.847  0.0492  0.0533 -0.0487
  498DPPI    C2 7770   5.016  17.554  11.019 -0.0266  0.0051 -0.0898
  498DPPI    C3 7771   5.051  17.181  11.158  0.3161  0.1298  0.1751
  498DPPI   PO4 7772   5.316  17.425  10.618 -0.1102 -0.0108 -0.0931
  498DPPI   GL1 7773   5.140  17.492  10.277 -0.3269  0.2865 -0.2173
  498DPPI   GL2 7774   4.924  17.364  10.093 -0.1385 -0.1223 -0.3673
  498DPPI   C1A 7775   5.412  17.801  10.041  0.1665  0.5355  0.0093
  498DPPI   C2A 7776   5.443  17.704   9.584 -0.2047 -0.1386 -0.0814
  498DPPI   C3A 7777   5.432  17.673   9.097 -0.1359 -0.0203 -0.0386
  498DPPI   C4A 7778   5.644  17.869   8.737  0.3503  0.1530 -0.0537
  498DPPI   C1B 7779   4.986  17.393   9.667 -0.0522  0.1808 -0.0542
  498DPPI   C2B 7780   5.063  17.379   9.290 -0.0978 -0.0025 -0.0968
  498DPPI   C3B 7781   5.104  17.293   8.852 -0.1168  0.0585  0.3463
  498DPPI   C4B 7782   4.962  17.399   8.443 -0.1537  0.1698  0.1112
  499DPPI    C1 7783  11.174  10.726  10.513  0.1630 -0.1258 -0.2008
  499DPPI    C2 7784  11.306  10.815  10.880  0.1707 -0.0461 -0.2229
  499DPPI    C3 7785  11.185  10.443  10.796  0.0572 -0.0363 -0.1063
  499DPPI   PO4 7786  11.396  10.782  10.314 -0.0208 -0.0148 -0.1071
  499DPPI   GL1 7787  11.499  10.634   9.937  0.0285 -0.0194  0.1577
  499DPPI   GL2 7788  11.347  10.376   9.852 -0.3716 -0.2012  0.5063
  499DPPI   C1A 7789  11.737  10.657   9.620  0.1372  0.2053  0.1162
  499DPPI   C2A 7790  11.724  10.745   9.226  0.1428  0.0528  0.0702
  499DPPI   C3A 7791  11.543  10.810   8.852 -0.1889 -0.2380  0.1008
  499DPPI   C4A 7792  11.510  10.626   8.496 -0.3165  0.0926 -0.0722
  499DPPI   C1B 7793  11.304  10.405   9.408  0.0808 -0.1853 -0.2387
  499DPPI   C2B 7794  11.108  10.324   9.087  0.0036  0.2002  0.0588
  499DPPI   C3B 7795  11.051  10.469   8.704 -0.1184  0.0802  0.2591
  499DPPI   C4B 7796  11.128  10.587   8.205 -0.1036  0.1249 -0.0439
  500DPPI    C1 7797   4.748  11.457  10.736 -0.0434  0.0876  0.1758
  500DPPI    C2 7798   4.905  11.824  10.705 -0.0009  0.0762  0.2542
  500DPPI    C3 7799   4.591  11.761  10.944  0.0015  0.0584  0.2527
  500DPPI   PO4 7800   4.705  11.429  10.441  0.1523  0.0197 -0.2387
  500DPPI   GL1 7801   4.782  11.567  10.058  0.0844 -0.1000 -0.3228
  500DPPI   GL2 7802   4.443  11.594   9.966 -0.2602  0.0616  0.0682
  500DPPI   C1A 7803   5.025  11.440   9.701 -0.2356 -0.0207 -0.1230
  500DPPI   C2A 7804   5.168  11.588   9.325 -0.0966 -0.1684 -0.0705
  500DPPI   C3A 7805   5.148  11.544   8.915 -0.1865 -0.1787 -0.2243
  500DPPI   C4A 7806   5.057  11.656   8.460 -0.2190  0.0525 -0.2080
  500DPPI   C1B 7807   4.362  11.755   9.496 -0.0968  0.1868  0.1720
  500DPPI   C2B 7808   4.413  11.848   9.025 -0.5777 -0.0505  0.1528
  500DPPI   C3B 7809   4.422  11.840   8.581  0.0458 -0.0809  0.0443
  500DPPI   C4B 7810   4.501  11.896   8.150 -0.0713 -0.0785 -0.0414
  501DPPI    C1 7811   8.463   2.015  11.328 -0.2495 -0.1390  0.0540
  501DPPI    C2 7812   8.862   2.038  11.304 -0.2581  0.0251  0.0626
  501DPPI    C3 7813   8.691   1.833  11.602 -0.1804 -0.0257  0.0724
  501DPPI   PO4 7814   8.420   2.138  11.086  0.1173 -0.2603 -0.1483
  501DPPI   GL1 7815   8.458   2.060  10.711 -0.2241 -0.1199 -0.2823
  501DPPI   GL2 7816   8.412   2.280  10.455  0.4193  0.3023  0.2932
  501DPPI   C1A 7817   8.374   1.858  10.224  0.2843 -0.0647 -0.0212
  501DPPI   C2A 7818   8.348   1.683   9.849  0.2526 -0.0998 -0.1235
  501DPPI   C3A 7819   8.307   1.615   9.431  0.1205  0.0873  0.0445
  501DPPI   C4A 7820   8.391   1.689   9.046 -0.1444 -0.0299  0.2684
  501DPPI   C1B 7821   8.390   2.312  10.010  0.4245  0.2790 -0.0379
  501DPPI   C2B 7822   8.307   2.310   9.574 -0.1236  0.2754 -0.1587
  501DPPI   C3B 7823   8.243   2.130   9.214 -0.0807  0.0029 -0.0020
  501DPPI   C4B 7824   8.162   2.077   8.775  0.1569 -0.0544 -0.0157
  502DPPI    C1 7825   8.250  15.822  10.780 -0.0616  0.0032 -0.1695
  502DPPI    C2 7826   8.205  16.195  10.643  0.2914  0.0704 -0.1130
  502DPPI    C3 7827   8.043  16.089  10.994  0.0218  0.1110 -0.2227
  502DPPI   PO4 7828   8.413  15.716  10.497  0.0582 -0.2064  0.1138
  502DPPI   GL1 7829   8.449  15.732  10.098  0.1073  0.1082 -0.1552
  502DPPI   GL2 7830   8.141  15.520  10.058 -0.0249  0.1294 -0.2628
  502DPPI   C1A 7831   8.371  15.776   9.658 -0.2268  0.2153 -0.3427
  502DPPI   C2A 7832   8.362  15.832   9.209  0.2213 -0.3382 -0.2519
  502DPPI   C3A 7833   8.231  16.017   8.828  0.1761  0.1529  0.0048
  502DPPI   C4A 7834   8.417  16.191   8.391  0.2520  0.0697  0.1304
  502DPPI   C1B 7835   7.863  15.682   9.790  0.0561  0.0668  0.0863
  502DPPI   C2B 7836   7.795  15.836   9.396  0.1834  0.5044 -0.1262
  502DPPI   C3B 7837   7.705  16.060   9.004 -0.0757  0.0960  0.0496
  502DPPI   C4B 7838   7.864  16.172   8.564  0.2195  0.1238  0.4640
  503DPPI    C1 7839   2.440   3.306  10.309 -0.0434  0.1143  0.0914
  503DPPI    C2 7840   2.305   3.584  10.563 -0.1914  0.0799  0.0509
  503DPPI    C3 7841   2.352   3.207  10.687 -0.1890  0.0796  0.0490
  503DPPI   PO4 7842   2.536   3.487  10.123 -0.1125  0.1569  0.1248
  503DPPI   GL1 7843   2.489   3.598   9.738  0.3390  0.0152  0.0965
  503DPPI   GL2 7844   2.295   3.845   9.601 -0.2479  0.1132  0.1728
  503DPPI   C1A 7845   2.657   3.556   9.359  0.0278 -0.0844  0.1559
  503DPPI   C2A 7846   2.849   3.503   8.965  0.1769  0.2078  0.1597
  503DPPI   C3A 7847   2.936   3.518   8.523  0.1562 -0.3054  0.1313
  503DPPI   C4A 7848   3.203   3.403   8.139 -0.2588 -0.1183  0.0488
  503DPPI   C1B 7849   2.298   3.828   9.183  0.1386  0.1646 -0.0872
  503DPPI   C2B 7850   2.411   3.890   8.814 -0.0011 -0.0446 -0.1988
  503DPPI   C3B 7851   2.536   3.847   8.345 -0.0212  0.2760 -0.4805
  503DPPI   C4B 7852   2.685   3.544   8.040  0.0371 -0.0941 -0.1229
  504DPPI    C1 7853   2.107   4.312  10.328  0.2521  0.0674  0.2823
  504DPPI    C2 7854   1.907   4.657  10.360 -0.0348 -0.0337 -0.2958
  504DPPI    C3 7855   2.307   4.657  10.363 -0.0329  0.2786 -0.0901
  504DPPI   PO4 7856   1.919   4.219  10.141 -0.0368  0.2149  0.2862
  504DPPI   GL1 7857   1.879   4.086   9.734  0.2721  0.1547 -0.0191
  504DPPI   GL2 7858   1.782   4.393   9.739  0.1434  0.0214  0.0098
  504DPPI   C1A 7859   1.836   3.794   9.363 -0.3639  0.0054 -0.1231
  504DPPI   C2A 7860   1.815   3.667   8.858 -0.0170  0.2843 -0.2315
  504DPPI   C3A 7861   2.063   3.722   8.489  0.1015 -0.0225 -0.4506
  504DPPI   C4A 7862   2.121   3.463   8.169  0.0034  0.0958  0.1207
  504DPPI   C1B 7863   2.006   4.353   9.274 -0.2263 -0.2785  0.0415
  504DPPI   C2B 7864   2.047   4.197   8.862 -0.3318 -0.2500 -0.2123
  504DPPI   C3B 7865   2.301   4.249   8.463 -0.0489  0.0004  0.0314
  504DPPI   C4B 7866   2.428   4.317   8.029 -0.0722  0.0024 -0.1273
  505DPPI    C1 7867  10.962  13.658  10.938  0.0618 -0.2900 -0.1817
  505DPPI    C2 7868  11.183  13.374  11.115  0.3692  0.0588  0.0090
  505DPPI    C3 7869  10.960  13.621  11.337 -0.0895 -0.1816 -0.1719
  505DPPI   PO4 7870  11.033  13.746  10.731 -0.1369  0.2615  0.0463
  505DPPI   GL1 7871  11.143  13.568  10.326 -0.0465  0.1457 -0.1113
  505DPPI   GL2 7872  10.801  13.726  10.312 -0.0010 -0.0935  0.0502
  505DPPI   C1A 7873  11.220  13.377   9.914 -0.1582 -0.5401  0.1074
  505DPPI   C2A 7874  11.259  13.500   9.500 -0.0246 -0.2362 -0.3828
  505DPPI   C3A 7875  11.243  13.695   9.081 -0.0136 -0.0956 -0.0222
  505DPPI   C4A 7876  11.193  13.714   8.628  0.0378 -0.0682 -0.2054
  505DPPI   C1B 7877  10.770  13.622   9.952  0.1309  0.0840  0.0677
  505DPPI   C2B 7878  10.789  13.662   9.495  0.1505 -0.0124 -0.2258
  505DPPI   C3B 7879  10.732  13.796   9.093  0.1921 -0.0093  0.1631
  505DPPI   C4B 7880  10.693  13.899   8.704 -0.0163 -0.1279  0.0505
  506DPPI    C1 7881  12.912   5.649  10.271  0.0770 -0.1106  0.0426
  506DPPI    C2 7882  12.965   5.445  10.611 -0.1064  0.1886  0.2563
  506DPPI    C3 7883  12.597   5.494  10.463 -0.0479  0.2357  0.1248
  506DPPI   PO4 7884  13.111   5.643  10.124  0.1438  0.0028 -0.0129
  506DPPI   GL1 7885  13.223   5.891   9.804 -0.3188 -0.0395 -0.0130
  506DPPI   GL2 7886  12.858   6.063   9.874 -0.0842 -0.1215 -0.4865
  506DPPI   C1A 7887  13.350   5.749   9.366 -0.1952 -0.1463 -0.0566
  506DPPI   C2A 7888  13.191   5.773   9.007  0.1270 -0.0812 -0.0024
  506DPPI   C3A 7889  13.079   5.973   8.571  0.0191 -0.0087 -0.1242
  506DPPI   C4A 7890  12.903   5.909   8.125 -0.2017  0.2322 -0.0411
  506DPPI   C1B 7891  12.891   6.145   9.469 -0.1006  0.0545 -0.0775
  506DPPI   C2B 7892  12.852   6.148   8.978 -0.1616  0.1089  0.3394
  506DPPI   C3B 7893  12.626   6.290   8.628 -0.0076 -0.1441  0.0778
  506DPPI   C4B 7894  12.506   6.322   8.208 -0.3382  0.1112  0.0843
  507DPPI    C1 7895  15.475   8.970  10.007  0.2465 -0.0080  0.0777
  507DPPI    C2 7896  15.278   8.774  10.294  0.1849  0.1612  0.1524
  507DPPI    C3 7897  15.645   8.915  10.365  0.4007 -0.2858 -0.0351
  507DPPI   PO4 7898  15.337   9.160   9.913 -0.3024 -0.1948  0.0236
  507DPPI   GL1 7899  15.373   9.220   9.471  0.0509  0.0188  0.0663
  507DPPI   GL2 7900  15.550   9.469   9.549 -0.1458  0.4096  0.0923
  507DPPI   C1A 7901  15.341   9.117   9.023  0.0206  0.0380 -0.0867
  507DPPI   C2A 7902  15.359   9.222   8.529  0.5679  0.0083 -0.1405
  507DPPI   C3A 7903  15.528   9.260   8.112  0.1017 -0.1202  0.2409
  507DPPI   C4A 7904  15.835   9.404   7.764 -0.0025 -0.0446  0.1978
  507DPPI   C1B 7905  15.770   9.799   9.142 -0.3482 -0.1911 -0.1242
  507DPPI   C2B 7906  15.549  10.175   8.916  0.2309  0.3240  0.2057
  507DPPI   C3B 7907  15.588  10.104   8.564  0.2244 -0.1614  0.2899
  507DPPI   C4B 7908  15.621  10.229   8.156 -0.0256  0.1997  0.0263
  508DPPI    C1 7909  12.306  14.632  10.841 -0.0734 -0.0766 -0.0289
  508DPPI    C2 7910  12.302  15.025  10.770 -0.0759 -0.0721 -0.0041
  508DPPI    C3 7911  12.424  14.888  11.125  0.1671 -0.1067 -0.0988
  508DPPI   PO4 7912  12.443  14.384  10.652  0.3253  0.0321 -0.0849
  508DPPI   GL1 7913  12.542  14.341  10.187  0.0731  0.0525 -0.0188
  508DPPI   GL2 7914  12.585  14.689  10.259  0.0918  0.1982  0.2624
  508DPPI   C1A 7915  12.855  14.424   9.926  0.0064 -0.0318 -0.1615
  508DPPI   C2A 7916  12.875  14.438   9.497  0.1646  0.3048 -0.2831
  508DPPI   C3A 7917  12.965  14.594   9.062  0.1209  0.2755 -0.2015
  508DPPI   C4A 7918  12.789  14.635   8.696 -0.2861 -0.0679  0.1384
  508DPPI   C1B 7919  12.508  14.742   9.775 -0.1951  0.1494  0.1340
  508DPPI   C2B 7920  12.657  14.901   9.363 -0.1131  0.0932 -0.1116
  508DPPI   C3B 7921  12.765  15.080   8.950  0.0325  0.1340  0.2239
  508DPPI   C4B 7922  13.080  15.046   8.627 -0.0727 -0.1751 -0.0760
  509DPPI    C1 7923  12.953  15.094  11.169 -0.1760  0.0473 -0.0323
  509DPPI    C2 7924  13.196  14.874  11.398  0.1481  0.3266 -0.1001
  509DPPI    C3 7925  12.872  15.045  11.557  0.0525  0.0422  0.0166
  509DPPI   PO4 7926  13.196  15.096  10.912  0.1147 -0.0859  0.0040
  509DPPI   GL1 7927  13.433  15.208  10.563  0.0235  0.2334 -0.0703
  509DPPI   GL2 7928  13.099  15.293  10.423 -0.1065 -0.1440  0.0328
  509DPPI   C1A 7929  13.704  15.154  10.150  0.1112 -0.0888 -0.0048
  509DPPI   C2A 7930  13.643  15.224   9.677 -0.3762  0.3983  0.2184
  509DPPI   C3A 7931  13.644  15.292   9.291  0.2027  0.1912 -0.4319
  509DPPI   C4A 7932  13.539  15.227   8.831  0.0397 -0.2057  0.2473
  509DPPI   C1B 7933  13.195  15.375   9.990  0.0567  0.0741  0.2693
  509DPPI   C2B 7934  13.136  15.352   9.527  0.1637 -0.0803 -0.2340
  509DPPI   C3B 7935  13.164  15.488   9.137  0.0130  0.1399  0.2241
  509DPPI   C4B 7936  13.179  15.532   8.669  0.1489 -0.0273  0.2109
  510DPPI    C1 7937   6.376  11.372  10.579  0.0472  0.0274  0.0753
  510DPPI    C2 7938   6.418  11.481  10.962  0.0209 -0.0259  0.0934
  510DPPI    C3 7939   6.298  11.111  10.872  0.0001 -0.0048  0.0342
  510DPPI   PO4 7940   6.608  11.554  10.386  0.1512 -0.3247 -0.1606
  510DPPI   GL1 7941   6.747  11.428  10.011 -0.0121  0.0723 -0.1192
  510DPPI   GL2 7942   6.832  10.996   9.885  0.1229 -0.0501 -0.2641
  510DPPI   C1A 7943   6.774  11.509   9.512  0.1824  0.2182 -0.0504
  510DPPI   C2A 7944   6.750  11.470   9.024  0.2220 -0.0492  0.0021
  510DPPI   C3A 7945   6.682  11.399   8.634 -0.3700  0.0160 -0.0029
  510DPPI   C4A 7946   6.781  11.635   8.236  0.0409 -0.2491  0.2711
  510DPPI   C1B 7947   6.801  11.020   9.408 -0.0922 -0.0918 -0.1393
  510DPPI   C2B 7948   6.761  11.001   8.942 -0.1315 -0.0471  0.0433
  510DPPI   C3B 7949   6.800  10.897   8.533  0.0140  0.0752  0.1689
  510DPPI   C4B 7950   6.754  10.645   8.155 -0.0090 -0.1462  0.0575
  511DPPI    C1 7951   9.437  12.725  10.846  0.3426  0.1853 -0.0652
  511DPPI    C2 7952   9.765  12.528  10.963  0.2605  0.0375 -0.0804
  511DPPI    C3 7953   9.463  12.584  11.219  0.1719 -0.0934 -0.1550
  511DPPI   PO4 7954   9.598  12.921  10.677 -0.0349 -0.0693  0.2482
  511DPPI   GL1 7955   9.519  13.084  10.237 -0.0293 -0.1519 -0.2229
  511DPPI   GL2 7956   9.586  12.804  10.150  0.1109  0.1043 -0.1730
  511DPPI   C1A 7957   9.345  13.386   9.922 -0.2157  0.0510 -0.0379
  511DPPI   C2A 7958   9.224  13.514   9.500 -0.0829  0.0680 -0.2704
  511DPPI   C3A 7959   9.311  13.619   9.017 -0.2114  0.0561  0.0558
  511DPPI   C4A 7960   9.408  13.455   8.639  0.0998 -0.0069  0.3875
  511DPPI   C1B 7961   9.588  12.613   9.782 -0.3041  0.0309  0.0673
  511DPPI   C2B 7962   9.569  12.640   9.312  0.3077  0.2394 -0.2898
  511DPPI   C3B 7963   9.589  12.735   8.832  0.1760  0.0220  0.0550
  511DPPI   C4B 7964   9.425  12.954   8.473  0.0540  0.1439  0.1276
  512DPPI    C1 7965   3.897   3.261  10.607 -0.0375  0.1343  0.0516
  512DPPI    C2 7966   3.851   3.522  10.907 -0.1372 -0.0778  0.2237
  512DPPI    C3 7967   3.589   3.224  10.860 -0.1422 -0.0263 -0.0974
  512DPPI   PO4 7968   3.844   3.412  10.342 -0.0558  0.3052 -0.0014
  512DPPI   GL1 7969   4.029   3.422   9.969 -0.0633  0.2848 -0.0663
  512DPPI   GL2 7970   4.243   3.692  10.157 -0.1101  0.2301 -0.0895
  512DPPI   C1A 7971   4.127   3.514   9.453 -0.1433 -0.1136  0.0738
  512DPPI   C2A 7972   4.316   3.461   8.963 -0.0104  0.1827  0.0484
  512DPPI   C3A 7973   4.422   3.507   8.571 -0.1796 -0.1236  0.0185
  512DPPI   C4A 7974   4.495   3.456   8.154  0.3178  0.1850  0.2523
  512DPPI   C1B 7975   4.500   3.411   9.895 -0.1245  0.1824 -0.0128
  512DPPI   C2B 7976   4.635   3.324   9.470 -0.0153 -0.1357 -0.0901
  512DPPI   C3B 7977   4.743   3.234   9.039 -0.2301  0.0089 -0.1736
  512DPPI   C4B 7978   4.809   3.196   8.549  0.0290  0.1741 -0.1847
  513PYPI    C1 7979  14.149   5.828  10.281 -0.0470  0.0083  0.1070
  513PYPI    C2 7980  14.342   5.478  10.299 -0.0098  0.0384  0.3212
  513PYPI    C3 7981  14.524   5.812  10.422  0.0140  0.1600 -0.0358
  513PYPI   PO4 7982  14.076   5.862   9.976  0.0481  0.2117  0.1535
  513PYPI   GL1 7983  14.269   5.869   9.559  0.2314  0.1971 -0.0389
  513PYPI   GL2 7984  14.333   5.490   9.477  0.2439 -0.1728  0.0511
  513PYPI   C1A 7985  14.528   6.038   9.252 -0.1479  0.2090 -0.2396
  513PYPI   C2A 7986  14.557   6.068   8.851 -0.0900  0.1790 -0.0171
  513PYPI   D3A 7987  14.442   6.024   8.440 -0.1630  0.0594  0.0602
  513PYPI   C4A 7988  14.664   5.837   8.203  0.0197 -0.0082  0.2745
  513PYPI   C1B 7989  14.251   5.284   9.148  0.2773 -0.1285  0.2636
  513PYPI   C2B 7990  14.128   5.252   8.773 -0.3128 -0.0029  0.1219
  513PYPI   C3B 7991  13.848   5.417   8.428 -0.0430 -0.1678 -0.1797
  513PYPI   C4B 7992  13.778   5.428   8.029 -0.0339 -0.1390  0.2184
  514PYPI    C1 7993   9.098  17.656  11.066 -0.1585  0.0681 -0.0948
  514PYPI    C2 7994   8.882  17.678  11.402  0.0305  0.0939  0.0264
  514PYPI    C3 7995   9.281  17.698  11.419  0.0465 -0.0121 -0.1900
  514PYPI   PO4 7996   8.803  17.771  10.912  0.2047  0.1272  0.4256
  514PYPI   GL1 7997   8.651  17.838  10.648 -0.1124 -0.0052 -0.1854
  514PYPI   GL2 7998   8.457  17.534  10.625 -0.2275  0.0262  0.0346
  514PYPI   C1A 7999   8.376  17.944  10.234 -0.0894  0.0637  0.0574
  514PYPI   C2A 8000   8.304  17.906   9.894  0.1183  0.0478 -0.0909
  514PYPI   D3A 8001   8.430  17.814   9.434  0.4225 -0.0343  0.0868
  514PYPI   C4A 8002   8.152  17.777   9.088  0.1729  0.2546 -0.0794
  514PYPI   C1B 8003   8.284  17.490  10.146 -0.2236  0.0744 -0.2501
  514PYPI   C2B 8004   8.038  17.482   9.827 -0.2293 -0.0218  0.1060
  514PYPI   C3B 8005   8.088  17.360   9.330  0.0881  0.1012 -0.0788
  514PYPI   C4B 8006   7.970  17.378   8.902  0.1544 -0.0273  0.1345
  515PYPI    C1 8007  11.860   6.861  10.537 -0.1954  0.1094 -0.0146
  515PYPI    C2 8008  12.178   7.013  10.348 -0.0833  0.4022  0.3950
  515PYPI    C3 8009  12.228   6.791  10.676 -0.2762 -0.0961  0.0983
  515PYPI   PO4 8010  11.626   6.825  10.255 -0.2211  0.0481 -0.0722
  515PYPI   GL1 8011  11.728   6.904   9.833 -0.0521 -0.2090  0.0045
  515PYPI   GL2 8012  11.959   7.153   9.846  0.1292  0.0037 -0.1289
  515PYPI   C1A 8013  11.672   6.793   9.383  0.0162  0.0267 -0.1839
  515PYPI   C2A 8014  11.577   6.724   8.897 -0.0306 -0.2758  0.0287
  515PYPI   D3A 8015  11.509   6.743   8.486  0.0576  0.2286  0.1009
  515PYPI   C4A 8016  11.774   6.627   8.157  0.0867  0.2545 -0.0439
  515PYPI   C1B 8017  11.997   7.266   9.417 -0.2534 -0.0696  0.1114
  515PYPI   C2B 8018  11.830   7.169   9.033  0.0604 -0.2666  0.2091
  515PYPI   C3B 8019  12.061   7.059   8.621  0.0442  0.0111  0.1570
  515PYPI   C4B 8020  11.826   7.204   8.240  0.0183 -0.0647  0.1114
  516PYPI    C1 8021   8.074  10.134  10.152 -0.1500 -0.0305 -0.0867
  516PYPI    C2 8022   7.746   9.933  10.263 -0.0908 -0.0022  0.1440
  516PYPI    C3 8023   8.016   9.760  10.024 -0.2883 -0.0145 -0.0723
  516PYPI   PO4 8024   7.969  10.409  10.031  0.1767 -0.0177 -0.1550
  516PYPI   GL1 8025   8.090  10.689   9.792  0.1910  0.2453  0.0141
  516PYPI   GL2 8026   8.340  10.715   9.731 -0.2572  0.1422  0.2883
  516PYPI   C1A 8027   7.972  10.690   9.347 -0.0403  0.3945 -0.2206
  516PYPI   C2A 8028   7.862  10.747   8.912  0.0233  0.2884  0.3362
  516PYPI   D3A 8029   7.707  10.623   8.556  0.3237  0.1264  0.0494
  516PYPI   C4A 8030   7.819  10.871   8.107  0.1171 -0.0826  0.0020
  516PYPI   C1B 8031   8.381  10.412   9.323  0.2500  0.2774  0.2049
  516PYPI   C2B 8032   8.601  10.109   8.985 -0.1437 -0.1465 -0.2989
  516PYPI   C3B 8033   8.803  10.008   8.661 -0.1002 -0.0919 -0.1224
  516PYPI   C4B 8034   8.986  10.090   8.271  0.2262 -0.2121  0.2875
  517PYPI    C1 8035  17.988  10.790  10.322  0.2832 -0.1327  0.4706
  517PYPI    C2 8036  17.811  10.534  10.574 -0.0868 -0.0497  0.3017
  517PYPI    C3 8037  17.664  10.903  10.527 -0.1056 -0.1070 -0.1329
  517PYPI   PO4 8038  18.035  10.631  10.116  0.2770  0.0263 -0.2984
  517PYPI   GL1 8039  17.989  10.612   9.723 -0.1542 -0.1007 -0.2275
  517PYPI   GL2 8040  18.072  10.332   9.549 -0.2062  0.2436 -0.1691
  517PYPI   C1A 8041  17.770  10.982   9.485 -0.1112 -0.1389 -0.1428
  517PYPI   C2A 8042  17.763  11.008   9.034  0.1292  0.3842  0.1502
  517PYPI   D3A 8043  17.614  11.026   8.684  0.0525 -0.1440  0.1069
  517PYPI   C4A 8044  17.624  11.155   8.258 -0.0718 -0.2490 -0.1787
  517PYPI   C1B 8045  17.896  10.536   9.227  0.1370  0.0351  0.1560
  517PYPI   C2B 8046  17.928  10.615   8.773  0.1001  0.2650  0.0685
  517PYPI   C3B 8047  17.859  10.692   8.372  0.0988 -0.2515  0.1380
  517PYPI   C4B 8048  17.898  10.886   7.969 -0.0801  0.2417 -0.3762
  518PYPI    C1 8049   2.600  11.999  10.682  0.1980 -0.0262  0.1547
  518PYPI    C2 8050   2.432  11.645  10.605 -0.1233  0.1239  0.1475
  518PYPI    C3 8051   2.673  11.687  10.921  0.1084 -0.1569  0.0129
  518PYPI   PO4 8052   2.625  12.040  10.368 -0.1421  0.0331  0.0862
  518PYPI   GL1 8053   2.860  12.146  10.015 -0.2033 -0.1838 -0.0466
  518PYPI   GL2 8054   2.776  11.785   9.869  0.1432  0.0902  0.0315
  518PYPI   C1A 8055   2.948  12.143   9.512  0.0889 -0.0831  0.2072
  518PYPI   C2A 8056   3.019  12.184   9.092 -0.0595  0.1312 -0.3495
  518PYPI   D3A 8057   3.095  12.275   8.678 -0.3299 -0.0688  0.0602
  518PYPI   C4A 8058   2.967  12.176   8.267 -0.0173  0.0389 -0.1317
  518PYPI   C1B 8059   2.636  11.789   9.422 -0.2822  0.0719  0.1573
  518PYPI   C2B 8060   2.641  11.839   8.952  0.3448  0.2193 -0.1255
  518PYPI   C3B 8061   2.620  11.884   8.585  0.2961 -0.1175 -0.0612
  518PYPI   C4B 8062   2.499  11.910   8.142  0.1324 -0.0223 -0.1949
  519PYPI    C1 8063  16.024   2.884  10.878  0.1060 -0.0362  0.1868
  519PYPI    C2 8064  16.004   2.550  10.659 -0.2378 -0.0084  0.1690
  519PYPI    C3 8065  16.194   2.547  11.011  0.0317 -0.1385  0.0256
  519PYPI   PO4 8066  16.127   3.105  10.684 -0.0277  0.2764  0.1294
  519PYPI   GL1 8067  15.953   3.007  10.388  0.4194 -0.2227 -0.0483
  519PYPI   GL2 8068  16.166   2.919  10.203  0.1921  0.1621  0.1843
  519PYPI   C1A 8069  15.953   3.206   9.930  0.1251  0.1045 -0.1089
  519PYPI   C2A 8070  16.167   3.275   9.544  0.1365  0.3628  0.0208
  519PYPI   D3A 8071  16.363   3.208   9.198  0.0518 -0.0055  0.1011
  519PYPI   C4A 8072  16.607   3.093   8.940  0.0106 -0.0736  0.2742
  519PYPI   C1B 8073  16.149   2.696   9.866  0.1960 -0.1724  0.0609
  519PYPI   C2B 8074  16.168   2.727   9.408 -0.0338  0.2496 -0.2647
  519PYPI   C3B 8075  16.163   2.745   8.950 -0.0642  0.0057  0.0481
  519PYPI   C4B 8076  16.206   2.621   8.604  0.0839  0.1105  0.2544
  520PYPI    C1 8077   5.056  17.887  10.638 -0.0028  0.1399 -0.1367
  520PYPI    C2 8078   4.943  18.121  10.941 -0.1807 -0.2821  0.1330
  520PYPI    C3 8079   5.291  17.926  10.958  0.0235  0.0456 -0.1443
  520PYPI   PO4 8080   4.824  17.771  10.559 -0.1639 -0.2077 -0.2136
  520PYPI   GL1 8081   4.492  17.694  10.275 -0.0997  0.1529  0.1309
  520PYPI   GL2 8082   4.481  18.007  10.154  0.2012 -0.1119 -0.0484
  520PYPI   C1A 8083   4.487  17.569   9.891  0.1519 -0.0358 -0.1241
  520PYPI   C2A 8084   4.490  17.559   9.571  0.3091  0.1078  0.1478
  520PYPI   D3A 8085   4.550  17.529   9.174  0.2589 -0.0851  0.4149
  520PYPI   C4A 8086   4.554  17.499   8.788 -0.1426 -0.1255 -0.0404
  520PYPI   C1B 8087   4.371  18.038   9.730  0.3006 -0.1256  0.2032
  520PYPI   C2B 8088   4.402  18.062   9.293 -0.1052  0.1216 -0.1122
  520PYPI   C3B 8089   4.542  18.028   8.820  0.1769 -0.1380 -0.1423
  520PYPI   C4B 8090   4.640  17.884   8.419  0.2270 -0.1907  0.3176
  521PYPI    C1 8091  14.434  16.327  11.306 -0.2930  0.1206  0.0198
  521PYPI    C2 8092  14.436  16.678  11.498 -0.0048  0.0941  0.0697
  521PYPI    C3 8093  14.472  16.337  11.704  0.3332  0.0667 -0.0281
  521PYPI   PO4 8094  14.631  16.422  11.067  0.0677 -0.1381  0.0890
  521PYPI   GL1 8095  14.791  16.415  10.658  0.1007  0.0314 -0.0677
  521PYPI   GL2 8096  14.631  16.664  10.557  0.1325  0.1929 -0.1148
  521PYPI   C1A 8097  14.868  16.293  10.250 -0.2497  0.0587  0.0816
  521PYPI   C2A 8098  14.778  16.244   9.823 -0.1514  0.1352 -0.2662
  521PYPI   D3A 8099  14.720  16.279   9.365 -0.3228  0.0195  0.1794
  521PYPI   C4A 8100  14.823  16.349   8.952  0.1814 -0.2886 -0.3327
  521PYPI   C1B 8101  14.568  16.646  10.085  0.0096 -0.0869  0.2941
  521PYPI   C2B 8102  14.711  16.780   9.619  0.3558 -0.3645 -0.1529
  521PYPI   C3B 8103  14.710  16.817   9.201  0.0032 -0.1113 -0.1380
  521PYPI   C4B 8104  14.792  16.838   8.822 -0.1922 -0.1833 -0.0704
  522PYPI    C1 8105  11.075   6.999  10.339 -0.0046 -0.1166 -0.1315
  522PYPI    C2 8106  11.341   7.073  10.629  0.1707  0.2063 -0.3683
  522PYPI    C3 8107  10.975   6.943  10.722  0.3218  0.0143 -0.0231
  522PYPI   PO4 8108  11.227   7.142  10.113  0.1577  0.2669 -0.0219
  522PYPI   GL1 8109  11.514   7.387   9.898 -0.3569 -0.2485 -0.0468
  522PYPI   GL2 8110  11.381   7.167   9.619 -0.1345 -0.0077 -0.1517
  522PYPI   C1A 8111  11.630   7.612   9.429 -0.0275  0.1782 -0.1726
  522PYPI   C2A 8112  11.534   7.700   8.985  0.0967 -0.0096 -0.0346
  522PYPI   D3A 8113  11.559   7.422   8.637 -0.3529 -0.1196  0.0984
  522PYPI   C4A 8114  11.266   7.580   8.365 -0.0261 -0.2371 -0.1580
  522PYPI   C1B 8115  11.347   7.129   9.218 -0.1820 -0.1391 -0.2942
  522PYPI   C2B 8116  11.181   6.971   8.841  0.2757  0.3921 -0.2028
  522PYPI   C3B 8117  11.012   6.846   8.426  0.2547 -0.0007 -0.1054
  522PYPI   C4B 8118  10.999   6.778   8.027 -0.2163  0.0520 -0.0341
  523PYPI    C1 8119   8.276  12.860  10.618  0.0546  0.0374  0.1706
  523PYPI    C2 8120   8.264  13.189  10.390  0.2321  0.0541  0.1837
  523PYPI    C3 8121   8.102  13.193  10.756  0.0766  0.0720  0.1152
  523PYPI   PO4 8122   8.288  12.620  10.340 -0.0208 -0.2269 -0.3197
  523PYPI   GL1 8123   8.471  12.599   9.992 -0.0405  0.2053 -0.0534
  523PYPI   GL2 8124   8.252  12.282   9.966  0.0551  0.3907  0.0103
  523PYPI   C1A 8125   8.675  12.621   9.628  0.3715  0.1011 -0.2668
  523PYPI   C2A 8126   8.514  12.599   9.259  0.0646  0.2398 -0.1059
  523PYPI   D3A 8127   8.257  12.748   8.844 -0.0724 -0.2240 -0.1062
  523PYPI   C4A 8128   8.169  12.793   8.373  0.2496  0.1368 -0.1636
  523PYPI   C1B 8129   8.236  12.235   9.523  0.1834  0.1351 -0.1069
  523PYPI   C2B 8130   8.230  12.271   9.029  0.1678 -0.0877 -0.1547
  523PYPI   C3B 8131   8.478  12.361   8.673  0.0140 -0.4002  0.2440
  523PYPI   C4B 8132   8.875  12.161   8.516 -0.0957 -0.0335 -0.0951
  524PYPI    C1 8133  14.800  11.387  10.621  0.1628 -0.0258 -0.0678
  524PYPI    C2 8134  15.090  11.659  10.668  0.1488 -0.0462  0.1490
  524PYPI    C3 8135  14.715  11.746  10.777  0.1119 -0.0924  0.0599
  524PYPI   PO4 8136  14.788  11.353  10.394 -0.1451  0.2469  0.0340
  524PYPI   GL1 8137  14.939  11.571  10.096 -0.2623 -0.3438 -0.0995
  524PYPI   GL2 8138  14.755  11.842  10.212  0.3936  0.1806 -0.1613
  524PYPI   C1A 8139  15.208  11.907   9.864  0.0041 -0.1993  0.3973
  524PYPI   C2A 8140  15.530  12.023   9.538  0.0367  0.1114 -0.0760
  524PYPI   D3A 8141  15.384  12.080   9.126 -0.1492 -0.0103 -0.1043
  524PYPI   C4A 8142  15.379  12.091   8.725  0.3206 -0.0200 -0.1511
  524PYPI   C1B 8143  14.688  11.740   9.720  0.0003  0.0336 -0.1089
  524PYPI   C2B 8144  14.955  11.980   9.388  0.3138  0.2188 -0.0289
  524PYPI   C3B 8145  14.933  12.138   8.941  0.0033  0.2989  0.2570
  524PYPI   C4B 8146  14.929  12.145   8.537  0.2264 -0.0306 -0.1373
  525PYPI    C1 8147   5.325  10.364  10.358  0.1350 -0.1443 -0.0553
  525PYPI    C2 8148   5.300  10.276  10.747  0.0331  0.0481 -0.0168
  525PYPI    C3 8149   4.974  10.394  10.548  0.1451  0.2384 -0.0893
  525PYPI   PO4 8150   5.470  10.188  10.245  0.2187 -0.2138  0.0856
  525PYPI   GL1 8151   5.389   9.994   9.891 -0.1757 -0.0434 -0.1192
  525PYPI   GL2 8152   5.085   9.846   9.831 -0.1805  0.0490  0.2050
  525PYPI   C1A 8153   5.581  10.214   9.610  0.0174  0.0312 -0.0681
  525PYPI   C2A 8154   5.638  10.338   9.290 -0.1982 -0.1191  0.1428
  525PYPI   D3A 8155   5.697  10.439   8.875  0.2739 -0.0949 -0.1993
  525PYPI   C4A 8156   5.392  10.139   8.697  0.1019 -0.0573 -0.2758
  525PYPI   C1B 8157   5.184   9.892   9.416  0.0661  0.0079 -0.0023
  525PYPI   C2B 8158   5.080   9.854   8.941 -0.1174 -0.0732 -0.2160
  525PYPI   C3B 8159   4.928  10.242   8.722  0.1234  0.0741 -0.1254
  525PYPI   C4B 8160   4.949  10.369   8.364 -0.1176  0.1422  0.3954
  526PYPI    C1 8161   5.263   3.013  11.100 -0.0684 -0.1745  0.0094
  526PYPI    C2 8162   4.936   2.812  10.989 -0.0161 -0.0988 -0.2910
  526PYPI    C3 8163   4.967   2.954  11.362 -0.2813 -0.1911 -0.2316
  526PYPI   PO4 8164   5.341   3.215  10.968  0.0366  0.1795 -0.2806
  526PYPI   GL1 8165   5.659   3.362  10.638  0.0927  0.1392  0.0533
  526PYPI   GL2 8166   5.376   3.490  10.479 -0.1334 -0.0979  0.0075
  526PYPI   C1A 8167   5.661   3.100  10.278  0.1313 -0.1978 -0.0674
  526PYPI   C2A 8168   5.656   3.067   9.881 -0.0704 -0.0414  0.1516
  526PYPI   D3A 8169   5.681   2.957   9.455  0.0301  0.1621  0.0320
  526PYPI   C4A 8170   5.732   2.983   9.005 -0.4935 -0.2689 -0.0349
  526PYPI   C1B 8171   5.203   3.380  10.164  0.1970  0.3431  0.0716
  526PYPI   C2B 8172   5.216   3.198   9.721  0.2376  0.1391  0.1581
  526PYPI   C3B 8173   5.253   3.131   9.265 -0.1299 -0.1175  0.0106
  526PYPI   C4B 8174   5.221   3.086   8.817 -0.0966  0.1664 -0.2065
  527PYPI    C1 8175  13.107  16.759  11.047  0.2518  0.2381 -0.0559
  527PYPI    C2 8176  13.421  16.928  11.227  0.1706  0.1623  0.1600
  527PYPI    C3 8177  13.097  16.832  11.440  0.0534  0.1162 -0.0371
  527PYPI   PO4 8178  13.140  16.826  10.781 -0.0363  0.0252  0.1552
  527PYPI   GL1 8179  13.167  16.850  10.469  0.1522 -0.0108 -0.0119
  527PYPI   GL2 8180  13.289  16.546  10.380  0.0079  0.1820 -0.2042
  527PYPI   C1A 8181  13.267  17.195  10.129  0.1930  0.1239  0.1668
  527PYPI   C2A 8182  13.234  17.240   9.631  0.0845 -0.1695 -0.1154
  527PYPI   D3A 8183  13.055  17.302   9.334  0.1719 -0.0598 -0.2267
  527PYPI   C4A 8184  13.144  17.235   8.941 -0.1525 -0.2055 -0.1174
  527PYPI   C1B 8185  13.319  16.714  10.002  0.1659 -0.1145 -0.1070
  527PYPI   C2B 8186  13.373  16.698   9.607  0.1788 -0.0096 -0.1425
  527PYPI   C3B 8187  13.310  16.855   9.235 -0.0694  0.1057  0.1483
  527PYPI   C4B 8188  13.283  16.849   8.781 -0.1361 -0.0744  0.1933
  528PYPI    C1 8189   5.718  13.405  10.942 -0.1335 -0.0929  0.0550
  528PYPI    C2 8190   6.088  13.556  10.960 -0.1613 -0.0352  0.1497
  528PYPI    C3 8191   6.032  13.160  10.985 -0.1111 -0.0390  0.2053
  528PYPI   PO4 8192   5.655  13.530  10.796 -0.0748  0.1242  0.0610
  528PYPI   GL1 8193   5.560  13.677  10.401  0.1480 -0.2582  0.0073
  528PYPI   GL2 8194   5.345  13.662  10.227  0.2276  0.1600 -0.1101
  528PYPI   C1A 8195   5.881  13.602  10.142  0.2377  0.0892 -0.0138
  528PYPI   C2A 8196   6.001  13.615   9.677 -0.2891 -0.1117  0.1032
  528PYPI   D3A 8197   6.122  13.789   9.264  0.1987 -0.1676  0.1491
  528PYPI   C4A 8198   5.864  13.692   8.951 -0.0558  0.2494 -0.0930
  528PYPI   C1B 8199   5.464  13.755   9.828 -0.0028 -0.0228  0.0148
  528PYPI   C2B 8200   5.583  13.908   9.369  0.0126 -0.0808  0.0643
  528PYPI   C3B 8201   5.467  13.897   8.817  0.3730  0.3446  0.1096
  528PYPI   C4B 8202   5.373  13.960   8.419 -0.0593 -0.0944 -0.3439
  529PYPI    C1 8203   7.511  15.573  10.811 -0.0442  0.0491 -0.1404
  529PYPI    C2 8204   7.480  15.174  10.813  0.0245  0.0438  0.0054
  529PYPI    C3 8205   7.159  15.400  10.735 -0.0069 -0.0402 -0.1116
  529PYPI   PO4 8206   7.835  15.684  10.581  0.0383  0.0320 -0.0025
  529PYPI   GL1 8207   8.028  16.000  10.232  0.1958 -0.3039  0.0325
  529PYPI   GL2 8208   7.758  15.970  10.224  0.3206  0.2974 -0.0568
  529PYPI   C1A 8209   8.198  16.252  10.046  0.1465 -0.2800  0.3230
  529PYPI   C2A 8210   8.170  16.220   9.616  0.0229 -0.0550  0.0240
  529PYPI   D3A 8211   8.083  16.287   9.239 -0.0073 -0.1333  0.0492
  529PYPI   C4A 8212   8.212  16.487   8.844  0.1236  0.0950  0.0334
  529PYPI   C1B 8213   7.648  16.140   9.868 -0.2714  0.0436 -0.1330
  529PYPI   C2B 8214   7.682  16.380   9.525  0.2918  0.0951 -0.0441
  529PYPI   C3B 8215   7.693  16.560   9.135 -0.0223 -0.0540  0.0983
  529PYPI   C4B 8216   7.723  16.670   8.714  0.0668 -0.0622 -0.1968
  530PYPI    C1 8217   2.392   5.226  10.431  0.0412 -0.0297  0.0995
  530PYPI    C2 8218   2.032   5.168  10.268  0.0307 -0.0676  0.1363
  530PYPI    C3 8219   2.066   5.366  10.614  0.0682  0.1653  0.0008
  530PYPI   PO4 8220   2.541   5.141  10.202  0.0721  0.1590  0.1723
  530PYPI   GL1 8221   2.628   5.263   9.790  0.1943  0.1140 -0.1648
  530PYPI   GL2 8222   2.447   5.533   9.742  0.0345  0.0281 -0.0599
  530PYPI   C1A 8223   2.920   5.352   9.404  0.0140 -0.0509 -0.1689
  530PYPI   C2A 8224   2.881   5.477   8.923 -0.1997  0.1962  0.0587
  530PYPI   D3A 8225   3.033   5.483   8.550 -0.1248 -0.2594  0.1692
  530PYPI   C4A 8226   2.827   5.478   8.104 -0.0192 -0.5562 -0.0874
  530PYPI   C1B 8227   2.449   5.542   9.289  0.1640  0.1073 -0.1816
  530PYPI   C2B 8228   2.401   5.575   8.904  0.0956 -0.1142  0.0864
  530PYPI   C3B 8229   2.450   5.703   8.488  0.0270  0.1499 -0.0049
  530PYPI   C4B 8230   2.491   5.861   8.085  0.0982 -0.1086  0.1669
  531PYPI    C1 8231  13.660   0.579  11.192 -0.3457 -0.1352 -0.0127
  531PYPI    C2 8232  13.568   0.862  11.459 -0.3422 -0.0741 -0.0759
  531PYPI    C3 8233  13.839   0.582  11.549 -0.0521  0.1746 -0.1568
  531PYPI   PO4 8234  13.732   0.676  10.970 -0.1428  0.2816  0.2871
  531PYPI   GL1 8235  13.944   0.388  10.737  0.0046 -0.3185 -0.0435
  531PYPI   GL2 8236  13.990   0.633  10.511  0.2082 -0.2208  0.2484
  531PYPI   C1A 8237  14.297   0.252  10.378 -0.2942 -0.0306  0.3066
  531PYPI   C2A 8238  14.362   0.292   9.912 -0.2717  0.1828  0.2817
  531PYPI   D3A 8239  14.263   0.293   9.473  0.2136  0.0089  0.0778
  531PYPI   C4A 8240  14.268   0.399   9.093  0.0550 -0.1386  0.1027
  531PYPI   C1B 8241  13.935   0.503  10.128  0.3639 -0.0760 -0.2238
  531PYPI   C2B 8242  13.903   0.536   9.744 -0.0094 -0.1959  0.2813
  531PYPI   C3B 8243  13.748   0.493   9.276 -0.3026  0.0843  0.0519
  531PYPI   C4B 8244  13.821   0.460   8.826  0.4396  0.0481  0.0584
  532PYPI    C1 8245   5.002  10.949  10.508 -0.1297  0.0414  0.1457
  532PYPI    C2 8246   5.288  10.776  10.728 -0.0520  0.1471  0.1285
  532PYPI    C3 8247   5.020  11.017  10.902 -0.0259  0.1846  0.1169
  532PYPI   PO4 8248   5.046  10.858  10.243  0.0303  0.1937 -0.0239
  532PYPI   GL1 8249   5.098  10.863   9.781 -0.1193  0.0866 -0.0609
  532PYPI   GL2 8250   5.406  10.599   9.877 -0.1325 -0.2476 -0.2272
  532PYPI   C1A 8251   5.095  11.058   9.394  0.0568 -0.0125 -0.1137
  532PYPI   C2A 8252   5.134  11.066   9.048  0.3096 -0.0057 -0.1374
  532PYPI   D3A 8253   5.057  11.138   8.622 -0.2526  0.1712 -0.2343
  532PYPI   C4A 8254   5.109  11.156   8.211  0.0517 -0.0271  0.0437
  532PYPI   C1B 8255   5.535  10.739   9.549 -0.5122  0.0585  0.0516
  532PYPI   C2B 8256   5.519  10.805   9.166  0.1626 -0.0470  0.0821
  532PYPI   C3B 8257   5.533  11.088   8.797  0.1925 -0.2572  0.3497
  532PYPI   C4B 8258   5.576  11.011   8.333 -0.4839 -0.0936  0.1849
  533PYPI    C1 8259   8.540   9.024  10.466 -0.1653 -0.0429  0.1791
  533PYPI    C2 8260   8.780   9.126  10.769  0.0432  0.1471 -0.0465
  533PYPI    C3 8261   8.655   9.404  10.511 -0.0676 -0.0266 -0.1822
  533PYPI   PO4 8262   8.307   8.916  10.395 -0.1203 -0.0117 -0.0268
  533PYPI   GL1 8263   8.120   8.868  10.000  0.1846 -0.2032 -0.3495
  533PYPI   GL2 8264   7.849   8.739   9.850  0.1907 -0.1243  0.1505
  533PYPI   C1A 8265   8.258   9.011   9.577  0.1201  0.0410 -0.0608
  533PYPI   C2A 8266   8.134   9.069   9.130 -0.0770 -0.0711  0.5021
  533PYPI   D3A 8267   8.261   9.051   8.762  0.0021 -0.1197 -0.1364
  533PYPI   C4A 8268   8.211   9.414   8.400 -0.2408 -0.0683 -0.3197
  533PYPI   C1B 8269   7.811   8.779   9.375  0.1663 -0.2409  0.1430
  533PYPI   C2B 8270   7.827   8.737   8.963 -0.0580 -0.0969  0.0177
  533PYPI   C3B 8271   7.833   8.627   8.533  0.3724 -0.0419 -0.2255
  533PYPI   C4B 8272   8.029   8.390   8.297  0.2120  0.1689  0.0095
  534PYPI    C1 8273  15.118  15.620  11.135 -0.1619 -0.0515  0.0910
  534PYPI    C2 8274  15.113  15.953  11.357 -0.2423 -0.0602  0.1025
  534PYPI    C3 8275  15.127  15.595  11.534 -0.0269 -0.0602  0.0879
  534PYPI   PO4 8276  15.348  15.687  10.988 -0.2353  0.2037  0.3138
  534PYPI   GL1 8277  15.698  15.658  10.666  0.0694 -0.1185 -0.0573
  534PYPI   GL2 8278  15.963  15.488  10.544 -0.1363 -0.0764  0.1482
  534PYPI   C1A 8279  15.559  15.723  10.327 -0.0354  0.2369 -0.1150
  534PYPI   C2A 8280  15.475  15.725  10.036  0.0729  0.2633  0.0607
  534PYPI   D3A 8281  15.432  15.673   9.635  0.2035  0.0489 -0.3084
  534PYPI   C4A 8282  15.460  15.739   9.199  0.0166 -0.0041  0.0716
  534PYPI   C1B 8283  15.997  15.456  10.126 -0.1405 -0.2653 -0.0102
  534PYPI   C2B 8284  16.058  15.581   9.743 -0.1173  0.1830 -0.1564
  534PYPI   C3B 8285  15.890  15.539   9.363  0.1951 -0.1602  0.1059
  534PYPI   C4B 8286  16.047  15.732   8.994  0.1317 -0.0605 -0.2483
  535PYPI    C1 8287  16.705   7.934  10.197  0.1035 -0.0909 -0.0755
  535PYPI    C2 8288  16.821   8.306  10.287 -0.2192 -0.0088  0.0166
  535PYPI    C3 8289  16.552   8.119  10.517 -0.2370 -0.2100 -0.1638
  535PYPI   PO4 8290  16.622   7.919   9.933  0.0311 -0.0156 -0.0172
  535PYPI   GL1 8291  16.566   8.001   9.517 -0.2347  0.2535  0.1376
  535PYPI   GL2 8292  16.820   7.971   9.459  0.0767  0.1021  0.0635
  535PYPI   C1A 8293  16.471   8.105   9.085  0.2918 -0.0678  0.0685
  535PYPI   C2A 8294  16.291   8.194   8.633  0.2117  0.2355 -0.1163
  535PYPI   D3A 8295  16.526   8.176   8.201  0.1413 -0.2133  0.0265
  535PYPI   C4A 8296  16.559   8.118   7.724 -0.0173 -0.2621 -0.0533
  535PYPI   C1B 8297  17.007   7.804   9.135 -0.1195  0.0395 -0.2059
  535PYPI   C2B 8298  16.984   7.519   8.839  0.1223 -0.0202  0.0823
  535PYPI   C3B 8299  16.936   7.307   8.481  0.2672 -0.0165 -0.0436
  535PYPI   C4B 8300  16.804   7.241   8.086 -0.0608 -0.2662  0.2273
  536PYPI    C1 8301  17.344   5.787  10.179  0.0617  0.0064 -0.0531
  536PYPI    C2 8302  17.186   5.961  10.502 -0.1882 -0.2166 -0.0511
  536PYPI    C3 8303  17.571   5.851  10.502 -0.0599  0.2110 -0.0066
  536PYPI   PO4 8304  17.218   5.938   9.934  0.1025 -0.0359 -0.2295
  536PYPI   GL1 8305  17.037   5.662   9.591  0.0529 -0.0919  0.0621
  536PYPI   GL2 8306  17.078   6.022   9.416 -0.1553 -0.0030  0.0145
  536PYPI   C1A 8307  16.945   5.596   9.251 -0.1741 -0.0111  0.0885
  536PYPI   C2A 8308  16.927   5.528   8.819 -0.5107  0.1832  0.3238
  536PYPI   D3A 8309  16.927   5.407   8.449  0.0362  0.2145 -0.0890
  536PYPI   C4A 8310  16.575   5.428   8.129 -0.2860  0.2191 -0.0651
  536PYPI   C1B 8311  17.015   5.971   8.953  0.1922 -0.5614  0.0969
  536PYPI   C2B 8312  17.018   5.889   8.509 -0.1883  0.0182 -0.2070
  536PYPI   C3B 8313  17.148   5.758   8.148  0.1377  0.0183 -0.0269
  536PYPI   C4B 8314  17.329   5.730   7.707 -0.0122  0.0404 -0.1613
  537PYPI    C1 8315  15.802  10.242  10.158  0.1607  0.3556  0.1820
  537PYPI    C2 8316  16.123  10.098   9.968 -0.0123  0.0192  0.1379
  537PYPI    C3 8317  16.122  10.123  10.367 -0.0576 -0.3095  0.1617
  537PYPI   PO4 8318  15.758  10.462  10.057 -0.1407 -0.2717 -0.1131
  537PYPI   GL1 8319  15.744  10.801   9.773 -0.0450 -0.2810 -0.0794
  537PYPI   GL2 8320  15.938  10.588   9.530  0.2063  0.2987  0.1553
  537PYPI   C1A 8321  15.715  11.085   9.422  0.3825  0.1448  0.0084
  537PYPI   C2A 8322  15.703  11.152   8.986 -0.1239 -0.2102  0.1017
  537PYPI   D3A 8323  15.571  11.432   8.626  0.1574 -0.1923  0.0412
  537PYPI   C4A 8324  15.262  11.655   8.562  0.1500 -0.1237  0.3156
  537PYPI   C1B 8325  16.141  10.859   9.295  0.1651 -0.0873  0.1947
  537PYPI   C2B 8326  16.098  10.906   8.810 -0.2083  0.1780  0.0057
  537PYPI   C3B 8327  16.211  10.896   8.361 -0.4479 -0.0616 -0.0075
  537PYPI   C4B 8328  16.334  10.777   7.884 -0.0695  0.2468 -0.1094
  538PYPI    C1 8329  12.842   9.709  10.389  0.4264 -0.2782  0.0581
  538PYPI    C2 8330  12.574   9.420  10.326  0.0737  0.0787 -0.1215
  538PYPI    C3 8331  12.796   9.417  10.659  0.1170 -0.4230 -0.1464
  538PYPI   PO4 8332  12.965   9.707  10.153  0.0593 -0.1637  0.2060
  538PYPI   GL1 8333  13.139   9.721   9.788  0.0311 -0.1661 -0.0798
  538PYPI   GL2 8334  13.312   9.381   9.632  0.4521 -0.0293 -0.0823
  538PYPI   C1A 8335  13.105   9.964   9.366  0.0775  0.1284  0.2835
  538PYPI   C2A 8336  13.068  10.129   8.908 -0.0973 -0.0897  0.1936
  538PYPI   D3A 8337  13.056  10.173   8.498  0.1791 -0.1612  0.3451
  538PYPI   C4A 8338  13.261  10.396   8.173 -0.0397 -0.4602  0.0085
  538PYPI   C1B 8339  13.209   9.485   9.217 -0.0260 -0.3119 -0.0373
  538PYPI   C2B 8340  13.099   9.598   8.890 -0.1233 -0.2636  0.3184
  538PYPI   C3B 8341  13.125   9.663   8.466  0.0627  0.0502  0.3279
  538PYPI   C4B 8342  13.038   9.716   7.992  0.0855  0.2391  0.0493
  539PYPI    C1 8343   6.134  15.844  11.171  0.1210 -0.3456 -0.0348
  539PYPI    C2 8344   6.236  15.582  11.456  0.2022 -0.0622  0.2021
  539PYPI    C3 8345   5.870  15.744  11.455  0.0863 -0.3164 -0.0567
  539PYPI   PO4 8346   6.279  15.740  10.903  0.1023 -0.1138 -0.0913
  539PYPI   GL1 8347   6.333  15.920  10.460  0.3415 -0.4314  0.2586
  539PYPI   GL2 8348   6.134  15.635  10.419 -0.1705  0.0588  0.0401
  539PYPI   C1A 8349   6.415  15.999   9.970 -0.0608 -0.0904  0.1157
  539PYPI   C2A 8350   6.334  15.943   9.635  0.1121 -0.0826  0.1789
  539PYPI   D3A 8351   6.400  16.095   9.227  0.0076  0.2397 -0.3114
  539PYPI   C4A 8352   6.257  16.041   8.889  0.0756 -0.1236 -0.3100
  539PYPI   C1B 8353   6.084  15.624   9.961 -0.4718  0.0815 -0.0538
  539PYPI   C2B 8354   5.996  15.676   9.488  0.1122 -0.1300 -0.0760
  539PYPI   C3B 8355   5.910  15.669   9.085 -0.2822 -0.1973 -0.0396
  539PYPI   C4B 8356   5.927  15.772   8.601  0.0782  0.0501 -0.1681
  540ERGO   ROH 8357   8.155   9.543   9.649  0.0325  0.1463  0.0677
  540ERGO    R1 8358   8.214   9.491   9.377  0.0296  0.0757  0.0813
  540ERGO    R2 8359   8.042   9.561   9.172  0.0322  0.0275  0.0677
  540ERGO    R3 8360   8.262   9.688   9.075  0.0346 -0.0035  0.0291
  540ERGO    R4 8361   8.077   9.675   8.847 -0.0608  0.1321  0.0928
  540ERGO    R5 8362   8.284   9.606   8.851 -0.0772  0.0672 -0.0108
  540ERGO    C1 8363   8.303   9.861   8.568 -0.1127  0.1639  0.0714
  540ERGO    C2 8364   8.416   9.861   8.278  0.0356 -0.0719 -0.0799
  541ERGO   ROH 8365   3.767  14.841  10.358 -0.0884  0.0275  0.0252
  541ERGO    R1 8366   3.802  14.759  10.089  0.1034 -0.0472  0.0693
  541ERGO    R2 8367   3.613  14.810   9.893  0.1103 -0.3428 -0.0270
  541ERGO    R3 8368   3.825  14.922   9.764  0.0334 -0.1507  0.0136
  541ERGO    R4 8369   3.655  14.818   9.550  0.2484 -0.4313 -0.0116
  541ERGO    R5 8370   3.867  14.776   9.580  0.2813 -0.1736  0.0908
  541ERGO    C1 8371   3.879  14.927   9.230  0.2566 -0.3023  0.0353
  541ERGO    C2 8372   3.959  15.035   8.964  0.1902  0.1951 -0.0498
  542ERGO   ROH 8373  13.904  12.289  10.151 -0.2185  0.1358 -0.0626
  542ERGO    R1 8374  13.832  12.190   9.896 -0.0433  0.0113 -0.0663
  542ERGO    R2 8375  13.692  12.341   9.712 -0.0408 -0.1255 -0.1834
  542ERGO    R3 8376  13.900  12.277   9.549  0.0730 -0.0651 -0.0632
  542ERGO    R4 8377  13.695  12.387   9.370  0.0289 -0.3915 -0.2202
  542ERGO    R5 8378  13.795  12.194   9.350  0.2133 -0.3180 -0.0353
  542ERGO    C1 8379  13.892  12.354   9.017  0.1765 -0.4896 -0.1288
  542ERGO    C2 8380  13.872  12.486   8.781  0.2016 -0.0014 -0.2182
  543ERGO   ROH 8381  17.381  17.712   6.733 -0.0850  0.1838  0.0073
  543ERGO    R1 8382  17.531  17.807   6.954  0.0916  0.1725 -0.1071
  543ERGO    R2 8383  17.720  18.007   6.930 -0.0673  0.3071 -0.2154
  543ERGO    R3 8384  17.574  18.123   7.127  0.0702  0.1157  0.0052
  543ERGO    R4 8385  17.853  18.179   7.198  0.1292  0.0614 -0.1510
  543ERGO    R5 8386  17.703  18.086   7.326  0.2254 -0.0685 -0.1220
  543ERGO    C1 8387  17.794  18.388   7.540  0.3728 -0.2613  0.0935
  543ERGO    C2 8388  18.012  18.571   7.839 -0.0474  0.2666  0.1367
  544ERGO   ROH 8389   3.497   6.040   9.742  0.0546  0.1573  0.0609
  544ERGO    R1 8390   3.586   6.174   9.509 -0.0323  0.1027 -0.0023
  544ERGO    R2 8391   3.820   6.106   9.378 -0.0672  0.1003 -0.0452
  544ERGO    R3 8392   3.655   6.085   9.162 -0.1185  0.0189 -0.0011
  544ERGO    R4 8393   3.925   6.065   9.051 -0.1096  0.3648 -0.0954
  544ERGO    R5 8394   3.769   6.204   8.989 -0.2908  0.2319  0.0161
  544ERGO    C1 8395   3.832   6.022   8.659 -0.1824  0.4423 -0.0833
  544ERGO    C2 8396   4.107   5.843   8.368  0.1086 -0.2273  0.1810
  545ERGO   ROH 8397   8.375   8.549   9.731 -0.0493  0.2865  0.0220
  545ERGO    R1 8398   8.219   8.514   9.498  0.0240  0.2203 -0.0176
  545ERGO    R2 8399   8.291   8.619   9.253  0.0906  0.1677 -0.0209
  545ERGO    R3 8400   8.263   8.362   9.170  0.1347  0.1460  0.0313
  545ERGO    R4 8401   8.338   8.511   8.928  0.0889  0.1128 -0.0029
  545ERGO    R5 8402   8.164   8.381   8.953  0.1160  0.0840  0.0344
  545ERGO    C1 8403   8.338   8.206   8.661  0.1292  0.0603  0.0566
  545ERGO    C2 8404   8.284   7.956   8.326 -0.2482  0.0808 -0.2484
  546ERGO   ROH 8405  17.706   0.649  10.330 -0.0360 -0.0091 -0.0443
  546ERGO    R1 8406  17.679   0.468  10.114 -0.1884  0.0527 -0.0789
  546ERGO    R2 8407  17.502   0.509   9.906 -0.0007  0.3545 -0.1874
  546ERGO    R3 8408  17.725   0.477   9.753  0.0514  0.0230 -0.0503
  546ERGO    R4 8409  17.503   0.485   9.561  0.1832  0.4082 -0.1917
  546ERGO    R5 8410  17.656   0.330   9.578 -0.0724  0.1597 -0.1161
  546ERGO    C1 8411  17.712   0.440   9.217  0.3391  0.1283 -0.0655
  546ERGO    C2 8412  17.727   0.412   8.779 -0.1078  0.0213  0.1515
  547ERGO   ROH 8413   3.586  15.818  10.458  0.0609 -0.1087  0.0528
  547ERGO    R1 8414   3.475  15.870  10.202  0.1146 -0.1247  0.0270
  547ERGO    R2 8415   3.594  16.041  10.021  0.1262 -0.1027  0.0624
  547ERGO    R3 8416   3.579  15.825   9.856  0.2051 -0.0990  0.0487
  547ERGO    R4 8417   3.565  16.057   9.677 -0.1998 -0.0729  0.0875
  547ERGO    R5 8418   3.424  15.891   9.686 -0.0241 -0.2294  0.1954
  547ERGO    C1 8419   3.534  15.864   9.322 -0.3155 -0.0521  0.0892
  547ERGO    C2 8420   3.532  15.882   9.013  0.4725  0.1550  0.0267
  548ERGO   ROH 8421  12.024   3.025   9.865  0.0393  0.1084  0.0719
  548ERGO    R1 8422  11.955   2.857   9.648 -0.0557  0.0759  0.1251
  548ERGO    R2 8423  11.817   2.949   9.427  0.0815  0.1088  0.0443
  548ERGO    R3 8424  12.027   2.843   9.291  0.0276 -0.1377  0.1508
  548ERGO    R4 8425  11.837   2.922   9.083  0.3692  0.3928  0.0348
  548ERGO    R5 8426  11.927   2.725   9.108 -0.0046  0.2083 -0.0566
  548ERGO    C1 8427  12.046   2.807   8.755  0.4861  0.3267  0.1293
  548ERGO    C2 8428  12.211   2.922   8.483  0.2372 -0.0573  0.1488
  549ERGO   ROH 8429   7.483  16.913  10.382  0.0844 -0.2861  0.0556
  549ERGO    R1 8430   7.491  17.043  10.131  0.1077 -0.1295  0.1357
  549ERGO    R2 8431   7.725  17.074   9.986  0.0781 -0.2943  0.0430
  549ERGO    R3 8432   7.580  16.954   9.790 -0.1537 -0.0109  0.0355
  549ERGO    R4 8433   7.775  17.119   9.647 -0.0181 -0.1740  0.0444
  549ERGO    R5 8434   7.559  17.122   9.620 -0.0255  0.1044  0.1360
  549ERGO    C1 8435   7.668  17.033   9.266 -0.2916  0.1621  0.0382
  549ERGO    C2 8436   7.541  17.051   8.926  0.3139 -0.0112 -0.2404
  550ERGO   ROH 8437   8.697  14.510  10.371 -0.1142  0.3424  0.0412
  550ERGO    R1 8438   8.564  14.657  10.169 -0.2512  0.0631 -0.0730
  550ERGO    R2 8439   8.699  14.811   9.984 -0.4066  0.1973 -0.0571
  550ERGO    R3 8440   8.559  14.661   9.805 -0.1001 -0.0759 -0.0820
  550ERGO    R4 8441   8.656  14.890   9.650 -0.7100  0.2925 -0.0009
  550ERGO    R5 8442   8.450  14.822   9.666 -0.5613 -0.2466  0.0428
  550ERGO    C1 8443   8.500  14.796   9.288 -0.5990  0.0917  0.0083
  550ERGO    C2 8444   8.493  14.770   8.934  0.2904  0.0650  0.0125
  551ERGO   ROH 8445   3.420   5.226   9.610  0.0938 -0.0044 -0.0166
  551ERGO    R1 8446   3.410   5.132   9.343 -0.0604 -0.0331 -0.0011
  551ERGO    R2 8447   3.309   5.284   9.136 -0.1521 -0.0461  0.0390
  551ERGO    R3 8448   3.550   5.233   9.022 -0.2199 -0.0880 -0.0905
  551ERGO    R4 8449   3.363   5.242   8.797 -0.2913  0.2978 -0.0310
  551ERGO    R5 8450   3.501   5.080   8.844 -0.3850  0.1419 -0.2522
  551ERGO    C1 8451   3.621   5.169   8.493 -0.4360  0.4587 -0.1935
  551ERGO    C2 8452   3.758   5.301   8.174  0.1372  0.2245 -0.1147
  552ERGO   ROH 8453  10.728  10.044   6.476 -0.1099  0.1681  0.0721
  552ERGO    R1 8454  10.716  10.112   6.751 -0.1149  0.0441  0.1031
  552ERGO    R2 8455  10.593   9.950   6.939 -0.0105 -0.1006  0.0481
  552ERGO    R3 8456  10.833   9.969   7.064 -0.0057 -0.0299  0.0292
  552ERGO    R4 8457  10.639   9.930   7.281  0.0402 -0.2580  0.0329
  552ERGO    R5 8458  10.786  10.090   7.265 -0.0530 -0.1639  0.1009
  552ERGO    C1 8459  10.892   9.936   7.598  0.0743 -0.2832  0.0064
  552ERGO    C2 8460  10.944   9.816   8.069 -0.0601  0.0403  0.1135
  553ERGO   ROH 8461  15.310  16.764  10.753 -0.0502  0.0438 -0.0869
  553ERGO    R1 8462  15.234  16.645  10.508 -0.3917  0.0409  0.0148
  553ERGO    R2 8463  15.054  16.764  10.335 -0.1521  0.3596 -0.0339
  553ERGO    R3 8464  15.255  16.731  10.155 -0.2508 -0.2605 -0.0516
  553ERGO    R4 8465  15.013  16.754   9.992 -0.2091  0.3985 -0.0278
  553ERGO    R5 8466  15.160  16.594   9.984 -0.6631 -0.0338 -0.0106
  553ERGO    C1 8467  15.178  16.718   9.623 -0.3349 -0.1612 -0.0406
  553ERGO    C2 8468  15.095  16.607   9.293 -0.2487 -0.0657 -0.1630
  554ERGO   ROH 8469   0.999  14.666  10.595 -0.1258 -0.0574 -0.0465
  554ERGO    R1 8470   0.950  14.623  10.320 -0.0626  0.0206 -0.0705
  554ERGO    R2 8471   0.788  14.790  10.170 -0.1452 -0.0170 -0.0276
  554ERGO    R3 8472   1.007  14.805  10.010 -0.1305  0.1791  0.0093
  554ERGO    R4 8473   0.781  14.827   9.826 -0.1178 -0.0244 -0.0286
  554ERGO    R5 8474   0.946  14.686   9.812  0.0111  0.1235 -0.0008
  554ERGO    C1 8475   0.983  14.862   9.476 -0.0880  0.1555  0.0054
  554ERGO    C2 8476   0.877  14.833   9.145 -0.1003 -0.3274  0.3349
  555ERGO   ROH 8477  16.471  10.857   9.713  0.0042 -0.2736 -0.1248
  555ERGO    R1 8478  16.619  10.978   9.504 -0.0067 -0.2166 -0.1002
  555ERGO    R2 8479  16.677  10.846   9.268 -0.1258 -0.1108 -0.1921
  555ERGO    R3 8480  16.561  11.064   9.155 -0.0725 -0.0007 -0.0371
  555ERGO    R4 8481  16.664  10.909   8.928 -0.2603  0.0527 -0.1573
  555ERGO    R5 8482  16.703  11.119   8.971 -0.1356  0.0127 -0.0805
  555ERGO    C1 8483  16.546  11.151   8.625 -0.2887  0.2513  0.0086
  555ERGO    C2 8484  16.537  11.322   8.355 -0.3734  0.0590 -0.1877
  556ERGO   ROH 8485   7.670  10.190   9.756 -0.1720  0.2185  0.2416
  556ERGO    R1 8486   7.519  10.299   9.543  0.0207  0.1920  0.0886
  556ERGO    R2 8487   7.633  10.381   9.305  0.1951 -0.1628  0.0451
  556ERGO    R3 8488   7.450  10.212   9.196  0.0368 -0.0602  0.1459
  556ERGO    R4 8489   7.541  10.378   8.972  0.1788 -0.2625  0.0496
  556ERGO    R5 8490   7.335  10.346   9.034  0.1498 -0.0427  0.0773
  556ERGO    C1 8491   7.316  10.217   8.676  0.0207 -0.2242  0.1470
  556ERGO    C2 8492   7.438  10.085   8.330  0.2981 -0.1918 -0.0116
  557ERGO   ROH 8493   2.728  17.400  10.402 -0.0212 -0.1933 -0.0826
  557ERGO    R1 8494   2.807  17.264  10.167 -0.1720 -0.2583 -0.0961
  557ERGO    R2 8495   2.627  17.140   9.998 -0.3289  0.1036 -0.1960
  557ERGO    R3 8496   2.747  17.295   9.810  0.0055 -0.0404 -0.1104
  557ERGO    R4 8497   2.654  17.060   9.663 -0.2866  0.1159 -0.1963
  557ERGO    R5 8498   2.856  17.140   9.665 -0.1567 -0.1901 -0.0808
  557ERGO    C1 8499   2.782  17.159   9.291  0.0519 -0.0122 -0.1161
  557ERGO    C2 8500   2.740  17.160   8.896  0.2263  0.0201 -0.0589
  558ERGO   ROH 8501   3.464   7.236   9.786 -0.0599  0.1407  0.1278
  558ERGO    R1 8502   3.606   7.218   9.541 -0.0287  0.1334  0.1465
  558ERGO    R2 8503   3.503   7.089   9.319  0.0477  0.0275  0.1721
  558ERGO    R3 8504   3.554   7.327   9.198 -0.0426  0.0165  0.1113
  558ERGO    R4 8505   3.566   7.130   8.982 -0.1764 -0.0047  0.1249
  558ERGO    R5 8506   3.719   7.276   9.033 -0.1492  0.0072  0.0072
  558ERGO    C1 8507   3.650   7.377   8.671 -0.3917 -0.0339  0.0403
  558ERGO    C2 8508   3.891   7.414   8.374 -0.0859 -0.2845 -0.3056
  559ERGO   ROH 8509   5.858   5.093   9.931  0.0233 -0.0852 -0.1271
  559ERGO    R1 8510   5.877   4.911   9.715 -0.2016 -0.1124 -0.1267
  559ERGO    R2 8511   5.680   4.887   9.523 -0.1239  0.3201 -0.2770
  559ERGO    R3 8512   5.886   4.931   9.352  0.1074 -0.0930 -0.1197
  559ERGO    R4 8513   5.671   4.828   9.182 -0.0011  0.4116 -0.2961
  559ERGO    R5 8514   5.874   4.751   9.195 -0.1720 -0.0378 -0.1626
  559ERGO    C1 8515   5.859   4.836   8.824  0.2875  0.0770 -0.1596
  559ERGO    C2 8516   5.969   4.826   8.508  0.1828 -0.0407 -0.1818
  560ERGO   ROH 8517  13.716   1.038  10.317  0.0122 -0.1795  0.0533
  560ERGO    R1 8518  13.559   0.895  10.129 -0.1366  0.0388  0.0080
  560ERGO    R2 8519  13.380   1.020   9.960  0.2423  0.3226 -0.1959
  560ERGO    R3 8520  13.521   0.888   9.767  0.1327 -0.0666 -0.0212
  560ERGO    R4 8521  13.257   0.935   9.648  0.2435  0.2170 -0.1688
  560ERGO    R5 8522  13.360   0.744   9.664 -0.0431  0.0726  0.0500
  560ERGO    C1 8523  13.317   0.763   9.286  0.1413 -0.2099  0.0111
  560ERGO    C2 8524  13.291   0.659   8.991 -0.0649 -0.0765  0.2377
  561ERGO   ROH 8525   3.925  17.040  10.500  0.0826 -0.0987 -0.0665
  561ERGO    R1 8526   3.911  17.101  10.224  0.0936  0.0602 -0.0350
  561ERGO    R2 8527   4.044  17.316  10.111  0.2256  0.0413  0.0625
  561ERGO    R3 8528   4.145  17.125   9.947  0.0841  0.0576 -0.0401
  561ERGO    R4 8529   4.077  17.345   9.768  0.4026  0.2575  0.0973
  561ERGO    R5 8530   4.012  17.139   9.749  0.1879  0.3477 -0.0857
  561ERGO    C1 8531   4.190  17.183   9.415  0.3727  0.3987  0.0210
  561ERGO    C2 8532   4.143  17.048   9.084  0.0482  0.2592 -0.0620
  562ERGO   ROH 8533   5.640  15.643   6.733  0.2486 -0.2678 -0.0089
  562ERGO    R1 8534   5.641  15.740   6.999  0.1371 -0.1198 -0.0612
  562ERGO    R2 8535   5.519  15.604   7.206  0.1879 -0.0844 -0.0116
  562ERGO    R3 8536   5.765  15.625   7.321  0.1535  0.1393  0.0282
  562ERGO    R4 8537   5.585  15.544   7.540  0.1892 -0.0545 -0.0059
  562ERGO    R5 8538   5.720  15.716   7.539  0.0285  0.0784  0.0316
  562ERGO    C1 8539   5.854  15.528   7.842  0.1575  0.1730  0.0346
  562ERGO    C2 8540   5.749  15.382   8.226 -0.0805  0.1127  0.0231
  563ERGO   ROH 8541   2.132  14.934  10.552 -0.0447  0.0513 -0.0636
  563ERGO    R1 8542   1.943  14.925  10.342 -0.0753  0.1503 -0.0415
  563ERGO    R2 8543   1.924  15.123  10.150  0.1160  0.0822 -0.1349
  563ERGO    R3 8544   1.953  14.914   9.978 -0.1180 -0.0324 -0.0381
  563ERGO    R4 8545   1.827  15.127   9.818  0.1704  0.0580 -0.1507
  563ERGO    R5 8546   1.755  14.922   9.843 -0.0903  0.1560 -0.0703
  563ERGO    C1 8547   1.797  14.933   9.464 -0.0176 -0.0637 -0.0690
  563ERGO    C2 8548   1.950  14.952   9.118 -0.0348 -0.1941 -0.0357
  564ERGO   ROH 8549  17.532   5.759   9.578  0.0514 -0.2227  0.0801
  564ERGO    R1 8550  17.435   5.728   9.314  0.0598 -0.4468  0.1019
  564ERGO    R2 8551  17.477   5.917   9.117 -0.3465 -0.3817  0.0719
  564ERGO    R3 8552  17.579   5.704   8.981  0.0482 -0.2060  0.0775
  564ERGO    R4 8553  17.511   5.900   8.773 -0.2474 -0.2988  0.0765
  564ERGO    R5 8554  17.446   5.692   8.782  0.1037 -0.4191  0.0489
  564ERGO    C1 8555  17.625   5.691   8.446  0.1807 -0.0857  0.0845
  564ERGO    C2 8556  17.608   5.823   8.199 -0.4787 -0.1108  0.0023
  565ERGO   ROH 8557  12.545   0.227  10.367 -0.0040  0.0127 -0.0054
  565ERGO    R1 8558  12.654   0.176  10.111  0.0443 -0.0216  0.0204
  565ERGO    R2 8559  12.604  -0.057   9.971 -0.1693  0.0809 -0.0875
  565ERGO    R3 8560  12.526   0.116   9.776  0.1071  0.2478 -0.0535
  565ERGO    R4 8561  12.679  -0.090   9.635 -0.1359  0.0878 -0.0793
  565ERGO    R5 8562  12.712   0.125   9.626  0.1539  0.0466 -0.0063
  565ERGO    C1 8563  12.649   0.053   9.257  0.1431  0.2485 -0.0428
  565ERGO    C2 8564  12.492  -0.076   8.993 -0.4240 -0.1796 -0.1056
  566ERGO   ROH 8565  17.722  14.329  10.616 -0.0181  0.0626  0.0975
  566ERGO    R1 8566  17.634  14.478  10.392  0.1163  0.1692  0.1137
  566ERGO    R2 8567  17.808  14.577  10.202  0.1914 -0.1527  0.0067
  566ERGO    R3 8568  17.645  14.443  10.030 -0.1200  0.0796  0.1137
  566ERGO    R4 8569  17.770  14.652   9.866  0.3691 -0.3197 -0.0520
  566ERGO    R5 8570  17.556  14.614   9.888  0.2693  0.1829 -0.0182
  566ERGO    C1 8571  17.594  14.570   9.511  0.1804 -0.1988  0.0143
  566ERGO    C2 8572  17.649  14.628   9.166 -0.0141  0.2489  0.3551
  567ERGO   ROH 8573   5.991  17.199  10.406  0.0453 -0.3230 -0.0342
  567ERGO    R1 8574   6.034  17.039  10.177 -0.0029 -0.2624 -0.0851
  567ERGO    R2 8575   5.880  17.061   9.948 -0.0956 -0.2508 -0.0195
  567ERGO    R3 8576   6.121  17.096   9.828 -0.1500 -0.1667 -0.1075
  567ERGO    R4 8577   5.937  17.039   9.608 -0.2532 -0.0073 -0.0656
  567ERGO    R5 8578   6.124  16.935   9.651 -0.2324 -0.0412 -0.2257
  567ERGO    C1 8579   6.197  17.058   9.297 -0.3958  0.2137 -0.1748
  567ERGO    C2 8580   6.234  17.181   9.003  0.0225  0.0504  0.0557
  568ERGO   ROH 8581  10.370   0.527  10.641  0.2191  0.1965 -0.1876
  568ERGO    R1 8582  10.349   0.335  10.434  0.1553  0.1295 -0.1188
  568ERGO    R2 8583  10.122   0.305  10.281  0.1073  0.0766 -0.0344
  568ERGO    R3 8584  10.295   0.338  10.074  0.0395  0.0111 -0.1036
  568ERGO    R4 8585  10.039   0.273   9.946  0.0235 -0.1543  0.0052
  568ERGO    R5 8586  10.229   0.172   9.914  0.0501 -0.1103  0.0142
  568ERGO    C1 8587  10.154   0.287   9.558 -0.0889 -0.3503 -0.0366
  568ERGO    C2 8588  10.072   0.248   9.201  0.0338 -0.2281  0.0125
  569ERGO   ROH 8589  11.288   6.688   9.886  0.1199 -0.2731 -0.0278
  569ERGO    R1 8590  11.319   6.565   9.633  0.0488 -0.2060 -0.0692
  569ERGO    R2 8591  11.109   6.441   9.502 -0.0430  0.0384 -0.1526
  569ERGO    R3 8592  11.181   6.608   9.299  0.1467  0.0483 -0.0797
  569ERGO    R4 8593  11.106   6.358   9.166 -0.1776  0.1929 -0.1906
  569ERGO    R5 8594  11.293   6.467   9.142 -0.0398 -0.0241 -0.1543
  569ERGO    C1 8595  11.170   6.467   8.781 -0.0779  0.2921 -0.1443
  569ERGO    C2 8596  11.227   6.190   8.477 -0.2729  0.1871  0.0269
  570ERGO   ROH 8597   2.381   0.796   9.805 -0.0803 -0.2073 -0.1318
  570ERGO    R1 8598   2.366   0.659   9.558 -0.1798 -0.0945 -0.1898
  570ERGO    R2 8599   2.258   0.774   9.330  0.1265  0.1716 -0.2087
  570ERGO    R3 8600   2.498   0.705   9.222  0.0754 -0.1874 -0.1046
  570ERGO    R4 8601   2.310   0.697   8.997  0.1376  0.0056 -0.1686
  570ERGO    R5 8602   2.444   0.538   9.060 -0.0992 -0.1632 -0.0744
  570ERGO    C1 8603   2.565   0.588   8.702  0.0960 -0.4281 -0.0474
  570ERGO    C2 8604   2.631   0.634   8.378  0.1232 -0.1784 -0.0660
  571ERGO   ROH 8605   4.923   4.342  10.082  0.1941 -0.1763 -0.0295
  571ERGO    R1 8606   4.967   4.200   9.841  0.1481 -0.1220 -0.0703
  571ERGO    R2 8607   4.795   4.216   9.625  0.0825 -0.1077 -0.0182
  571ERGO    R3 8608   5.022   4.283   9.491  0.0333 -0.0439 -0.0699
  571ERGO    R4 8609   4.846   4.169   9.287  0.1021 -0.2954  0.0102
  571ERGO    R5 8610   5.050   4.108   9.331  0.1446 -0.1305  0.0435
  571ERGO    C1 8611   5.088   4.204   8.964  0.0674 -0.3447 -0.0220
  571ERGO    C2 8612   5.108   4.246   8.664 -0.2307  0.2508  0.3032
  572ERGO   ROH 8613  15.781   2.514  10.153  0.3798  0.2580  0.0238
  572ERGO    R1 8614  15.655   2.482   9.902  0.1710  0.3189  0.1182
  572ERGO    R2 8615  15.691   2.660   9.694  0.3351  0.1488 -0.0049
  572ERGO    R3 8616  15.761   2.436   9.557 -0.1097 -0.0493  0.0752
  572ERGO    R4 8617  15.679   2.628   9.350  0.4291  0.1101 -0.0040
  572ERGO    R5 8618  15.603   2.425   9.377 -0.0546  0.2804  0.0006
  572ERGO    C1 8619  15.738   2.398   9.021  0.0663 -0.0985  0.0716
  572ERGO    C2 8620  15.760   2.436   8.713 -0.0271 -0.3937 -0.1299
  573ERGO   ROH 8621   4.609  11.233   9.594  0.0990  0.1752  0.0050
  573ERGO    R1 8622   4.545  11.310   9.330  0.0255 -0.0506 -0.0454
  573ERGO    R2 8623   4.705  11.480   9.182 -0.2228  0.1529 -0.0831
  573ERGO    R3 8624   4.697  11.278   9.001  0.1560  0.0521  0.0029
  573ERGO    R4 8625   4.684  11.522   8.839 -0.6361 -0.0155 -0.0844
  573ERGO    R5 8626   4.545  11.355   8.832 -0.2097 -0.4030  0.1012
  573ERGO    C1 8627   4.664  11.357   8.470 -0.5212 -0.2081 -0.0046
  573ERGO    C2 8628   4.620  11.375   8.164  0.0141  0.0069  0.1786
  574ERGO   ROH 8629   7.485  13.002   9.972 -0.0741  0.0080  0.0101
  574ERGO    R1 8630   7.604  13.101   9.735 -0.0294  0.0177  0.0366
  574ERGO    R2 8631   7.647  12.942   9.512  0.0369  0.0206  0.0484
  574ERGO    R3 8632   7.507  13.137   9.386  0.0472  0.0058  0.0136
  574ERGO    R4 8633   7.634  12.986   9.170  0.0646 -0.0223  0.0416
  574ERGO    R5 8634   7.646  13.201   9.202  0.0629 -0.0175  0.0165
  574ERGO    C1 8635   7.495  13.195   8.852  0.0903 -0.0611  0.0050
  574ERGO    C2 8636   7.343  13.417   8.559 -0.1463 -0.0063 -0.1141
  575ERGO   ROH 8637  17.436  17.299  10.632 -0.1413 -0.0975  0.1303
  575ERGO    R1 8638  17.543  17.183  10.397 -0.0355 -0.1832  0.2181
  575ERGO    R2 8639  17.398  17.011  10.237 -0.0450 -0.0691  0.0918
  575ERGO    R3 8640  17.466  17.188  10.042  0.2627 -0.1149  0.1532
  575ERGO    R4 8641  17.377  16.947   9.898 -0.0839  0.0687  0.0687
  575ERGO    R5 8642  17.567  17.052   9.872  0.0817 -0.2182  0.1320
  575ERGO    C1 8643  17.428  17.076   9.517  0.1822  0.1059  0.1129
  575ERGO    C2 8644  17.497  16.991   9.153 -0.0346 -0.0162 -0.0174
  576ERGO   ROH 8645  15.343   7.144   9.341 -0.1971  0.0854 -0.0287
  576ERGO    R1 8646  15.387   7.125   9.062 -0.0898  0.0149 -0.0082
  576ERGO    R2 8647  15.180   7.107   8.880 -0.0211 -0.0540 -0.0835
  576ERGO    R3 8648  15.303   7.322   8.767  0.0009 -0.0715 -0.0917
  576ERGO    R4 8649  15.154   7.198   8.548  0.0877 -0.1305 -0.1130
  576ERGO    R5 8650  15.366   7.246   8.549  0.0815 -0.1148 -0.0519
  576ERGO    C1 8651  15.254   7.452   8.248  0.1717 -0.1913 -0.1380
  576ERGO    C2 8652  15.306   7.682   7.929 -0.0992  0.3642 -0.1334
  577ERGO   ROH 8653   8.540   6.882   9.948  0.1746 -0.0667 -0.0511
  577ERGO    R1 8654   8.606   6.792   9.688  0.0497  0.0132 -0.1112
  577ERGO    R2 8655   8.501   6.561   9.579  0.1433 -0.0555 -0.0568
  577ERGO    R3 8656   8.428   6.728   9.377 -0.1354 -0.0864  0.0135
  577ERGO    R4 8657   8.463   6.466   9.249  0.1083 -0.0179 -0.0638
  577ERGO    R5 8658   8.558   6.654   9.190 -0.1300  0.1065 -0.0614
  577ERGO    C1 8659   8.374   6.567   8.867 -0.1739 -0.0250 -0.0022
  577ERGO    C2 8660   8.438   6.407   8.531  0.2211  0.0114 -0.2635
  578ERGO   ROH 8661   7.940  13.922  10.186  0.0710  0.0389  0.1480
  578ERGO    R1 8662   7.819  13.968   9.935  0.0547 -0.1358  0.1226
  578ERGO    R2 8663   7.873  14.192   9.782 -0.0971 -0.1486  0.0509
  578ERGO    R3 8664   7.930  14.007   9.590  0.0503 -0.1734  0.1162
  578ERGO    R4 8665   7.848  14.246   9.442 -0.0581 -0.2575  0.0299
  578ERGO    R5 8666   7.765  14.046   9.421  0.0607 -0.3146  0.0698
  578ERGO    C1 8667   7.886  14.105   9.064  0.1029 -0.3442  0.0790
  578ERGO    C2 8668   7.879  14.157   8.748 -0.0463 -0.0352  0.1095
  579ERGO   ROH 8669  12.391   4.853   9.802 -0.2336 -0.1997 -0.0061
  579ERGO    R1 8670  12.317   4.738   9.554 -0.0859 -0.1081 -0.0937
  579ERGO    R2 8671  12.202   4.885   9.350 -0.0386 -0.0495 -0.0753
  579ERGO    R3 8672  12.407   4.782   9.205  0.0583  0.0815 -0.0344
  579ERGO    R4 8673  12.233   4.910   9.007 -0.0066 -0.0614 -0.0740
  579ERGO    R5 8674  12.304   4.704   9.003  0.1419 -0.0134 -0.0427
  579ERGO    C1 8675  12.444   4.828   8.671  0.1031  0.0547 -0.0348
  579ERGO    C2 8676  12.511   4.838   8.348 -0.0428 -0.0846  0.0877
  580ERGO   ROH 8677   8.837   7.275   9.979 -0.5371 -0.0498  0.0245
  580ERGO    R1 8678   8.764   7.263   9.706 -0.1994  0.2020 -0.0846
  580ERGO    R2 8679   8.947   7.297   9.501  0.1232  0.0737  0.1692
  580ERGO    R3 8680   8.851   7.057   9.418 -0.0978  0.2437 -0.0833
  580ERGO    R4 8681   8.960   7.180   9.176  0.1619  0.3277  0.0773
  580ERGO    R5 8682   8.759   7.101   9.202  0.0614  0.5236 -0.0968
  580ERGO    C1 8683   8.877   6.886   8.909 -0.0230  0.6352 -0.2129
  580ERGO    C2 8684   8.834   6.683   8.641  0.2266  0.2568 -0.0845
  581ERGO   ROH 8685   2.144   9.980   9.834  0.0847 -0.0299 -0.0537
  581ERGO    R1 8686   2.028   9.958   9.577  0.1235 -0.2514 -0.0546
  581ERGO    R2 8687   2.032  10.166   9.394 -0.2724 -0.2348 -0.0508
  581ERGO    R3 8688   2.143   9.978   9.232  0.0933 -0.0264 -0.0542
  581ERGO    R4 8689   2.069  10.196   9.051 -0.3873 -0.1801 -0.0592
  581ERGO    R5 8690   2.013   9.986   9.032  0.0366 -0.3074 -0.0351
  581ERGO    C1 8691   2.195  10.037   8.700 -0.1109  0.0471 -0.0673
  581ERGO    C2 8692   2.169   9.977   8.396  0.0466 -0.0235 -0.0391
  582ERGO   ROH 8693   6.193   5.949   9.841 -0.0860  0.2728 -0.1463
  582ERGO    R1 8694   6.199   5.758   9.631 -0.2286  0.1605 -0.0508
  582ERGO    R2 8695   6.026   5.769   9.416 -0.1730  0.2253 -0.0934
  582ERGO    R3 8696   6.257   5.762   9.272 -0.1451 -0.0749 -0.0414
  582ERGO    R4 8697   6.045   5.794   9.072 -0.0586  0.2763 -0.0837
  582ERGO    R5 8698   6.200   5.640   9.074 -0.2774  0.0495 -0.0813
  582ERGO    C1 8699   6.272   5.802   8.736  0.0343  0.0242 -0.0293
  582ERGO    C2 8700   6.236   5.791   8.304  0.1269 -0.1113 -0.0652
  583ERGO   ROH 8701   4.886   7.697   6.223 -0.0700  0.1260  0.0485
  583ERGO    R1 8702   4.864   7.584   6.481 -0.0321  0.0234  0.0073
  583ERGO    R2 8703   4.913   7.729   6.712 -0.1224 -0.0326  0.0624
  583ERGO    R3 8704   4.664   7.643   6.780 -0.0848 -0.1826  0.0138
  583ERGO    R4 8705   4.808   7.658   7.034 -0.0868 -0.2888  0.0196
  583ERGO    R5 8706   4.701   7.485   6.956 -0.0154 -0.2833 -0.0903
  583ERGO    C1 8707   4.514   7.535   7.284 -0.0308 -0.5789 -0.0510
  583ERGO    C2 8708   4.335   7.684   7.484  0.0237 -0.0839  0.0089
  584ERGO   ROH 8709  16.632   2.781   9.917 -0.2042 -0.0905  0.0343
  584ERGO    R1 8710  16.674   2.770   9.637 -0.2042 -0.0925  0.0349
  584ERGO    R2 8711  16.830   2.575   9.518 -0.1296 -0.0374  0.0465
  584ERGO    R3 8712  16.607   2.533   9.369 -0.1140 -0.1370  0.0503
  584ERGO    R4 8713  16.830   2.518   9.177 -0.1007 -0.1133  0.0589
  584ERGO    R5 8714  16.653   2.645   9.161 -0.1397 -0.1680  0.0260
  584ERGO    C1 8715  16.620   2.444   8.839 -0.0692 -0.2510  0.0697
  584ERGO    C2 8716  16.551   2.323   8.524  0.1958 -0.1265 -0.0265
  585ERGO   ROH 8717  10.062  10.266   9.979  0.2817  0.0991  0.0570
  585ERGO    R1 8718   9.974  10.323   9.716  0.1366  0.0848  0.1014
  585ERGO    R2 8719  10.126  10.470   9.537 -0.0032  0.1565  0.0411
  585ERGO    R3 8720  10.090  10.252   9.378  0.0064  0.1544  0.0415
  585ERGO    R4 8721  10.184  10.463   9.197  0.1742  0.1068  0.0711
  585ERGO    R5 8722  10.004  10.342   9.174  0.1445  0.1661 -0.0127
  585ERGO    C1 8723  10.184  10.254   8.849  0.2867  0.0758  0.0890
  585ERGO    C2 8724  10.350  10.242   8.576 -0.1560  0.0387 -0.0440
  586ERGO   ROH 8725   1.096  10.225   9.804 -0.0547  0.2720  0.0722
  586ERGO    R1 8726   1.171  10.234   9.532  0.1695  0.5864  0.1387
  586ERGO    R2 8727   1.005  10.148   9.329  0.6182  0.0702 -0.0327
  586ERGO    R3 8728   1.051  10.397   9.229 -0.1143  0.2738  0.0769
  586ERGO    R4 8729   0.947  10.244   9.002  0.7105 -0.0873 -0.0966
  586ERGO    R5 8730   1.132  10.358   9.007  0.3301  0.5783  0.1727
  586ERGO    C1 8731   0.956  10.533   8.718  0.0766  0.0121 -0.0309
  586ERGO    C2 8732   0.799  10.548   8.323  0.0602 -0.0437 -0.0481
  587ERGO   ROH 8733   9.993   7.548   9.933 -0.0740  0.0265  0.0092
  587ERGO    R1 8734  10.031   7.375   9.712 -0.2759 -0.0433  0.0277
  587ERGO    R2 8735   9.821   7.285   9.556 -0.3692  0.3184 -0.0607
  587ERGO    R3 8736   9.971   7.388   9.354 -0.0991  0.0610 -0.0002
  587ERGO    R4 8737   9.831   7.161   9.234 -0.3701  0.2348 -0.0295
  587ERGO    R5 8738  10.045   7.197   9.231 -0.3084 -0.0801  0.0833
  587ERGO    C1 8739   9.977   7.185   8.856 -0.1170 -0.0555  0.0454
  587ERGO    C2 8740   9.963   7.121   8.442  0.0410 -0.2894  0.1569
  588ERGO   ROH 8741   1.717   6.936   9.583  0.0716  0.0122  0.0540
  588ERGO    R1 8742   1.697   6.816   9.327  0.0805 -0.0147  0.0659
  588ERGO    R2 8743   1.527   6.911   9.131  0.0691 -0.0506  0.0588
  588ERGO    R3 8744   1.754   6.918   8.982  0.0666 -0.0427  0.0552
  588ERGO    R4 8745   1.537   6.919   8.786  0.0643 -0.1257  0.0566
  588ERGO    R5 8746   1.705   6.781   8.792  0.0895 -0.0941  0.0860
  588ERGO    C1 8747   1.756   6.930   8.445  0.0592 -0.1620  0.0521
  588ERGO    C2 8748   1.673   7.066   8.220 -0.2922 -0.2820 -0.1183
  589ERGO   ROH 8749  17.533  12.976   9.863 -0.0143  0.3008  0.1388
  589ERGO    R1 8750  17.551  13.162   9.650 -0.1523  0.3008  0.1261
  589ERGO    R2 8751  17.677  13.104   9.411 -0.0272  0.4095  0.1646
  589ERGO    R3 8752  17.439  13.179   9.304 -0.0803  0.1514  0.0946
  589ERGO    R4 8753  17.628  13.201   9.083 -0.1167 -0.0283  0.0426
  589ERGO    R5 8754  17.494  13.356   9.153 -0.1900 -0.0069 -0.1372
  589ERGO    C1 8755  17.376  13.328   8.792 -0.2187 -0.5256 -0.0940
  589ERGO    C2 8756  17.344  13.398   8.451  0.1211  0.0897  0.0380
  590ERGO   ROH 8757  11.209   8.558  10.169  0.1747  0.0007  0.1063
  590ERGO    R1 8758  11.334   8.614   9.921  0.1143 -0.0924  0.0542
  590ERGO    R2 8759  11.273   8.476   9.689 -0.1079 -0.0273  0.0708
  590ERGO    R3 8760  11.228   8.726   9.591  0.0640  0.0188  0.1082
  590ERGO    R4 8761  11.383   8.593   9.383 -0.2086 -0.1246 -0.0036
  590ERGO    R5 8762  11.430   8.783   9.477  0.0397 -0.1712 -0.0312
  590ERGO    C1 8763  11.406   8.895   9.113 -0.1058 -0.1382 -0.0118
  590ERGO    C2 8764  11.284   8.809   8.859  0.3639  0.0351 -0.0141
  591ERGO   ROH 8765   4.927  17.932  10.086  0.2972 -0.0568 -0.0257
  591ERGO    R1 8766   4.857  17.998   9.819  0.1586 -0.0801  0.0048
  591ERGO    R2 8767   5.047  18.037   9.622  0.0538 -0.0964 -0.0937
  591ERGO    R3 8768   4.901  17.849   9.490 -0.0132 -0.1062 -0.0086
  591ERGO    R4 8769   5.075  17.966   9.285 -0.2146 -0.0105 -0.1381
  591ERGO    R5 8770   4.858  17.946   9.276 -0.2240 -0.0646  0.0464
  591ERGO    C1 8771   4.956  17.747   8.965 -0.4339  0.0304 -0.0841
  591ERGO    C2 8772   5.105  17.786   8.742  0.2052 -0.2187 -0.0350
  592ERGO   ROH 8773   6.949   9.057   9.699  0.0383 -0.0122  0.0982
  592ERGO    R1 8774   6.812   8.956   9.472  0.0888 -0.0409  0.0793
  592ERGO    R2 8775   6.845   9.062   9.219 -0.0168  0.0726  0.1053
  592ERGO    R3 8776   6.902   8.804   9.155  0.1753  0.1343  0.0207
  592ERGO    R4 8777   6.835   8.932   8.899 -0.0667  0.1160  0.0893
  592ERGO    R5 8778   6.745   8.750   8.981  0.1376  0.0258  0.0956
  592ERGO    C1 8779   6.881   8.614   8.652  0.0846  0.1991  0.0006
  592ERGO    C2 8780   6.854   8.567   8.345 -0.1213  0.0748  0.0628
  593ERGO   ROH 8781  16.623   6.349   9.429 -0.1611 -0.1163 -0.0965
  593ERGO    R1 8782  16.565   6.324   9.153  0.0146 -0.1291 -0.1337
  593ERGO    R2 8783  16.587   6.536   8.977 -0.1532 -0.0594 -0.0740
  593ERGO    R3 8784  16.746   6.363   8.840  0.1362  0.1646 -0.0304
  593ERGO    R4 8785  16.617   6.525   8.633 -0.1671 -0.1230 -0.0735
  593ERGO    R5 8786  16.620   6.307   8.644  0.2097 -0.1211 -0.0007
  593ERGO    C1 8787  16.784   6.356   8.304  0.0965  0.0503 -0.0321
  593ERGO    C2 8788  16.960   6.214   7.983  0.1035 -0.0309  0.0271
  594ERGO   ROH 8789   4.391   6.785   9.782  0.2351 -0.3310  0.0156
  594ERGO    R1 8790   4.480   6.899   9.539  0.4864 -0.3788  0.0858
  594ERGO    R2 8791   4.620   6.756   9.350  0.0672 -0.6127 -0.0389
  594ERGO    R3 8792   4.424   6.843   9.184  0.2591  0.0375  0.0451
  594ERGO    R4 8793   4.635   6.742   9.005 -0.1718 -0.8860 -0.0443
  594ERGO    R5 8794   4.543   6.940   8.999  0.5469 -0.4997 -0.0900
  594ERGO    C1 8795   4.459   6.817   8.648 -0.1308 -0.4348  0.0313
  594ERGO    C2 8796   4.404   6.721   8.352 -0.3982  0.0229  0.1533
  595ERGO   ROH 8797   8.763  11.049   9.777 -0.0592  0.3218 -0.0540
  595ERGO    R1 8798   8.642  11.100   9.527  0.0261  0.1775 -0.1266
  595ERGO    R2 8799   8.754  11.021   9.287  0.0090 -0.1425 -0.0336
  595ERGO    R3 8800   8.513  10.902   9.250 -0.0781  0.0094  0.0399
  595ERGO    R4 8801   8.666  10.835   9.010 -0.2439  0.0325 -0.0741
  595ERGO    R5 8802   8.469  10.928   9.016 -0.1900  0.1403  0.0736
  595ERGO    C1 8803   8.388  10.615   8.813 -0.4730  0.2769 -0.0288
  595ERGO    C2 8804   8.200  10.321   8.768  0.0640 -0.1004  0.0549
  596ERGO   ROH 8805   1.281   5.100   9.635  0.0397  0.0637 -0.1515
  596ERGO    R1 8806   1.318   5.145   9.358 -0.0156  0.0539 -0.1607
  596ERGO    R2 8807   1.536   5.048   9.219  0.0190  0.1517 -0.1751
  596ERGO    R3 8808   1.345   4.941   9.058  0.0551  0.0359 -0.1425
  596ERGO    R4 8809   1.576   4.985   8.882  0.1140 -0.1391 -0.1132
  596ERGO    R5 8810   1.373   5.057   8.850  0.1305 -0.1420 -0.2345
  596ERGO    C1 8811   1.420   4.849   8.533  0.2031 -0.4172 -0.0466
  596ERGO    C2 8812   1.438   4.763   8.224  0.0937 -0.1092  0.0321
  597ERGO   ROH 8813   5.691  13.791   6.468 -0.0952 -0.3671 -0.0190
  597ERGO    R1 8814   5.554  13.761   6.714 -0.1234 -0.0054  0.0138
  597ERGO    R2 8815   5.657  13.615   6.925 -0.3262 -0.0320  0.0909
  597ERGO    R3 8816   5.615  13.846   7.063  0.0336  0.1225 -0.0418
  597ERGO    R4 8817   5.714  13.657   7.263 -0.6217 -0.0591  0.1470
  597ERGO    R5 8818   5.530  13.774   7.275 -0.3856  0.3719 -0.1081
  597ERGO    C1 8819   5.706  13.897   7.590 -0.4561  0.0699  0.0551
  597ERGO    C2 8820   5.829  14.026   7.995  0.1750 -0.1045  0.0185
  598ERGO   ROH 8821  14.526   8.851   6.138 -0.0614 -0.0825 -0.0152
  598ERGO    R1 8822  14.440   8.673   6.342 -0.2237  0.0653  0.0466
  598ERGO    R2 8823  14.609   8.583   6.542 -0.2500 -0.1753 -0.0433
  598ERGO    R3 8824  14.414   8.681   6.705 -0.0144  0.1366  0.0630
  598ERGO    R4 8825  14.574   8.505   6.877 -0.2798 -0.2640 -0.0662
  598ERGO    R5 8826  14.358   8.497   6.847 -0.3214  0.1676 -0.0023
  598ERGO    C1 8827  14.371   8.552   7.225 -0.0758 -0.0227  0.0203
  598ERGO    C2 8828  14.419   8.618   7.584  0.1356  0.0867  0.0701
  599ERGO   ROH 8829   7.926   2.130  10.541 -0.0374  0.2038 -0.0804
  599ERGO    R1 8830   7.872   1.984  10.305 -0.1849  0.1339 -0.0050
  599ERGO    R2 8831   7.700   2.076  10.110 -0.1520  0.1705 -0.0148
  599ERGO    R3 8832   7.914   2.036   9.947 -0.2091 -0.0604 -0.0375
  599ERGO    R4 8833   7.680   1.983   9.777 -0.2971  0.3457 -0.0571
  599ERGO    R5 8834   7.850   1.850   9.810 -0.4798  0.0864 -0.1201
  599ERGO    C1 8835   7.870   1.892   9.431 -0.4352  0.2310 -0.1030
  599ERGO    C2 8836   7.821   1.919   9.054 -0.1097 -0.0436  0.0974
  600ERGO   ROH 8837   5.702   9.645   6.728 -0.1636 -0.1269  0.1915
  600ERGO    R1 8838   5.739   9.682   7.006 -0.0732 -0.0946  0.1756
  600ERGO    R2 8839   5.875   9.500   7.164  0.0177 -0.0547  0.1452
  600ERGO    R3 8840   6.021   9.719   7.233 -0.0004 -0.0197  0.0728
  600ERGO    R4 8841   6.019   9.552   7.474  0.0782  0.0272  0.1037
  600ERGO    R5 8842   5.961   9.762   7.460  0.0440  0.0147  0.0772
  600ERGO    C1 8843   6.240   9.788   7.719  0.0965  0.1078  0.0116
  600ERGO    C2 8844   6.371   9.874   8.060  0.1150  0.2042  0.2775
  601ERGO   ROH 8845  16.315   4.560   9.601  0.0352 -0.0726  0.0893
  601ERGO    R1 8846  16.263   4.657   9.340  0.0152 -0.0701  0.0943
  601ERGO    R2 8847  16.461   4.764   9.179  0.0076 -0.0936  0.0702
  601ERGO    R3 8848  16.373   4.577   9.003 -0.0335 -0.0857  0.0820
  601ERGO    R4 8849  16.390   4.825   8.847 -0.1775 -0.0518  0.1162
  601ERGO    R5 8850  16.216   4.695   8.865 -0.1350 -0.1012  0.1822
  601ERGO    C1 8851  16.266   4.685   8.487 -0.3237 -0.0199  0.1541
  601ERGO    C2 8852  16.327   4.674   8.187  0.1198 -0.1563  0.2759
  602ERGO   ROH 8853   1.733  10.914   9.598  0.1313 -0.0782 -0.0541
  602ERGO    R1 8854   1.673  11.063   9.365  0.0790 -0.0750 -0.0384
  602ERGO    R2 8855   1.867  11.145   9.187  0.0299 -0.1354 -0.1180
  602ERGO    R3 8856   1.708  11.018   9.006 -0.0736 -0.1024 -0.0514
  602ERGO    R4 8857   1.891  11.180   8.844 -0.0264 -0.2269 -0.1316
  602ERGO    R5 8858   1.673  11.181   8.833 -0.0318 -0.1234 -0.0821
  602ERGO    C1 8859   1.757  11.081   8.474 -0.1563 -0.2493 -0.0768
  602ERGO    C2 8860   1.892  11.151   8.104 -0.2155  0.2773  0.1345
  603ERGO   ROH 8861  12.319  12.376  10.065  0.3436  0.4542  0.2623
  603ERGO    R1 8862  12.438  12.471   9.826  0.1592  0.2292  0.0772
  603ERGO    R2 8863  12.345  12.400   9.575 -0.1866  0.1793  0.2166
  603ERGO    R3 8864  12.333  12.669   9.539  0.0091  0.1742  0.0928
  603ERGO    R4 8865  12.370  12.560   9.270 -0.2600  0.0044  0.1167
  603ERGO    R5 8866  12.491  12.713   9.366 -0.0676 -0.0432 -0.0393
  603ERGO    C1 8867  12.373  12.906   9.059 -0.1189 -0.1023 -0.0576
  603ERGO    C2 8868  12.512  12.995   8.795  0.1339  0.2763 -0.1664
  604ERGO   ROH 8869  11.143  14.053  10.357 -0.2936  0.0985 -0.0521
  604ERGO    R1 8870  11.266  14.083  10.104 -0.1472  0.0635  0.0138
  604ERGO    R2 8871  11.201  13.924   9.887  0.0055  0.0084  0.0079
  604ERGO    R3 8872  11.159  14.163   9.765  0.0413 -0.0236 -0.0684
  604ERGO    R4 8873  11.152  13.968   9.548 -0.2760 -0.1285  0.0277
  604ERGO    R5 8874  11.276  14.147   9.558 -0.1556 -0.1966 -0.1703
  604ERGO    C1 8875  11.084  14.219   9.236 -0.4062 -0.2383 -0.0324
  604ERGO    C2 8876  11.100  14.138   8.907 -0.2871  0.0315  0.1536
  605ERGO   ROH 8877   6.661   3.300  10.282 -0.2946  0.0537 -0.1800
  605ERGO    R1 8878   6.748   3.245  10.019 -0.1569  0.1216 -0.1491
  605ERGO    R2 8879   6.607   3.081   9.846  0.0420 -0.0035 -0.1929
  605ERGO    R3 8880   6.621   3.297   9.682 -0.0864  0.0042 -0.1951
  605ERGO    R4 8881   6.596   3.068   9.501  0.0545 -0.0189 -0.1930
  605ERGO    R5 8882   6.750   3.222   9.495 -0.0362  0.0768 -0.1925
  605ERGO    C1 8883   6.602   3.263   9.146 -0.0588 -0.0206 -0.1950
  605ERGO    C2 8884   6.607   3.117   8.951  0.0504 -0.0248 -0.0393
  606ERGO   ROH 8885   4.992  10.392   9.977 -0.2396 -0.1159  0.0333
  606ERGO    R1 8886   5.061  10.344   9.706 -0.1667 -0.1208  0.0529
  606ERGO    R2 8887   4.886  10.391   9.498 -0.0336  0.0849 -0.0116
  606ERGO    R3 8888   5.091  10.542   9.402  0.1473 -0.0823  0.1046
  606ERGO    R4 8889   4.961  10.433   9.163  0.0153  0.2381  0.0175
  606ERGO    R5 8890   5.173  10.419   9.214  0.0045 -0.0471  0.0147
  606ERGO    C1 8891   5.198  10.599   8.878  0.2137  0.1704  0.1436
  606ERGO    C2 8892   5.340  10.620   8.547  0.2988  0.1591 -0.1702
  607ERGO   ROH 8893   1.759   1.915  10.086 -0.0635 -0.2034 -0.0206
  607ERGO    R1 8894   1.674   1.844   9.826 -0.1617 -0.0380 -0.0357
  607ERGO    R2 8895   1.547   2.023   9.657  0.0122  0.1510  0.0230
  607ERGO    R3 8896   1.746   1.952   9.486 -0.0720 -0.0135 -0.0079
  607ERGO    R4 8897   1.505   1.958   9.320 -0.1162 -0.0090  0.0689
  607ERGO    R5 8898   1.645   1.793   9.339 -0.1762 -0.0496  0.1069
  607ERGO    C1 8899   1.667   1.855   8.963 -0.2698 -0.2566  0.0665
  607ERGO    C2 8900   1.778   1.721   8.657  0.3266 -0.0793 -0.1125
  608ERGO   ROH 8901  17.901   1.979  10.056 -0.0532 -0.1160 -0.0025
  608ERGO    R1 8902  17.748   1.894   9.833 -0.1040 -0.0734  0.0142
  608ERGO    R2 8903  17.678   2.064   9.627 -0.1521 -0.0304  0.0573
  608ERGO    R3 8904  17.794   1.873   9.473 -0.1813 -0.0014  0.0013
  608ERGO    R4 8905  17.629   2.028   9.287 -0.0404  0.1594  0.0205
  608ERGO    R5 8906  17.624   1.812   9.316 -0.1452  0.1511 -0.0926
  608ERGO    C1 8907  17.710   1.826   8.944 -0.0030  0.2972 -0.0536
  608ERGO    C2 8908  17.789   1.752   8.693 -0.0547  0.1008  0.1322
  609ERGO   ROH 8909   6.293  11.230  10.049  0.0361 -0.3899  0.0501
  609ERGO    R1 8910   6.356  11.284   9.779 -0.0213 -0.0753  0.0961
  609ERGO    R2 8911   6.339  11.093   9.580  0.2992  0.0480 -0.0609
  609ERGO    R3 8912   6.180  11.277   9.460  0.0160 -0.1004  0.0769
  609ERGO    R4 8913   6.356  11.180   9.246 -0.0572  0.0968 -0.0696
  609ERGO    R5 8914   6.325  11.388   9.304 -0.2204  0.0596 -0.0315
  609ERGO    C1 8915   6.216  11.404   8.939 -0.5305 -0.0142  0.0549
  609ERGO    C2 8916   5.970  11.325   8.648 -0.0571 -0.0646  0.0475
  610ERGO   ROH 8917  17.614  16.776  10.689 -0.1502 -0.0100 -0.0579
  610ERGO    R1 8918  17.744  16.677  10.458 -0.0714  0.0863 -0.0566
  610ERGO    R2 8919  17.620  16.505  10.280  0.0478  0.0161 -0.0764
  610ERGO    R3 8920  17.693  16.693  10.098 -0.0617  0.0763 -0.0579
  610ERGO    R4 8921  17.573  16.479   9.939  0.2337 -0.0616 -0.0970
  610ERGO    R5 8922  17.770  16.567   9.909  0.1566  0.1392 -0.0125
  610ERGO    C1 8923  17.613  16.641   9.569  0.2391 -0.0503 -0.0918
  610ERGO    C2 8924  17.611  16.544   9.190 -0.1886 -0.0221  0.1119
  611ERGO   ROH 8925   8.981   3.547   6.546 -0.1458  0.0206 -0.0022
  611ERGO    R1 8926   9.030   3.613   6.817 -0.0003  0.1671 -0.0626
  611ERGO    R2 8927   9.053   3.421   7.015 -0.1514  0.2850  0.0665
  611ERGO    R3 8928   9.289   3.546   7.063 -0.0011  0.0693 -0.0859
  611ERGO    R4 8929   9.190   3.472   7.328  0.0341  0.2600 -0.0087
  611ERGO    R5 8930   9.251   3.671   7.264  0.2060  0.1825 -0.1096
  611ERGO    C1 8931   9.492   3.619   7.555  0.2832  0.0429 -0.1956
  611ERGO    C2 8932   9.553   3.625   7.853  0.2348 -0.2044  0.0647
  612ERGO   ROH 8933  12.639   1.658  10.192  0.1039 -0.0138  0.0993
  612ERGO    R1 8934  12.500   1.609   9.951  0.1768  0.1264  0.0278
  612ERGO    R2 8935  12.630   1.559   9.712  0.2536 -0.0924  0.1141
  612ERGO    R3 8936  12.475   1.336   9.711 -0.0486  0.1102  0.0671
  612ERGO    R4 8937  12.525   1.393   9.427  0.1651  0.0151  0.0826
  612ERGO    R5 8938  12.331   1.365   9.522  0.0769  0.2851 -0.0061
  612ERGO    C1 8939  12.319   1.086   9.261 -0.1701  0.2680  0.0200
  612ERGO    C2 8940  12.333   0.971   8.932 -0.1462  0.1872 -0.0346
  613ERGO   ROH 8941   8.900  14.312   6.394  0.0374  0.0501 -0.0376
  613ERGO    R1 8942   8.803  14.157   6.610 -0.0328  0.0925 -0.0371
  613ERGO    R2 8943   8.967  13.994   6.762 -0.1438 -0.1832 -0.1951
  613ERGO    R3 8944   8.862  14.137   6.968  0.1658 -0.1160 -0.0805
  613ERGO    R4 8945   8.929  13.876   7.084 -0.1572 -0.2603 -0.2257
  613ERGO    R5 8946   8.736  13.976   7.093 -0.0067  0.0179 -0.0861
  613ERGO    C1 8947   8.809  13.940   7.466  0.1257 -0.2421 -0.1360
  613ERGO    C2 8948   8.908  13.976   7.830 -0.1294  0.0852 -0.2051
  614ERGO   ROH 8949   7.614   4.580  10.491 -0.1667 -0.0791 -0.1336
  614ERGO    R1 8950   7.781   4.569  10.262 -0.2161  0.1695 -0.1847
  614ERGO    R2 8951   7.824   4.335  10.121  0.2438  0.1812 -0.0776
  614ERGO    R3 8952   7.742   4.486   9.910 -0.1636 -0.0979 -0.1307
  614ERGO    R4 8953   7.864   4.250   9.788  0.1256 -0.0002 -0.0466
  614ERGO    R5 8954   7.913   4.457   9.746 -0.2375  0.0566 -0.2394
  614ERGO    C1 8955   7.810   4.341   9.397 -0.3257 -0.3679 -0.0786
  614ERGO    C2 8956   7.772   4.230   9.032  0.1129 -0.0185 -0.1110
  615ERGO   ROH 8957  13.045  15.825  10.544 -0.0132  0.0379  0.0756
  615ERGO    R1 8958  13.084  15.779  10.268  0.0381  0.0874  0.0755
  615ERGO    R2 8959  12.877  15.715  10.096  0.0718  0.1307  0.0265
  615ERGO    R3 8960  12.970  15.928   9.956  0.1087  0.1493  0.0773
  615ERGO    R4 8961  12.898  15.731   9.752  0.0319  0.2156  0.0268
  615ERGO    R5 8962  13.090  15.831   9.773  0.0644  0.1644  0.0344
  615ERGO    C1 8963  12.999  15.940   9.419  0.0431  0.2824  0.0747
  615ERGO    C2 8964  13.059  15.956   9.098  0.1943  0.0151  0.0540
  616ERGO   ROH 8965  14.986   7.965   5.827 -0.0212 -0.0098 -0.0105
  616ERGO    R1 8966  15.180   7.939   6.031  0.0726  0.1917 -0.0722
  616ERGO    R2 8967  15.213   8.128   6.230 -0.2360  0.1078  0.0612
  616ERGO    R3 8968  15.180   7.914   6.394  0.1915 -0.0843 -0.0879
  616ERGO    R4 8969  15.357   8.095   6.543 -0.3292  0.2810  0.1240
  616ERGO    R5 8970  15.394   7.885   6.498  0.2178  0.3837  0.0149
  616ERGO    C1 8971  15.409   7.875   6.879  0.0180  0.2014  0.0205
  616ERGO    C2 8972  15.585   7.912   7.152 -0.0863  0.0853  0.0725
  617ERGO   ROH 8973  15.061  13.652  10.536  0.0958  0.0460  0.0210
  617ERGO    R1 8974  14.900  13.705  10.309  0.1209  0.1076  0.0169
  617ERGO    R2 8975  14.923  13.937  10.162  0.2892  0.0521 -0.0497
  617ERGO    R3 8976  14.954  13.764   9.954  0.1447 -0.0310 -0.0024
  617ERGO    R4 8977  14.904  14.024   9.828  0.1289 -0.0723 -0.0736
  617ERGO    R5 8978  14.795  13.839   9.791  0.0737 -0.0635  0.0535
  617ERGO    C1 8979  14.922  13.912   9.438 -0.1001 -0.2228 -0.0432
  617ERGO    C2 8980  14.895  13.988   9.046 -0.0146  0.2246 -0.0970
  618ERGO   ROH 8981   5.749  15.228  10.317 -0.0541  0.0629  0.0187
  618ERGO    R1 8982   5.699  15.135  10.054  0.0194  0.0050  0.0241
  618ERGO    R2 8983   5.517  15.257   9.885 -0.0295 -0.1081 -0.0103
  618ERGO    R3 8984   5.730  15.268   9.717 -0.0161 -0.0173  0.0128
  618ERGO    R4 8985   5.495  15.270   9.541  0.0067 -0.1853 -0.0151
  618ERGO    R5 8986   5.665  15.132   9.530  0.0856 -0.0888  0.0303
  618ERGO    C1 8987   5.682  15.287   9.182  0.0404 -0.1450  0.0037
  618ERGO    C2 8988   5.611  15.326   8.774 -0.1496  0.0669  0.1515
  619ERGO   ROH 8989   0.762  11.737  10.086  0.1660  0.1041 -0.0244
  619ERGO    R1 8990   0.878  11.843   9.851  0.0674  0.0959 -0.0771
  619ERGO    R2 8991   0.933  11.687   9.630  0.0556  0.0702 -0.0616
  619ERGO    R3 8992   0.784  11.874   9.501 -0.0401 -0.0017 -0.0574
  619ERGO    R4 8993   0.940  11.744   9.289 -0.2257 -0.1419 -0.1068
  619ERGO    R5 8994   0.929  11.958   9.329 -0.1776 -0.1161 -0.2325
  619ERGO    C1 8995   0.804  11.953   8.969 -0.4794 -0.3329 -0.1290
  619ERGO    C2 8996   0.692  12.045   8.617  0.1065 -0.1009  0.6038
  620ERGO   ROH 8997  17.337  15.530  10.642  0.0853 -0.0947 -0.0591
  620ERGO    R1 8998  17.420  15.648  10.399  0.0510  0.0019 -0.0246
  620ERGO    R2 8999  17.502  15.498  10.181 -0.0275  0.0857 -0.1125
  620ERGO    R3 9000  17.311  15.641  10.051 -0.0306  0.1824 -0.0035
  620ERGO    R4 9001  17.463  15.509   9.838 -0.1944  0.1367 -0.0929
  620ERGO    R5 9002  17.421  15.722   9.855 -0.0931  0.1538 -0.0507
  620ERGO    C1 9003  17.261  15.650   9.516 -0.2946  0.2569  0.0209
  620ERGO    C2 9004  17.317  15.632   9.299 -0.2617  0.1877 -0.0421
  621ERGO   ROH 9005  10.857  17.500  10.615 -0.1722 -0.1236 -0.0528
  621ERGO    R1 9006  10.918  17.613  10.363 -0.2906 -0.0248 -0.0375
  621ERGO    R2 9007  10.997  17.460  10.147  0.0124  0.0980 -0.0154
  621ERGO    R3 9008  10.790  17.585  10.023 -0.1645 -0.2350 -0.0703
  621ERGO    R4 9009  10.950  17.474   9.805  0.1643  0.1424 -0.0361
  621ERGO    R5 9010  10.887  17.681   9.827 -0.2350  0.0256  0.0166
  621ERGO    C1 9011  10.727  17.600   9.490  0.0865 -0.1445 -0.0996
  621ERGO    C2 9012  10.741  17.518   9.154  0.0487  0.0182  0.1365
  622ERGO   ROH 9013   2.479   8.207   9.450 -0.0113  0.0648  0.1310
  622ERGO    R1 9014   2.439   8.084   9.198 -0.1126  0.0598  0.1482
  622ERGO    R2 9015   2.250   8.173   9.017 -0.1185  0.1182  0.1812
  622ERGO    R3 9016   2.464   8.184   8.849 -0.1495  0.0242  0.1358
  622ERGO    R4 9017   2.234   8.135   8.674 -0.2049  0.1020  0.1874
  622ERGO    R5 9018   2.417   8.018   8.683 -0.2486  0.0316  0.1563
  622ERGO    C1 9019   2.424   8.122   8.317 -0.2843  0.0042  0.1483
  622ERGO    C2 9020   2.574   8.137   8.003  0.2938 -0.0378  0.2664
  623ERGO   ROH 9021   9.017  17.503  10.546  0.0734 -0.0379 -0.0883
  623ERGO    R1 9022   8.923  17.474  10.281 -0.0388  0.0479 -0.0594
  623ERGO    R2 9023   8.801  17.681  10.144  0.0172  0.1340  0.0114
  623ERGO    R3 9024   8.993  17.627   9.958 -0.0748  0.0577 -0.0612
  623ERGO    R4 9025   8.754  17.696   9.801 -0.1499 -0.0262  0.0262
  623ERGO    R5 9026   8.875  17.515   9.782 -0.1545 -0.0268  0.0483
  623ERGO    C1 9027   8.907  17.654   9.428 -0.3335 -0.1910 -0.0334
  623ERGO    C2 9028   8.839  17.721   9.105  0.4435  0.0860 -0.2359
  624ERGO   ROH 9029  14.711   0.708  10.389 -0.0753  0.0570 -0.0405
  624ERGO    R1 9030  14.551   0.701  10.155 -0.0704 -0.0402 -0.0407
  624ERGO    R2 9031  14.559   0.900   9.963 -0.1143 -0.0896 -0.0895
  624ERGO    R3 9032  14.610   0.692   9.796 -0.0662 -0.1193 -0.0394
  624ERGO    R4 9033  14.605   0.928   9.622 -0.1431 -0.1576 -0.0995
  624ERGO    R5 9034  14.489   0.746   9.596 -0.0960 -0.1999 -0.0465
  624ERGO    C1 9035  14.679   0.749   9.266 -0.1147 -0.2250 -0.0583
  624ERGO    C2 9036  14.734   0.748   8.948  0.1089 -0.0862 -0.1663
  625ERGO   ROH 9037  15.601   6.292   9.205 -0.1023  0.1629 -0.1894
  625ERGO    R1 9038  15.662   6.215   8.939 -0.0664  0.1402 -0.1745
  625ERGO    R2 9039  15.472   6.206   8.739 -0.0551  0.0480 -0.1816
  625ERGO    R3 9040  15.647   6.369   8.609 -0.1009  0.0833 -0.1997
  625ERGO    R4 9041  15.448   6.297   8.407  0.0216 -0.1481 -0.2422
  625ERGO    R5 9042  15.664   6.274   8.390  0.0432 -0.0276 -0.1428
  625ERGO    C1 9043  15.599   6.503   8.091  0.0233 -0.2292 -0.2945
  625ERGO    C2 9044  15.504   6.764   7.772 -0.3959  0.0335 -0.2118
  626ERGO   ROH 9045  10.828   3.086  10.436 -0.2456 -0.1340  0.0670
  626ERGO    R1 9046  10.892   3.010  10.170 -0.2690 -0.0857  0.0484
  626ERGO    R2 9047  10.701   2.925   9.990 -0.2916  0.0117  0.0323
  626ERGO    R3 9048  10.805   3.123   9.836 -0.2403  0.0191  0.0746
  626ERGO    R4 9049  10.664   2.948   9.647 -0.1663  0.0077  0.0175
  626ERGO    R5 9050  10.872   3.012   9.634 -0.1590  0.0180  0.0976
  626ERGO    C1 9051  10.740   3.147   9.302 -0.0452  0.0122  0.0486
  626ERGO    C2 9052  10.711   3.196   9.006 -0.0629  0.1527  0.0423
  627ERGO   ROH 9053   4.415   9.035  10.038 -0.2206 -0.2553 -0.0222
  627ERGO    R1 9054   4.511   9.058   9.773 -0.1759 -0.3162 -0.0116
  627ERGO    R2 9055   4.488   8.854   9.588 -0.3986 -0.2588 -0.0493
  627ERGO    R3 9056   4.369   9.047   9.438 -0.1697 -0.0915 -0.0245
  627ERGO    R4 9057   4.519   8.885   9.245 -0.1394 -0.0847 -0.0134
  627ERGO    R5 9058   4.531   9.101   9.271 -0.0133 -0.1023  0.1179
  627ERGO    C1 9059   4.424   9.084   8.905  0.2265  0.1738  0.0308
  627ERGO    C2 9060   4.345   9.123   8.629 -0.0756 -0.3645  0.2182
  628ERGO   ROH 9061   5.259   0.764   6.558  0.1443  0.0904  0.2132
  628ERGO    R1 9062   5.133   0.851   6.796  0.1365  0.0909  0.2088
  628ERGO    R2 9063   4.947   0.696   6.931  0.1073  0.1064  0.1836
  628ERGO    R3 9064   5.115   0.737   7.141  0.0944  0.0717  0.2009
  628ERGO    R4 9065   4.862   0.655   7.264  0.1116 -0.0493  0.1662
  628ERGO    R5 9066   4.977   0.834   7.310  0.0620 -0.0328  0.2376
  628ERGO    C1 9067   4.970   0.670   7.654  0.1020 -0.1725  0.1723
  628ERGO    C2 9068   5.040   0.484   8.030  0.0772  0.0394 -0.1595
  629ERGO   ROH 9069   1.309  10.324   6.011 -0.3235  0.0305  0.0924
  629ERGO    R1 9070   1.235  10.256   6.276 -0.1784 -0.0860  0.1035
  629ERGO    R2 9071   1.348  10.043   6.411  0.1094  0.0319  0.0527
  629ERGO    R3 9072   1.402  10.232   6.598 -0.0697  0.0769  0.0619
  629ERGO    R4 9073   1.345   9.989   6.753  0.1434  0.0072  0.0492
  629ERGO    R5 9074   1.251  10.184   6.777 -0.0382 -0.0741  0.0539
  629ERGO    C1 9075   1.395  10.136   7.127 -0.0050  0.0352  0.0557
  629ERGO    C2 9076   1.551  10.192   7.448  0.1949  0.1830 -0.3073
  630ERGO   ROH 9077   9.426   6.982   6.124  0.1597  0.0938  0.0357
  630ERGO    R1 9078   9.510   6.814   6.336 -0.2111 -0.0598  0.0684
  630ERGO    R2 9079   9.732   6.869   6.491 -0.0277 -0.5631  0.0042
  630ERGO    R3 9080   9.556   6.845   6.696 -0.0573 -0.0591  0.0494
  630ERGO    R4 9081   9.803   6.938   6.822  0.2005 -0.5939 -0.0366
  630ERGO    R5 9082   9.687   6.763   6.878 -0.2142 -0.3028  0.0561
  630ERGO    C1 9083   9.678   6.956   7.207  0.3055 -0.1388 -0.0179
  630ERGO    C2 9084   9.400   7.106   7.487 -0.0927  0.3128  0.0313
  631ERGO   ROH 9085  17.808  13.393  10.043 -0.0317  0.0371 -0.1092
  631ERGO    R1 9086  17.895  13.531   9.812 -0.0522  0.0996 -0.0794
  631ERGO    R2 9087  17.972  13.402   9.580  0.0051  0.1585 -0.0941
  631ERGO    R3 9088  17.786  13.564   9.466 -0.0331  0.1237 -0.0829
  631ERGO    R4 9089  17.940  13.457   9.241 -0.2428 -0.1046 -0.1186
  631ERGO    R5 9090  17.902  13.668   9.284 -0.1428 -0.0578 -0.2583
  631ERGO    C1 9091  17.748  13.642   8.936 -0.4227 -0.2904 -0.1224
  631ERGO    C2 9092  17.799  13.551   8.592 -0.1054  0.1824  0.0793
  632ERGO   ROH 9093   3.999  13.796  10.360 -0.0786 -0.1947 -0.0938
  632ERGO    R1 9094   4.054  13.917  10.110  0.0154 -0.1075 -0.0320
  632ERGO    R2 9095   4.207  13.793   9.915  0.0105 -0.0812 -0.0565
  632ERGO    R3 9096   3.989  13.842   9.760  0.0570  0.0640 -0.0766
  632ERGO    R4 9097   4.194  13.747   9.573 -0.0399 -0.2191 -0.0364
  632ERGO    R5 9098   4.079  13.932   9.557  0.1420 -0.1143 -0.1173
  632ERGO    C1 9099   3.982  13.767   9.227 -0.0257 -0.1630 -0.0437
  632ERGO    C2 9100   3.994  13.860   8.839 -0.2005 -0.1781 -0.3000
  633ERGO   ROH 9101  13.303  14.732  10.512 -0.0360 -0.0146  0.2296
  633ERGO    R1 9102  13.234  14.688  10.241 -0.0070 -0.1110  0.2371
  633ERGO    R2 9103  13.061  14.854  10.103 -0.0358 -0.1906  0.1745
  633ERGO    R3 9104  13.268  14.869   9.927 -0.0258 -0.1958  0.1864
  633ERGO    R4 9105  13.028  14.860   9.759 -0.0157 -0.1657  0.1732
  633ERGO    R5 9106  13.202  14.729   9.745 -0.0264 -0.1779  0.1739
  633ERGO    C1 9107  13.204  14.878   9.394  0.0053 -0.1562  0.1838
  633ERGO    C2 9108  13.284  14.934   9.130 -0.0113 -0.0761  0.0249
  634ERGO   ROH 9109   3.511   2.486  10.144 -0.2429  0.0228  0.1313
  634ERGO    R1 9110   3.498   2.309   9.924 -0.0131  0.0805  0.0708
  634ERGO    R2 9111   3.321   2.344   9.715 -0.0733 -0.0893  0.1006
  634ERGO    R3 9112   3.546   2.331   9.564 -0.0646  0.2694  0.0726
  634ERGO    R4 9113   3.326   2.306   9.372 -0.0714 -0.2813  0.1200
  634ERGO    R5 9114   3.495   2.170   9.394  0.2147  0.0567  0.1750
  634ERGO    C1 9115   3.540   2.272   9.029 -0.0621 -0.0565  0.1049
  634ERGO    C2 9116   3.636   2.305   8.713  0.2180 -0.0784 -0.3371
  635ERGO   ROH 9117   0.857   2.541   9.598  0.1698  0.2012  0.0555
  635ERGO    R1 9118   0.639   2.662   9.465  0.1279  0.1198  0.0503
  635ERGO    R2 9119   0.667   2.794   9.223  0.0557 -0.0088 -0.0264
  635ERGO    R3 9120   0.470   2.624   9.145  0.0394 -0.0584  0.1163
  635ERGO    R4 9121   0.450   2.851   8.960  0.0613 -0.2062 -0.0760
  635ERGO    R5 9122   0.289   2.768   9.081  0.0522 -0.0913 -0.0034
  635ERGO    C1 9123   0.139   2.725   8.733  0.0492 -0.3677  0.0290
  635ERGO    C2 9124  -0.027   2.633   8.470 -0.2554 -0.0184  0.1931
  636ERGO   ROH 9125  13.411  11.760   7.403  0.0273  0.1883 -0.1441
  636ERGO    R1 9126  13.364  11.892   7.649 -0.0077  0.1048 -0.1045
  636ERGO    R2 9127  13.356  11.758   7.891  0.0263  0.0300 -0.1391
  636ERGO    R3 9128  13.545  11.941   7.961 -0.0194  0.0577 -0.0920
  636ERGO    R4 9129  13.392  11.894   8.207 -0.1493  0.1403 -0.1661
  636ERGO    R5 9130  13.432  12.087   8.114 -0.1033  0.1060 -0.2050
  636ERGO    C1 9131  13.589  12.145   8.457 -0.2944  0.2304 -0.1376
  636ERGO    C2 9132  13.516  12.093   8.789  0.0239  0.2212  0.0969
  637ERGO   ROH 9133  15.268  10.786   9.561  0.0010 -0.2846 -0.1447
  637ERGO    R1 9134  15.162  10.874   9.314 -0.0257 -0.3105 -0.1427
  637ERGO    R2 9135  15.273  11.082   9.170 -0.2360 -0.1047 -0.0153
  637ERGO    R3 9136  15.279  10.899   8.970  0.0653 -0.0153 -0.0927
  637ERGO    R4 9137  15.213  11.152   8.837 -0.1444 -0.0335 -0.0173
  637ERGO    R5 9138  15.101  10.965   8.823  0.0664 -0.1502 -0.1535
  637ERGO    C1 9139  15.184  11.020   8.455  0.1919  0.0919 -0.0912
  637ERGO    C2 9140  15.210  11.091   8.081 -0.1264  0.0229 -0.0567
  638ERGO   ROH 9141   3.771   8.228   9.738  0.1695 -0.1756 -0.0284
  638ERGO    R1 9142   3.876   8.124   9.497  0.0762 -0.1506 -0.0809
  638ERGO    R2 9143   3.733   8.125   9.260  0.0142 -0.0511 -0.0477
  638ERGO    R3 9144   3.954   8.252   9.165  0.0289 -0.0939 -0.0692
  638ERGO    R4 9145   3.795   8.188   8.926 -0.1727  0.2494 -0.0279
  638ERGO    R5 9146   4.004   8.138   8.960 -0.1817  0.0814 -0.2219
  638ERGO    C1 9147   4.038   8.345   8.642 -0.2678  0.3841 -0.0367
  638ERGO    C2 9148   3.823   8.342   8.364  0.1245 -0.1036 -0.2361
  639ERGO   ROH 9149   2.834   8.927   9.564  0.1143  0.0472  0.0592
  639ERGO    R1 9150   2.949   9.006   9.317  0.0378  0.0495  0.0253
  639ERGO    R2 9151   3.072   8.826   9.147  0.0979  0.0744  0.0510
  639ERGO    R3 9152   2.898   8.929   8.965  0.0231 -0.0513  0.0477
  639ERGO    R4 9153   3.140   8.868   8.810  0.0348  0.0161  0.0294
  639ERGO    R5 9154   3.036   9.060   8.819 -0.0528 -0.0252 -0.0057
  639ERGO    C1 9155   3.015   8.990   8.444 -0.0721 -0.1359  0.0137
  639ERGO    C2 9156   3.039   8.744   8.116 -0.0558  0.0983  0.1320
  640ERGO   ROH 9157   0.113   3.493   9.602 -0.0910 -0.1212  0.1216
  640ERGO    R1 9158  -0.057   3.582   9.394 -0.0596 -0.1626  0.0783
  640ERGO    R2 9159   0.020   3.775   9.212 -0.0866 -0.0907  0.1427
  640ERGO    R3 9160  -0.049   3.585   9.030  0.0689 -0.0900  0.0814
  640ERGO    R4 9161  -0.025   3.832   8.874  0.0259 -0.0544  0.1330
  640ERGO    R5 9162  -0.197   3.698   8.880  0.0813 -0.1291  0.0401
  640ERGO    C1 9163  -0.117   3.687   8.507  0.2374 -0.0327  0.0699
  640ERGO    C2 9164  -0.117   3.848   8.293 -0.1188 -0.0491  0.1811
  641ERGO   ROH 9165   7.585  11.489  10.114  0.0881 -0.0061  0.0313
  641ERGO    R1 9166   7.612  11.625   9.867 -0.0325 -0.0556 -0.0098
  641ERGO    R2 9167   7.800  11.553   9.677 -0.0013  0.0228 -0.0079
  641ERGO    R3 9168   7.583  11.540   9.514 -0.0096 -0.1750  0.0159
  641ERGO    R4 9169   7.810  11.581   9.333 -0.0825  0.2632  0.0081
  641ERGO    R5 9170   7.628  11.701   9.342 -0.2548  0.0058  0.1134
  641ERGO    C1 9171   7.612  11.586   8.979 -0.1374  0.2175  0.0396
  641ERGO    C2 9172   7.549  11.636   8.619 -0.0514  0.0630  0.0597
  642ERGO   ROH 9173  10.415   3.857  10.371 -0.2304  0.2443  0.0470
  642ERGO    R1 9174  10.368   3.798  10.099 -0.0735  0.1504  0.0390
  642ERGO    R2 9175  10.122   3.837   9.977 -0.0158  0.0769 -0.1089
  642ERGO    R3 9176  10.269   3.983   9.801  0.0608  0.0426 -0.0735
  642ERGO    R4 9177  10.066   3.852   9.637  0.0330  0.1417 -0.1140
  642ERGO    R5 9178  10.281   3.846   9.605  0.0331  0.0639 -0.0885
  642ERGO    C1 9179  10.171   3.997   9.273  0.1333  0.1472 -0.0837
  642ERGO    C2 9180  10.217   3.985   8.986  0.2121  0.1715  0.1327
  643ERGO   ROH 9181  10.733  14.254  10.393 -0.0844 -0.1557 -0.1443
  643ERGO    R1 9182  10.810  14.294  10.123 -0.0924 -0.1462 -0.1451
  643ERGO    R2 9183  10.753  14.111   9.924 -0.1338 -0.1198 -0.1567
  643ERGO    R3 9184  10.640  14.327   9.803 -0.1041 -0.0913 -0.1340
  643ERGO    R4 9185  10.706  14.144   9.583 -0.1771 -0.1035 -0.1491
  643ERGO    R5 9186  10.765  14.353   9.600 -0.1273 -0.1156 -0.1525
  643ERGO    C1 9187  10.573  14.365   9.271 -0.1744 -0.0672 -0.1233
  643ERGO    C2 9188  10.657  14.358   8.915 -0.0472 -0.2336  0.0002
  644ERGO   ROH 9189  14.822   8.473   9.508 -0.0889 -0.0584  0.0801
  644ERGO    R1 9190  14.663   8.444   9.276 -0.0522  0.0812  0.0370
  644ERGO    R2 9191  14.596   8.657   9.113  0.1084  0.1531  0.0671
  644ERGO    R3 9192  14.704   8.501   8.919  0.0622  0.1318  0.0574
  644ERGO    R4 9193  14.544   8.697   8.774 -0.0435  0.0649  0.0785
  644ERGO    R5 9194  14.532   8.481   8.754 -0.0043  0.0561  0.1335
  644ERGO    C1 9195  14.615   8.574   8.394 -0.1753 -0.0063  0.0761
  644ERGO    C2 9196  14.601   8.708   8.076  0.3450  0.0973  0.0155
  645ERGO   ROH 9197  11.323   1.556   7.212  0.0339 -0.0244 -0.0932
  645ERGO    R1 9198  11.071   1.449   7.284  0.0460 -0.0252 -0.0524
  645ERGO    R2 9199  10.988   1.427   7.548  0.0800 -0.0047 -0.0412
  645ERGO    R3 9200  10.774   1.568   7.458  0.0635 -0.0193 -0.0252
  645ERGO    R4 9201  10.667   1.398   7.671  0.1354  0.1366  0.1418
  645ERGO    R5 9202  10.592   1.412   7.467  0.0360  0.0196  0.1669
  645ERGO    C1 9203  10.278   1.513   7.658  0.1522  0.2050  0.2634
  645ERGO    C2 9204  10.006   1.667   7.789  0.3186  0.1577  0.0078
  646ERGO   ROH 9205  15.224   8.126   9.601 -0.2437  0.0241  0.1148
  646ERGO    R1 9206  15.211   8.271   9.358 -0.3276  0.1148  0.1723
  646ERGO    R2 9207  15.335   8.184   9.126  0.1206  0.5064  0.2502
  646ERGO    R3 9208  15.085   8.211   9.021  0.1511 -0.0238  0.0101
  646ERGO    R4 9209  15.265   8.224   8.790  0.3633  0.4246  0.1885
  646ERGO    R5 9210  15.112   8.370   8.844 -0.0226  0.0811  0.0749
  646ERGO    C1 9211  14.991   8.273   8.496  0.5332 -0.1208 -0.0728
  646ERGO    C2 9212  15.105   8.468   8.067  0.0944  0.0476  0.1055
  647ERGO   ROH 9213   3.976  12.394  10.107  0.0576  0.3092  0.1035
  647ERGO    R1 9214   3.918  12.333   9.837  0.1851  0.1014  0.1219
  647ERGO    R2 9215   3.750  12.487   9.682  0.0714 -0.1486 -0.0077
  647ERGO    R3 9216   3.963  12.493   9.514  0.1085 -0.0334  0.0428
  647ERGO    R4 9217   3.730  12.519   9.338  0.1451  0.1110  0.0105
  647ERGO    R5 9218   3.890  12.373   9.320  0.1420  0.1146 -0.0649
  647ERGO    C1 9219   3.919  12.544   8.981  0.2228  0.3702  0.0684
  647ERGO    C2 9220   3.758  12.409   8.691  0.0570  0.3119  0.1639
  648ERGO   ROH 9221   9.335   4.400   9.860 -0.1339 -0.0704  0.0467
  648ERGO    R1 9222   9.176   4.333   9.635 -0.0746 -0.1269  0.0209
  648ERGO    R2 9223   9.200   4.464   9.392 -0.1440 -0.0570  0.0510
  648ERGO    R3 9224   9.235   4.212   9.297  0.0309 -0.0142 -0.0023
  648ERGO    R4 9225   9.237   4.382   9.058 -0.1587  0.0325  0.0273
  648ERGO    R5 9226   9.110   4.208   9.092 -0.0154 -0.0736  0.0266
  648ERGO    C1 9227   9.290   4.097   8.775 -0.0032  0.1247 -0.0365
  648ERGO    C2 9228   9.273   4.035   8.420 -0.0118  0.1255  0.1627
  649ERGO   ROH 9229   6.657   1.613  10.774 -0.1719  0.1487 -0.1005
  649ERGO    R1 9230   6.710   1.450  10.549 -0.0334  0.1302 -0.0547
  649ERGO    R2 9231   6.509   1.340  10.393  0.0617 -0.0510 -0.0457
  649ERGO    R3 9232   6.643   1.463  10.191 -0.0071 -0.0088 -0.0668
  649ERGO    R4 9233   6.497   1.246  10.061  0.1811 -0.1825 -0.0145
  649ERGO    R5 9234   6.710   1.285  10.047  0.1586 -0.0121  0.0051
  649ERGO    C1 9235   6.615   1.307   9.678  0.1859 -0.2194 -0.0162
  649ERGO    C2 9236   6.481   1.394   9.306  0.4974 -0.0827  0.0949
  650ERGO   ROH 9237  14.542   4.272   9.812 -0.2048  0.2219 -0.1002
  650ERGO    R1 9238  14.598   4.100   9.595 -0.0392  0.1862 -0.0294
  650ERGO    R2 9239  14.401   3.962   9.459  0.0913 -0.0419  0.0134
  650ERGO    R3 9240  14.512   4.082   9.242 -0.0031 -0.0303 -0.0294
  650ERGO    R4 9241  14.420   3.822   9.144 -0.0012 -0.0495  0.0105
  650ERGO    R5 9242  14.621   3.905   9.124 -0.0183 -0.0195 -0.0628
  650ERGO    C1 9243  14.534   3.854   8.756 -0.1438 -0.0432 -0.0313
  650ERGO    C2 9244  14.432   3.674   8.535  0.0563  0.0895 -0.0200
  651ERGO   ROH 9245   9.222   8.175   9.799  0.0665 -0.0797  0.0745
  651ERGO    R1 9246   9.240   8.265   9.531 -0.0093 -0.1155  0.0573
  651ERGO    R2 9247   9.408   8.148   9.346 -0.0256 -0.1093  0.0381
  651ERGO    R3 9248   9.179   8.125   9.201 -0.0528 -0.1766  0.0911
  651ERGO    R4 9249   9.395   8.061   9.012 -0.0544  0.2032 -0.0459
  651ERGO    R5 9250   9.238   8.210   8.985 -0.2008  0.0888  0.1516
  651ERGO    C1 9251   9.173   7.988   8.681 -0.0966  0.3221 -0.0450
  651ERGO    C2 9252   9.362   7.957   8.360  0.0679  0.0971  0.1823
  652ERGO   ROH 9253   0.741   4.215   9.856 -0.0228  0.1300 -0.0436
  652ERGO    R1 9254   0.734   4.311   9.590 -0.1054  0.0870 -0.0569
  652ERGO    R2 9255   0.940   4.270   9.411 -0.0968  0.1855 -0.0691
  652ERGO    R3 9256   0.743   4.166   9.256 -0.0489  0.0434 -0.0367
  652ERGO    R4 9257   0.964   4.215   9.071 -0.0697  0.0819 -0.0512
  652ERGO    R5 9258   0.759   4.286   9.050 -0.1022 -0.0179 -0.0771
  652ERGO    C1 9259   0.792   4.086   8.727 -0.0088 -0.1119 -0.0102
  652ERGO    C2 9260   0.728   4.038   8.495  0.0553 -0.2057 -0.1683
  653ERGO   ROH 9261  10.843  16.400   6.773  0.0441 -0.2526  0.0338
  653ERGO    R1 9262  10.808  16.477   7.043  0.0735 -0.1302  0.0035
  653ERGO    R2 9263  10.574  16.431   7.181  0.1425 -0.2047  0.0951
  653ERGO    R3 9264  10.741  16.310   7.359  0.2698 -0.0046  0.1149
  653ERGO    R4 9265  10.519  16.412   7.522  0.1912 -0.1383  0.1063
  653ERGO    R5 9266  10.731  16.450   7.554  0.1681  0.0565  0.0704
  653ERGO    C1 9267  10.643  16.287   7.887  0.3390  0.0882  0.1315
  653ERGO    C2 9268  10.543  16.140   8.335 -0.0830 -0.3254 -0.1387
  654ERGO   ROH 9269   9.528   6.364  10.092  0.0787 -0.2302 -0.0900
  654ERGO    R1 9270   9.475   6.379   9.815  0.1459 -0.1114 -0.0958
  654ERGO    R2 9271   9.665   6.317   9.624  0.1284 -0.2208 -0.0697
  654ERGO    R3 9272   9.471   6.148   9.533  0.0030 -0.0330 -0.1612
  654ERGO    R4 9273   9.603   6.248   9.291 -0.0295  0.1389 -0.1206
  654ERGO    R5 9274   9.389   6.254   9.334 -0.0164  0.2114 -0.0329
  654ERGO    C1 9275   9.385   6.050   9.012 -0.2393  0.5247 -0.2361
  654ERGO    C2 9276   9.431   5.973   8.706  0.0288 -0.0049  0.0573
  655ERGO   ROH 9277  13.143   8.324   9.598 -0.0674  0.1376 -0.1528
  655ERGO    R1 9278  13.146   8.471   9.356  0.0905  0.1206 -0.1616
  655ERGO    R2 9279  13.347   8.445   9.169  0.0394 -0.1430 -0.1792
  655ERGO    R3 9280  13.140   8.394   9.000 -0.0429  0.1063 -0.1575
  655ERGO    R4 9281  13.375   8.409   8.826  0.0143 -0.4525 -0.1521
  655ERGO    R5 9282  13.190   8.522   8.804  0.2141 -0.1258 -0.2516
  655ERGO    C1 9283  13.197   8.341   8.468 -0.0776 -0.3986 -0.1160
  655ERGO    C2 9284  13.393   8.203   8.223 -0.4830 -0.2224  0.4380
  656ERGO   ROH 9285   4.041  13.474   6.437  0.2870 -0.0330  0.0261
  656ERGO    R1 9286   3.924  13.549   6.683  0.3203  0.0176  0.0261
  656ERGO    R2 9287   3.913  13.380   6.901  0.2999  0.0427  0.0432
  656ERGO    R3 9288   4.034  13.588   7.028  0.3524  0.0309  0.0146
  656ERGO    R4 9289   3.999  13.385   7.236  0.0211  0.1853  0.1158
  656ERGO    R5 9290   3.933  13.592   7.245  0.1702  0.2436 -0.0704
  656ERGO    C1 9291   4.162  13.583   7.550 -0.0920  0.2572  0.1312
  656ERGO    C2 9292   4.366  13.920   7.727  0.1124 -0.1126 -0.2893
  657ERGO   ROH 9293  11.440  12.685  10.167 -0.0458 -0.0332 -0.0792
  657ERGO    R1 9294  11.403  12.701   9.886 -0.0693 -0.0017 -0.0752
  657ERGO    R2 9295  11.210  12.861   9.770 -0.1026 -0.0101 -0.0420
  657ERGO    R3 9296  11.421  12.959   9.631 -0.1234  0.0354 -0.0399
  657ERGO    R4 9297  11.214  12.916   9.429 -0.0217 -0.2390 -0.0789
  657ERGO    R5 9298  11.417  12.839   9.424  0.0278 -0.1057  0.0410
  657ERGO    C1 9299  11.415  13.040   9.100  0.0058 -0.3295 -0.0983
  657ERGO    C2 9300  11.273  13.169   8.866 -0.1838 -0.0843  0.0191
  658ERGO   ROH 9301  10.297   1.055  10.542  0.1449 -0.3506  0.1270
  658ERGO    R1 9302  10.310   0.876  10.324 -0.0112 -0.1999 -0.0080
  658ERGO    R2 9303  10.086   0.754  10.218 -0.0989 -0.0433 -0.0011
  658ERGO    R3 9304  10.177   0.861   9.985 -0.1597  0.0888  0.0344
  658ERGO    R4 9305   9.932   0.718   9.910 -0.1422  0.0717  0.0058
  658ERGO    R5 9306  10.129   0.694   9.820 -0.1510  0.1569 -0.0388
  658ERGO    C1 9307   9.928   0.798   9.513 -0.2246  0.2626  0.0432
  658ERGO    C2 9308  10.012   0.734   9.185 -0.0359 -0.1283 -0.0645
  659ERGO   ROH 9309  13.668  17.914  10.612  0.1645 -0.1216  0.1277
  659ERGO    R1 9310  13.774  18.031  10.376  0.0576 -0.0957  0.0926
  659ERGO    R2 9311  13.958  17.902  10.216  0.0945 -0.0180  0.0765
  659ERGO    R3 9312  13.776  17.953  10.021  0.0314 -0.1393  0.1012
  659ERGO    R4 9313  14.027  17.904   9.878  0.0351 -0.0337  0.0637
  659ERGO    R5 9314  13.899  18.079   9.857 -0.0591 -0.0997  0.0606
  659ERGO    C1 9315  13.897  17.954   9.497 -0.0586 -0.1566  0.0793
  659ERGO    C2 9316  13.946  18.011   9.133  0.2178 -0.5609 -0.0880
  660ERGO   ROH 9317   0.737   1.702   9.999 -0.2524 -0.0071 -0.0398
  660ERGO    R1 9318   0.681   1.596   9.743 -0.1996  0.1487 -0.1154
  660ERGO    R2 9319   0.656   1.756   9.518  0.1527  0.2573 -0.0774
  660ERGO    R3 9320   0.846   1.589   9.418  0.0222  0.0601 -0.0046
  660ERGO    R4 9321   0.696   1.679   9.184  0.0123 -0.0092 -0.0363
  660ERGO    R5 9322   0.736   1.473   9.241 -0.1052 -0.0004  0.1061
  660ERGO    C1 9323   0.898   1.477   8.895 -0.1919 -0.3495  0.0559
  660ERGO    C2 9324   0.879   1.598   8.622  0.0505 -0.1123  0.1319
  661ERGO   ROH 9325  17.559   8.030   9.633 -0.1665 -0.0137 -0.1377
  661ERGO    R1 9326  17.469   8.119   9.380 -0.0370  0.1235 -0.1395
  661ERGO    R2 9327  17.638   8.224   9.191  0.0975  0.0492 -0.0779
  661ERGO    R3 9328  17.529   8.033   9.031 -0.0097  0.1651 -0.1419
  661ERGO    R4 9329  17.607   8.250   8.848  0.4384  0.0139 -0.1138
  661ERGO    R5 9330  17.409   8.158   8.865  0.3062  0.2816 -0.2779
  661ERGO    C1 9331  17.486   8.086   8.498  0.5362  0.1021 -0.1947
  661ERGO    C2 9332  17.467   7.964   8.182  0.0293 -0.1068 -0.3529
  662ERGO   ROH 9333   3.626   5.497   9.992 -0.0697  0.0566 -0.0251
  662ERGO    R1 9334   3.597   5.600   9.730 -0.1616  0.0021 -0.0374
  662ERGO    R2 9335   3.812   5.686   9.579 -0.2409  0.2373 -0.0240
  662ERGO    R3 9336   3.713   5.511   9.396 -0.0235  0.1039 -0.0166
  662ERGO    R4 9337   3.914   5.666   9.250 -0.2141  0.3458 -0.0224
  662ERGO    R5 9338   3.706   5.636   9.192 -0.1774  0.0849 -0.0221
  662ERGO    C1 9339   3.881   5.490   8.886  0.0056  0.2837 -0.0145
  662ERGO    C2 9340   3.973   5.458   8.648  0.0587 -0.0708  0.0407
  663ERGO   ROH 9341  12.531  13.815  10.143  0.1222 -0.1440 -0.1317
  663ERGO    R1 9342  12.441  13.866   9.880  0.0884 -0.0620 -0.1045
  663ERGO    R2 9343  12.352  14.114   9.799  0.0529 -0.0428 -0.0084
  663ERGO    R3 9344  12.538  14.082   9.604  0.0356  0.0447 -0.0403
  663ERGO    R4 9345  12.359  14.291   9.501 -0.1437 -0.1173 -0.0594
  663ERGO    R5 9346  12.415  14.106   9.399 -0.0275 -0.1033 -0.0209
  663ERGO    C1 9347  12.539  14.363   9.145 -0.2743 -0.0785 -0.1191
  663ERGO    C2 9348  12.412  14.671   9.045 -0.3221  0.1643  0.4071
  664ERGO   ROH 9349  11.495   6.060   6.296 -0.0789  0.0032 -0.0875
  664ERGO    R1 9350  11.526   6.172   6.554  0.0340 -0.0987 -0.0557
  664ERGO    R2 9351  11.319   6.189   6.735  0.0611  0.0141 -0.0324
  664ERGO    R3 9352  11.493   6.058   6.898 -0.0282 -0.1766 -0.0876
  664ERGO    R4 9353  11.332   6.225   7.078  0.3005  0.1071 -0.0502
  664ERGO    R5 9354  11.550   6.220   7.065  0.2897 -0.1996 -0.1692
  664ERGO    C1 9355  11.504   6.124   7.431  0.3559 -0.0177 -0.1122
  664ERGO    C2 9356  11.577   6.013   7.785  0.1044 -0.0089  0.2976
  665ERGO   ROH 9357   0.209   9.947   9.325  0.0486 -0.1129  0.0095
  665ERGO    R1 9358   0.034  10.029   9.118  0.1103 -0.0758 -0.0280
  665ERGO    R2 9359   0.118  10.184   8.904  0.2009 -0.1379 -0.0368
  665ERGO    R3 9360   0.010   9.981   8.758  0.1456 -0.1174 -0.0252
  665ERGO    R4 9361   0.026  10.206   8.572  0.1693 -0.1187 -0.0270
  665ERGO    R5 9362  -0.151  10.088   8.617  0.1504 -0.0851 -0.0076
  665ERGO    C1 9363  -0.128  10.029   8.241  0.0989 -0.0884 -0.0106
  665ERGO    C2 9364  -0.157   9.887   7.928 -0.0572  0.0950 -0.2641
  666ERGO   ROH 9365   5.765   9.622   9.830 -0.0299 -0.0387  0.0688
  666ERGO    R1 9366   5.659   9.737   9.594  0.0153  0.0288  0.0815
  666ERGO    R2 9367   5.817   9.863   9.406  0.0566  0.0383  0.1248
  666ERGO    R3 9368   5.698   9.689   9.235  0.0427  0.0963  0.0745
  666ERGO    R4 9369   5.792   9.909   9.064  0.2276  0.0537  0.1132
  666ERGO    R5 9370   5.589   9.829   9.074  0.1811  0.1534  0.0268
  666ERGO    C1 9371   5.665   9.771   8.705  0.3142  0.1171  0.0594
  666ERGO    C2 9372   5.650   9.722   8.395 -0.2049 -0.0744  0.1938
  667ERGO   ROH 9373   1.323  14.209   6.902 -0.1901  0.0992  0.1153
  667ERGO    R1 9374   1.182  14.141   7.137 -0.1653  0.1084  0.1323
  667ERGO    R2 9375   1.292  13.984   7.337 -0.2029 -0.0207  0.0508
  667ERGO    R3 9376   1.223  14.194   7.495 -0.0344 -0.0300  0.1397
  667ERGO    R4 9377   1.286  13.978   7.682 -0.2883 -0.1919  0.0472
  667ERGO    R5 9378   1.103  14.095   7.677 -0.1755 -0.0070  0.0616
  667ERGO    C1 9379   1.218  14.171   8.032 -0.1799 -0.3003  0.1287
  667ERGO    C2 9380   1.249  14.200   8.328  0.1346  0.0681 -0.0079
  668ERGO   ROH 9381  13.370  17.568  10.475  0.3252 -0.0401  0.1375
  668ERGO    R1 9382  13.492  17.685  10.248 -0.0071  0.0352 -0.0071
  668ERGO    R2 9383  13.642  17.539  10.068  0.1768  0.1880  0.0257
  668ERGO    R3 9384  13.470  17.647   9.886 -0.1206 -0.2565  0.0268
  668ERGO    R4 9385  13.680  17.519   9.725  0.3740  0.4762  0.0267
  668ERGO    R5 9386  13.612  17.727   9.710 -0.2904  0.2949  0.1144
  668ERGO    C1 9387  13.540  17.609   9.355  0.2099  0.2269  0.0281
  668ERGO    C2 9388  13.629  17.666   8.996 -0.0312 -0.0311 -0.0642
  669ERGO   ROH 9389   9.570  16.766  10.520  0.0389 -0.1879  0.0402
  669ERGO    R1 9390   9.713  16.920  10.330  0.0215 -0.1161  0.0848
  669ERGO    R2 9391   9.933  16.823  10.194  0.0937 -0.0178  0.1281
  669ERGO    R3 9392   9.790  16.897   9.975  0.1135 -0.0595  0.1010
  669ERGO    R4 9393  10.050  16.815   9.869  0.2094  0.1644  0.1641
  669ERGO    R5 9394   9.949  17.004   9.833  0.0819  0.1002  0.1861
  669ERGO    C1 9395   9.984  16.880   9.474  0.2953  0.2309  0.1596
  669ERGO    C2 9396   9.974  16.869   9.131  0.2343  0.0898 -0.0965
  670ERGO   ROH 9397  15.465   1.355  10.282  0.0136 -0.0527 -0.0222
  670ERGO    R1 9398  15.364   1.374  10.018  0.0258 -0.1185 -0.0334
  670ERGO    R2 9399  15.399   1.599   9.861 -0.2091 -0.0425  0.0075
  670ERGO    R3 9400  15.504   1.421   9.685  0.0225  0.1029 -0.0029
  670ERGO    R4 9401  15.384   1.629   9.518 -0.3576 -0.1116  0.0084
  670ERGO    R5 9402  15.346   1.415   9.505 -0.0197 -0.1720  0.0453
  670ERGO    C1 9403  15.474   1.479   9.152 -0.2266 -0.0152 -0.0008
  670ERGO    C2 9404  15.506   1.444   8.808 -0.1659  0.2312  0.3280
  671ERGO   ROH 9405   0.671  17.296  10.733  0.1078  0.0106 -0.0724
  671ERGO    R1 9406   0.552  17.263  10.478  0.0305  0.1008 -0.0484
  671ERGO    R2 9407   0.439  17.473  10.338  0.2509  0.2085 -0.0674
  671ERGO    R3 9408   0.608  17.391  10.142  0.1285 -0.0228 -0.0806
  671ERGO    R4 9409   0.347  17.413  10.011  0.1286  0.2709 -0.0452
  671ERGO    R5 9410   0.478  17.239  10.011 -0.0760  0.1108 -0.0398
  671ERGO    C1 9411   0.452  17.301   9.635 -0.0575  0.0903 -0.0447
  671ERGO    C2 9412   0.389  17.332   9.326  0.1607  0.1258  0.2134
  672ERGO   ROH 9413   3.951   7.744   6.035  0.0711  0.1327 -0.0140
  672ERGO    R1 9414   3.892   7.586   6.262  0.0968  0.1859  0.0293
  672ERGO    R2 9415   3.971   7.657   6.517 -0.0570  0.3527  0.0295
  672ERGO    R3 9416   3.707   7.628   6.573 -0.0588  0.1808 -0.0612
  672ERGO    R4 9417   3.844   7.490   6.792 -0.0298  0.5105  0.1398
  672ERGO    R5 9418   3.689   7.407   6.663  0.0947  0.2490  0.1479
  672ERGO    C1 9419   3.521   7.365   7.004 -0.0157  0.4410  0.1190
  672ERGO    C2 9420   3.503   7.259   7.335 -0.1019 -0.0633  0.1096
  673ERGO   ROH 9421   5.478  12.502  10.020 -0.1996  0.0345 -0.1554
  673ERGO    R1 9422   5.479  12.711   9.830  0.1471  0.0886 -0.1061
  673ERGO    R2 9423   5.690  12.755   9.657  0.2001 -0.2731 -0.1697
  673ERGO    R3 9424   5.496  12.739   9.467  0.0943  0.1274 -0.1000
  673ERGO    R4 9425   5.735  12.824   9.321  0.1677 -0.3070 -0.1791
  673ERGO    R5 9426   5.541  12.923   9.320  0.3655  0.0545 -0.0878
  673ERGO    C1 9427   5.579  12.850   8.948  0.0495  0.0491 -0.1191
  673ERGO    C2 9428   5.639  12.991   8.623 -0.1384  0.0026  0.1106
  674ERGO   ROH 9429   1.886  15.353   7.128 -0.1764  0.0437  0.1992
  674ERGO    R1 9430   2.024  15.258   7.356  0.0634  0.0246  0.0496
  674ERGO    R2 9431   2.297  15.213   7.357  0.1200  0.3332 -0.1435
  674ERGO    R3 9432   2.291  15.379   7.572  0.0520  0.1647 -0.0136
  674ERGO    R4 9433   2.556  15.255   7.583  0.0964  0.2536 -0.1012
  674ERGO    R5 9434   2.409  15.260   7.743  0.0892  0.0751 -0.1014
  674ERGO    C1 9435   2.700  15.435   7.916  0.0187  0.0491  0.0454
  674ERGO    C2 9436   2.994  15.582   8.256  0.0675  0.2756  0.0020
  675PSPI    C1 9437  12.744  15.669   6.285  0.0015  0.0451  0.1880
  675PSPI    C2 9438  12.676  16.001   6.498  0.1047  0.1390  0.0765
  675PSPI    C3 9439  12.504  15.954   6.140 -0.0964 -0.0342  0.1935
  675PSPI   PO4 9440  12.915  15.529   6.385  0.1121 -0.1190  0.0113
  675PSPI   GL1 9441  13.045  15.532   6.813 -0.0628  0.2080  0.1984
  675PSPI   GL2 9442  13.203  15.537   7.083 -0.0196 -0.1586  0.1405
  675PSPI   C1A 9443  12.836  15.864   7.034  0.2761 -0.3511  0.4094
  675PSPI   C2A 9444  12.771  16.311   7.122  0.1717  0.0759 -0.0011
  675PSPI   C3A 9445  12.656  16.541   7.484 -0.1478 -0.0930 -0.1485
  675PSPI   C4A 9446  12.809  16.705   7.898 -0.1222  0.2726  0.0688
  675PSPI   C1B 9447  12.890  15.376   7.314 -0.3241 -0.1453 -0.0578
  675PSPI   C2B 9448  12.941  15.227   7.754  0.0825  0.0378  0.0454
  675PSPI   C3B 9449  12.792  15.008   8.065 -0.3196  0.1356 -0.1257
  675PSPI   C4B 9450  12.809  14.633   8.131 -0.0431 -0.1291 -0.0284
  676PSPI    C1 9451  15.642  13.388   5.678 -0.0673  0.0116 -0.1084
  676PSPI    C2 9452  16.034  13.320   5.711 -0.0904 -0.0620  0.0189
  676PSPI    C3 9453  15.898  13.695   5.685 -0.0110 -0.0369 -0.0405
  676PSPI   PO4 9454  15.497  13.206   5.939  0.0551  0.0255 -0.0055
  676PSPI   GL1 9455  15.575  13.131   6.296 -0.1049 -0.3301 -0.1739
  676PSPI   GL2 9456  15.572  13.449   6.523 -0.2135  0.3927  0.0805
  676PSPI   C1A 9457  15.762  12.895   6.608 -0.1629 -0.0283 -0.1843
  676PSPI   C2A 9458  15.869  12.897   7.069 -0.1896 -0.1160  0.1067
  676PSPI   C3A 9459  16.006  13.080   7.464  0.1813  0.0501 -0.1345
  676PSPI   C4A 9460  15.941  13.050   7.883  0.3890  0.2191  0.0136
  676PSPI   C1B 9461  15.643  13.313   6.928 -0.0721  0.0964  0.0389
  676PSPI   C2B 9462  15.561  13.179   7.306 -0.0697  0.0150 -0.3526
  676PSPI   C3B 9463  15.535  13.286   7.645  0.1105  0.0796  0.1823
  676PSPI   C4B 9464  15.599  13.268   8.172 -0.1221  0.0815 -0.1748
  677PSPI    C1 9465   1.285  16.518   6.384 -0.3537  0.0776  0.0432
  677PSPI    C2 9466   1.153  16.462   6.011 -0.0478 -0.2892 -0.0161
  677PSPI    C3 9467   1.543  16.524   6.078 -0.1863  0.4675  0.1849
  677PSPI   PO4 9468   1.178  16.674   6.527 -0.2838 -0.2135 -0.0932
  677PSPI   GL1 9469   0.981  16.655   6.806 -0.0602 -0.0090  0.2909
  677PSPI   GL2 9470   0.637  16.615   6.798 -0.0993 -0.2688  0.1545
  677PSPI   C1A 9471   1.055  16.676   7.195  0.1701  0.2840  0.2346
  677PSPI   C2A 9472   1.016  16.536   7.629  0.1378 -0.1119  0.1974
  677PSPI   C3A 9473   0.919  16.634   8.064  0.1535  0.0170 -0.1294
  677PSPI   C4A 9474   0.986  16.515   8.415 -0.1151  0.0709 -0.3434
  677PSPI   C1B 9475   0.556  16.846   7.185 -0.0015  0.1606  0.0285
  677PSPI   C2B 9476   0.497  16.719   7.579 -0.0546 -0.3729 -0.1506
  677PSPI   C3B 9477   0.353  16.680   7.957 -0.0688 -0.3168 -0.0723
  677PSPI   C4B 9478   0.244  16.882   8.384 -0.2009  0.0163 -0.2140
  678PSPI    C1 9479  13.914  13.139   6.080  0.0527  0.0043  0.1229
  678PSPI    C2 9480  14.013  13.501   5.939 -0.2638  0.0375 -0.0219
  678PSPI    C3 9481  14.071  13.176   5.714 -0.1599  0.0186  0.0317
  678PSPI   PO4 9482  13.650  13.173   6.135  0.0205 -0.1104  0.0228
  678PSPI   GL1 9483  13.582  12.906   6.577  0.1953  0.0163  0.0390
  678PSPI   GL2 9484  13.782  13.149   6.612 -0.1784  0.1455  0.0652
  678PSPI   C1A 9485  13.407  12.578   6.837 -0.1189 -0.2009  0.1041
  678PSPI   C2A 9486  13.345  12.619   7.187 -0.1268  0.4270 -0.4722
  678PSPI   C3A 9487  13.536  12.457   7.535 -0.0422 -0.2869 -0.1682
  678PSPI   C4A 9488  13.585  12.491   7.891 -0.0136  0.1755 -0.0464
  678PSPI   C1B 9489  13.689  13.061   7.100  0.1631  0.1857 -0.2632
  678PSPI   C2B 9490  13.675  12.889   7.452 -0.0762  0.2083 -0.2569
  678PSPI   C3B 9491  13.840  12.930   7.952  0.0909 -0.1768 -0.2577
  678PSPI   C4B 9492  13.978  12.615   8.292  0.1156  0.1038 -0.1650
  679PSPI    C1 9493  15.024   3.867   5.556  0.0571 -0.2403 -0.2139
  679PSPI    C2 9494  15.214   4.218   5.550 -0.0297 -0.1894 -0.0533
  679PSPI    C3 9495  15.424   3.878   5.550  0.0681 -0.1327  0.2608
  679PSPI   PO4 9496  14.820   3.890   5.715 -0.1774 -0.2071 -0.3587
  679PSPI   GL1 9497  14.784   3.759   6.153  0.1656 -0.0323 -0.1421
  679PSPI   GL2 9498  14.639   3.511   6.272 -0.3111  0.1288  0.0806
  679PSPI   C1A 9499  14.621   3.943   6.483 -0.0318  0.2587 -0.0680
  679PSPI   C2A 9500  14.563   3.861   6.907 -0.0376  0.0294 -0.0202
  679PSPI   C3A 9501  14.197   3.995   7.208 -0.1511 -0.0358 -0.1064
  679PSPI   C4A 9502  13.810   4.140   7.416 -0.0752  0.0392  0.0702
  679PSPI   C1B 9503  14.749   3.405   6.733 -0.0982  0.1011  0.3184
  679PSPI   C2B 9504  14.687   3.122   7.105 -0.2315  0.2049 -0.1112
  679PSPI   C3B 9505  14.542   3.021   7.483  0.1630 -0.0586 -0.1319
  679PSPI   C4B 9506  14.734   3.036   7.919 -0.1367  0.0132 -0.1017
  680PSPI    C1 9507   2.732   6.218   5.423 -0.2049  0.0741 -0.0208
  680PSPI    C2 9508   2.495   5.917   5.309  0.0794 -0.2173  0.1412
  680PSPI    C3 9509   2.788   6.042   5.068 -0.0374 -0.0689  0.0749
  680PSPI   PO4 9510   2.794   6.094   5.713 -0.2258  0.0118 -0.1622
  680PSPI   GL1 9511   2.819   6.291   6.082  0.0125 -0.0236 -0.1276
  680PSPI   GL2 9512   2.503   6.395   6.231  0.0675 -0.2151 -0.0408
  680PSPI   C1A 9513   3.013   6.064   6.447  0.0949 -0.0989 -0.0151
  680PSPI   C2A 9514   3.025   6.108   6.975  0.0377 -0.2579 -0.0493
  680PSPI   C3A 9515   3.377   6.271   7.297 -0.1410  0.3038  0.0567
  680PSPI   C4A 9516   3.233   6.423   7.674 -0.0228 -0.0678 -0.3070
  680PSPI   C1B 9517   2.451   6.205   6.605 -0.0555  0.1644 -0.2953
  680PSPI   C2B 9518   2.189   5.897   6.819 -0.0962  0.0010  0.3367
  680PSPI   C3B 9519   2.202   5.829   7.268 -0.1783 -0.1075  0.0650
  680PSPI   C4B 9520   2.243   5.858   7.620  0.0942  0.0673  0.1493
  681PSPI    C1 9521  16.382   4.746   5.823  0.0135  0.1279 -0.0812
  681PSPI    C2 9522  16.188   4.403   5.893 -0.0896  0.1614 -0.1991
  681PSPI    C3 9523  16.160   4.579   5.535  0.3785  0.0249 -0.3095
  681PSPI   PO4 9524  16.674   4.660   5.955 -0.0118 -0.0853  0.0523
  681PSPI   GL1 9525  16.679   4.395   6.281 -0.0231  0.0457  0.2042
  681PSPI   GL2 9526  16.974   4.466   6.273 -0.0623 -0.0659 -0.0676
  681PSPI   C1A 9527  16.513   4.417   6.719 -0.0177 -0.2919  0.0575
  681PSPI   C2A 9528  16.431   4.674   7.043 -0.3393  0.0042  0.1061
  681PSPI   C3A 9529  16.593   4.793   7.399  0.0091 -0.0651 -0.0751
  681PSPI   C4A 9530  16.667   4.910   7.854  0.1273 -0.1474 -0.0686
  681PSPI   C1B 9531  16.888   4.683   6.738 -0.1281 -0.2124 -0.0332
  681PSPI   C2B 9532  16.974   4.590   7.128 -0.0792  0.2753 -0.0265
  681PSPI   C3B 9533  16.977   4.410   7.590  0.0508 -0.2327  0.0060
  681PSPI   C4B 9534  17.274   4.446   7.887  0.0534 -0.2229  0.1568
  682PSPI    C1 9535   5.908  12.849   5.971 -0.0813 -0.0574  0.0823
  682PSPI    C2 9536   5.830  12.501   5.790 -0.3973  0.0445  0.0162
  682PSPI    C3 9537   5.892  12.831   5.572  0.0032  0.0137  0.0754
  682PSPI   PO4 9538   6.037  12.661   6.222 -0.0546 -0.0006  0.2545
  682PSPI   GL1 9539   6.142  12.924   6.460 -0.0984 -0.1750  0.0286
  682PSPI   GL2 9540   5.801  13.039   6.507  0.2002 -0.0269 -0.2121
  682PSPI   C1A 9541   5.922  12.582   6.825 -0.0546 -0.1147  0.1276
  682PSPI   C2A 9542   5.802  12.676   7.314  0.0754 -0.0456  0.1796
  682PSPI   C3A 9543   5.803  12.879   7.770 -0.1552 -0.0706  0.0480
  682PSPI   C4A 9544   5.748  12.674   8.204 -0.3070  0.4621 -0.0819
  682PSPI   C1B 9545   5.803  13.029   6.973  0.2443 -0.1368  0.0592
  682PSPI   C2B 9546   5.811  13.207   7.371 -0.0934  0.0434 -0.0669
  682PSPI   C3B 9547   5.878  13.420   7.730 -0.2925 -0.0784 -0.0824
  682PSPI   C4B 9548   6.117  13.570   7.979  0.0898 -0.3254  0.1281
  683PSPI    C1 9549  17.205   4.141   5.750  0.0016  0.0772 -0.1410
  683PSPI    C2 9550  16.822   4.256   5.752 -0.0430 -0.0706 -0.0221
  683PSPI    C3 9551  16.918   3.883   5.646  0.0799  0.0033 -0.1752
  683PSPI   PO4 9552  17.271   4.234   5.884 -0.1611  0.0534 -0.1928
  683PSPI   GL1 9553  17.526   4.583   6.153  0.0674 -0.0684 -0.1120
  683PSPI   GL2 9554  17.469   4.297   6.303  0.2544  0.0490 -0.1592
  683PSPI   C1A 9555  17.276   4.922   6.524 -0.3299 -0.2369  0.0926
  683PSPI   C2A 9556  17.284   5.113   6.873  0.2693  0.3582  0.2693
  683PSPI   C3A 9557  17.235   5.017   7.264  0.1001 -0.0247  0.3352
  683PSPI   C4A 9558  17.177   4.900   7.625  0.0226 -0.3652 -0.2769
  683PSPI   C1B 9559  17.319   4.438   6.797  0.0608  0.0250  0.0690
  683PSPI   C2B 9560  17.403   4.475   7.323  0.1648 -0.2095  0.4449
  683PSPI   C3B 9561  17.641   4.769   7.658  0.0431  0.0378  0.5200
  683PSPI   C4B 9562  18.007   4.954   7.789  0.1430  0.0421  0.0242
  684PSPI    C1 9563  17.030   6.594   5.204 -0.1369 -0.1701  0.0694
  684PSPI    C2 9564  16.984   6.852   4.903  0.2089 -0.3400 -0.1363
  684PSPI    C3 9565  16.670   6.644   5.038  0.0120 -0.1195 -0.2451
  684PSPI   PO4 9566  17.109   6.728   5.408  0.0072  0.1935  0.0905
  684PSPI   GL1 9567  17.309   6.756   5.795  0.3323  0.1833  0.0613
  684PSPI   GL2 9568  17.448   6.517   5.980 -0.1795  0.0397 -0.0245
  684PSPI   C1A 9569  17.222   7.124   6.172 -0.1428  0.1149  0.1034
  684PSPI   C2A 9570  17.376   7.394   6.466 -0.0839  0.0790 -0.2172
  684PSPI   C3A 9571  17.647   7.749   6.320  0.6694 -0.1793 -0.2255
  684PSPI   C4A 9572  17.672   7.957   6.624 -0.0212 -0.1530 -0.1818
  684PSPI   C1B 9573  17.281   6.369   6.369  0.2394 -0.5129 -0.0198
  684PSPI   C2B 9574  17.588   6.405   6.733 -0.2937 -0.1964  0.1889
  684PSPI   C3B 9575  17.809   6.422   7.113 -0.1748 -0.0655 -0.0492
  684PSPI   C4B 9576  18.115   6.596   7.206 -0.0302  0.0594 -0.1913
  685PSPI    C1 9577   9.299   0.124   6.178  0.1013  0.1079 -0.0520
  685PSPI    C2 9578   9.661   0.293   6.184  0.1701 -0.0381 -0.0474
  685PSPI    C3 9579   9.565   0.038   5.892  0.0109  0.1290 -0.1434
  685PSPI   PO4 9580   9.213   0.063   6.456 -0.0215  0.0280  0.0463
  685PSPI   GL1 9581   9.220   0.217   6.838  0.2181 -0.1162 -0.1010
  685PSPI   GL2 9582   9.004   0.454   6.847 -0.2280 -0.0962  0.0781
  685PSPI   C1A 9583   9.465   0.252   7.100  0.0951  0.0132 -0.1432
  685PSPI   C2A 9584   9.399   0.032   7.489  0.1336 -0.0442 -0.0983
  685PSPI   C3A 9585   9.283  -0.187   7.857 -0.5646 -0.2583  0.0721
  685PSPI   C4A 9586   9.002  -0.393   8.147  0.0862  0.1156  0.1158
  685PSPI   C1B 9587   9.067   0.487   7.266  0.0647 -0.3629  0.1921
  685PSPI   C2B 9588   9.111   0.638   7.697 -0.1236 -0.0074 -0.1482
  685PSPI   C3B 9589   8.838   0.718   8.056  0.1664  0.1113  0.0436
  685PSPI   C4B 9590   9.047   0.562   8.415  0.2025 -0.0671 -0.5676
  686PSPI    C1 9591   1.432  16.983   6.014 -0.0937 -0.1402 -0.1513
  686PSPI    C2 9592   1.121  16.885   5.783  0.1199 -0.3195 -0.3685
  686PSPI    C3 9593   1.402  17.134   5.645 -0.1038  0.1280 -0.0431
  686PSPI   PO4 9594   1.330  17.112   6.229  0.1492  0.3048  0.2451
  686PSPI   GL1 9595   0.944  17.221   6.570 -0.2758  0.0388  0.2243
  686PSPI   GL2 9596   0.781  17.126   6.894 -0.1646 -0.2851 -0.1993
  686PSPI   C1A 9597   0.991  17.633   6.782 -0.0511  0.2019  0.1805
  686PSPI   C2A 9598   1.087  17.653   7.214  0.0521 -0.0605 -0.0433
  686PSPI   C3A 9599   1.062  17.746   7.585  0.2243 -0.1018  0.0068
  686PSPI   C4A 9600   1.017  18.010   7.950 -0.0222 -0.1338  0.0250
  686PSPI   C1B 9601   0.912  17.224   7.291 -0.1401 -0.3077  0.2085
  686PSPI   C2B 9602   0.960  17.092   7.621  0.0169 -0.1356  0.1571
  686PSPI   C3B 9603   1.274  17.026   7.957  0.1469 -0.1660  0.3336
  686PSPI   C4B 9604   1.656  17.113   8.095  0.0994  0.0693  0.0780
  687PSPI    C1 9605  13.364  17.964   6.183  0.0938 -0.1830 -0.0290
  687PSPI    C2 9606  13.499  18.340   6.197 -0.0524 -0.1374  0.2190
  687PSPI    C3 9607  13.324  18.203   5.864  0.1984 -0.0574  0.0513
  687PSPI   PO4 9608  13.214  18.008   6.469 -0.0088  0.2691 -0.0334
  687PSPI   GL1 9609  13.128  18.026   6.853 -0.1461  0.1033 -0.0520
  687PSPI   GL2 9610  13.279  18.154   7.153  0.0985  0.0018  0.0624
  687PSPI   C1A 9611  12.676  17.898   6.957  0.2085  0.1076 -0.1794
  687PSPI   C2A 9612  12.415  18.144   7.213 -0.0479 -0.0155 -0.0332
  687PSPI   C3A 9613  11.995  18.245   7.215  0.1775  0.2621 -0.1213
  687PSPI   C4A 9614  11.652  18.111   7.044 -0.2452  0.1936 -0.1524
  687PSPI   C1B 9615  13.138  18.419   7.463  0.2490 -0.3887  0.3223
  687PSPI   C2B 9616  13.007  18.688   7.837 -0.2799 -0.3136 -0.0905
  687PSPI   C3B 9617  13.057  18.930   8.255 -0.0810 -0.1780  0.0053
  687PSPI   C4B 9618  13.125  19.285   8.598 -0.1168  0.2035 -0.0675
  688PSPI    C1 9619  17.435  10.663   5.284  0.0816 -0.1206 -0.2695
  688PSPI    C2 9620  17.274  10.336   5.119  0.1105 -0.1050 -0.3291
  688PSPI    C3 9621  17.085  10.688   5.092 -0.0661 -0.1713 -0.0112
  688PSPI   PO4 9622  17.430  10.665   5.532 -0.1773  0.0324  0.0530
  688PSPI   GL1 9623  17.252  10.457   5.852  0.3548  0.0349  0.2482
  688PSPI   GL2 9624  17.109  10.740   5.965  0.0337 -0.1104 -0.0354
  688PSPI   C1A 9625  17.384  10.311   6.294 -0.0434 -0.1131  0.1758
  688PSPI   C2A 9626  17.172  10.411   6.695  0.0586 -0.1428  0.0896
  688PSPI   C3A 9627  17.119  10.202   7.147 -0.1079 -0.2363 -0.3171
  688PSPI   C4A 9628  17.093   9.958   7.587  0.0995 -0.0850 -0.2134
  688PSPI   C1B 9629  16.871  10.525   6.306 -0.1728 -0.0459  0.3525
  688PSPI   C2B 9630  16.688  10.497   6.834  0.0752  0.0506  0.0119
  688PSPI   C3B 9631  16.640  10.254   7.099 -0.2888  0.0975 -0.2522
  688PSPI   C4B 9632  16.448  10.120   7.476 -0.1582 -0.2866  0.0427
  689PSPI    C1 9633   5.856  11.859   5.746 -0.0531 -0.0747  0.0556
  689PSPI    C2 9634   6.206  12.053   5.760 -0.0772 -0.0291  0.0273
  689PSPI    C3 9635   5.951  12.122   5.460 -0.1278 -0.0327  0.0693
  689PSPI   PO4 9636   5.776  11.785   6.023 -0.0033  0.3334  0.1001
  689PSPI   GL1 9637   5.885  11.887   6.423  0.0338 -0.0057  0.1793
  689PSPI   GL2 9638   5.787  12.228   6.277 -0.3577 -0.1873  0.2916
  689PSPI   C1A 9639   6.131  12.119   6.729  0.0465  0.1387  0.0124
  689PSPI   C2A 9640   5.955  12.167   7.238  0.1369 -0.1812  0.0357
  689PSPI   C3A 9641   5.944  12.255   7.636  0.0772  0.0938  0.1605
  689PSPI   C4A 9642   5.840  12.203   8.108  0.0339  0.0363 -0.2580
  689PSPI   C1B 9643   5.632  12.208   6.662 -0.0717  0.0010 -0.0222
  689PSPI   C2B 9644   5.538  12.335   7.083 -0.3660  0.1704 -0.0399
  689PSPI   C3B 9645   5.442  12.345   7.493 -0.1001 -0.2201 -0.0545
  689PSPI   C4B 9646   5.475  12.557   7.854  0.0916  0.1256 -0.2506
  690PSPI    C1 9647  14.846   5.998   5.216  0.1415 -0.0676 -0.1722
  690PSPI    C2 9648  14.604   6.263   5.040  0.0896  0.0358  0.0517
  690PSPI    C3 9649  14.953   6.382   5.194  0.1591 -0.0639 -0.0269
  690PSPI   PO4 9650  14.750   5.867   5.451  0.1910 -0.0891 -0.2270
  690PSPI   GL1 9651  14.895   5.855   5.876 -0.3027 -0.0178 -0.0168
  690PSPI   GL2 9652  14.968   6.281   5.886  0.2282  0.0339 -0.1999
  690PSPI   C1A 9653  14.718   6.026   6.183 -0.1185  0.0192 -0.0224
  690PSPI   C2A 9654  14.710   6.186   6.635  0.1751  0.0745 -0.0459
  690PSPI   C3A 9655  14.766   6.291   7.037 -0.0593 -0.1197 -0.4316
  690PSPI   C4A 9656  14.684   6.388   7.522 -0.0994  0.0008  0.2823
  690PSPI   C1B 9657  14.869   6.512   6.283  0.0645  0.0159 -0.0734
  690PSPI   C2B 9658  14.899   6.652   6.722 -0.0408  0.2647  0.0364
  690PSPI   C3B 9659  14.936   6.743   7.070 -0.0282 -0.2285  0.0666
  690PSPI   C4B 9660  15.148   6.985   7.377 -0.1042 -0.2286  0.1555
  691PSPI    C1 9661   5.672   2.722   5.661  0.0571  0.1473 -0.1032
  691PSPI    C2 9662   5.333   2.812   5.468  0.0360  0.0370 -0.1184
  691PSPI    C3 9663   5.676   2.991   5.365  0.0279 -0.0343 -0.2710
  691PSPI   PO4 9664   5.617   2.787   5.908 -0.2386  0.2856 -0.1730
  691PSPI   GL1 9665   5.870   2.870   6.211  0.0816  0.1607 -0.0280
  691PSPI   GL2 9666   5.928   2.617   6.389 -0.3088 -0.0570 -0.2700
  691PSPI   C1A 9667   5.821   3.117   6.531  0.0192  0.0724  0.0357
  691PSPI   C2A 9668   5.769   3.153   6.938 -0.1201  0.1220 -0.0789
  691PSPI   C3A 9669   5.675   3.292   7.294  0.0008 -0.0569  0.5065
  691PSPI   C4A 9670   5.899   3.390   7.614 -0.0399  0.2819 -0.1822
  691PSPI   C1B 9671   5.971   2.702   6.815  0.1493 -0.1057 -0.4711
  691PSPI   C2B 9672   5.952   2.655   7.223  0.1974  0.0000 -0.1358
  691PSPI   C3B 9673   5.959   2.878   7.720  0.0108  0.1823  0.0925
  691PSPI   C4B 9674   5.734   2.943   8.100  0.2220  0.3636 -0.0118
  692PSPI    C1 9675   7.990  11.895   5.512  0.0351 -0.0553 -0.0440
  692PSPI    C2 9676   8.232  11.782   5.215  0.0950 -0.2130  0.0633
  692PSPI    C3 9677   7.857  11.645   5.229 -0.0521  0.1492 -0.1856
  692PSPI   PO4 9678   8.081  11.857   5.691  0.3382  0.0076 -0.4108
  692PSPI   GL1 9679   7.884  11.760   6.129 -0.0240 -0.0713 -0.2903
  692PSPI   GL2 9680   8.076  11.438   6.138  0.0452 -0.0073  0.1311
  692PSPI   C1A 9681   7.709  11.640   6.570  0.1883  0.2496 -0.1620
  692PSPI   C2A 9682   7.685  11.708   6.913  0.0659  0.1395 -0.2317
  692PSPI   C3A 9683   7.716  11.588   7.289 -0.1456 -0.1285 -0.2051
  692PSPI   C4A 9684   7.817  11.322   7.661  0.0554 -0.0044  0.0849
  692PSPI   C1B 9685   8.278  11.636   6.511  0.1136 -0.0176  0.0597
  692PSPI   C2B 9686   8.214  11.749   6.919 -0.0773 -0.1417  0.0503
  692PSPI   C3B 9687   8.235  11.703   7.319 -0.0504 -0.2472 -0.0795
  692PSPI   C4B 9688   8.459  11.547   7.650  0.1538 -0.0217 -0.2189
  693PSPI    C1 9689   3.311  15.768   6.122  0.1351 -0.1571 -0.0553
  693PSPI    C2 9690   3.150  15.662   5.771  0.3337 -0.2285 -0.1264
  693PSPI    C3 9691   3.361  16.000   5.800 -0.0719  0.0184  0.0366
  693PSPI   PO4 9692   3.173  15.817   6.285  0.0803 -0.1230 -0.0705
  693PSPI   GL1 9693   3.087  15.595   6.641 -0.1687 -0.1775 -0.1116
  693PSPI   GL2 9694   2.899  15.559   6.854  0.1771  0.3247  0.2154
  693PSPI   C1A 9695   3.439  15.559   6.875 -0.1152 -0.2448 -0.2630
  693PSPI   C2A 9696   3.676  15.698   7.312  0.1634  0.0746 -0.0488
  693PSPI   C3A 9697   3.726  15.778   7.708  0.1538 -0.2532 -0.1906
  693PSPI   C4A 9698   3.901  15.865   8.113  0.1818  0.0252 -0.0180
  693PSPI   C1B 9699   2.683  15.557   7.166  0.0587 -0.1085 -0.0475
  693PSPI   C2B 9700   2.820  15.756   7.490  0.2845  0.2773 -0.2943
  693PSPI   C3B 9701   2.783  15.980   7.914 -0.2232 -0.0725 -0.4169
  693PSPI   C4B 9702   2.446  16.210   8.132  0.1172  0.0170  0.0771
  694PSPI    C1 9703  10.473  11.339   5.778 -0.2676  0.2415 -0.1791
  694PSPI    C2 9704  10.298  10.994   5.879  0.0177  0.1957  0.1757
  694PSPI    C3 9705  10.137  11.223   5.594 -0.2053 -0.2011 -0.0257
  694PSPI   PO4 9706  10.651  11.324   6.059 -0.4479  0.1387 -0.1120
  694PSPI   GL1 9707  10.446  11.315   6.459  0.0006 -0.0081  0.2435
  694PSPI   GL2 9708  10.432  11.202   6.673 -0.0668  0.0374  0.3157
  694PSPI   C1A 9709  10.718  11.601   6.701 -0.1414 -0.2254 -0.0988
  694PSPI   C2A 9710  11.038  11.560   7.059 -0.1581 -0.0837 -0.1689
  694PSPI   C3A 9711  11.397  11.424   7.084 -0.2662  0.2955 -0.0152
  694PSPI   C4A 9712  11.791  11.261   7.263  0.1862 -0.1441  0.0790
  694PSPI   C1B 9713  10.413  11.443   7.083 -0.2090 -0.0914 -0.2051
  694PSPI   C2B 9714  10.234  11.532   7.544 -0.2807 -0.0706 -0.0188
  694PSPI   C3B 9715  10.145  11.856   7.878 -0.1435  0.1420  0.1047
  694PSPI   C4B 9716   9.755  11.975   8.079 -0.4046 -0.0971  0.1944
  695POPI    C1 9717   2.418   7.226   5.590  0.1814  0.1463  0.1719
  695POPI    C2 9718   2.400   7.053   5.950 -0.0714 -0.1689  0.0126
  695POPI    C3 9719   2.130   6.960   5.669  0.0672  0.1431 -0.2300
  695POPI   PO4 9720   2.426   7.611   5.713 -0.1717  0.0939  0.3041
  695POPI   GL1 9721   2.494   7.885   6.099  0.1752  0.2670 -0.0885
  695POPI   GL2 9722   2.449   8.171   6.227 -0.2570 -0.2321  0.0523
  695POPI   C1A 9723   2.347   7.735   6.530 -0.0072 -0.3073  0.0415
  695POPI   D2A 9724   2.188   7.562   6.956 -0.2809  0.0607 -0.1800
  695POPI   C3A 9725   2.167   7.281   7.340 -0.0742 -0.4415 -0.2308
  695POPI   C4A 9726   2.209   6.906   7.372  0.1418  0.1369  0.1880
  695POPI   C1B 9727   2.500   8.220   6.646  0.2100  0.0590 -0.2277
  695POPI   C2B 9728   2.579   7.978   7.031 -0.0163  0.2785 -0.4057
  695POPI   C3B 9729   2.605   7.627   7.252  0.0359 -0.0487 -0.1065
  695POPI   C4B 9730   2.556   7.615   7.694  0.3222  0.0170 -0.0836
  696POPI    C1 9731   0.837   1.880   5.734 -0.0725 -0.1744 -0.1391
  696POPI    C2 9732   0.859   2.192   5.483  0.2848 -0.0715  0.0134
  696POPI    C3 9733   0.823   1.821   5.338 -0.0479  0.0288 -0.1717
  696POPI   PO4 9734   0.770   2.104   6.005  0.0595 -0.2203 -0.0828
  696POPI   GL1 9735   1.020   2.160   6.256  0.1505 -0.0747  0.0701
  696POPI   GL2 9736   0.942   2.454   6.483 -0.1691  0.1161  0.2621
  696POPI   C1A 9737   1.021   1.964   6.603 -0.1427 -0.4472  0.1025
  696POPI   D2A 9738   0.932   2.210   6.966 -0.0904  0.3755  0.1712
  696POPI   C3A 9739   0.884   1.950   7.310  0.0383 -0.0778  0.1595
  696POPI   C4A 9740   0.769   1.684   7.616 -0.0453  0.0857  0.1380
  696POPI   C1B 9741   0.883   2.710   6.794 -0.1255 -0.2055 -0.0702
  696POPI   C2B 9742   0.987   2.716   7.219  0.3201  0.2302  0.2393
  696POPI   C3B 9743   1.219   2.427   7.309 -0.4844  0.0999 -0.0665
  696POPI   C4B 9744   1.668   2.396   7.308  0.0345  0.0464 -0.1519
  697POPI    C1 9745   2.103   5.719   5.729  0.0426  0.0360  0.0455
  697POPI    C2 9746   2.193   5.495   5.410 -0.2703 -0.0682  0.0267
  697POPI    C3 9747   1.812   5.586   5.490 -0.1949 -0.0342  0.3662
  697POPI   PO4 9748   2.188   5.603   5.939  0.0073 -0.1136  0.0391
  697POPI   GL1 9749   2.377   5.361   6.238  0.0943 -0.0783  0.1480
  697POPI   GL2 9750   1.991   5.247   6.273 -0.0672 -0.0413 -0.0454
  697POPI   C1A 9751   2.247   5.369   6.700  0.1645  0.0717  0.0574
  697POPI   D2A 9752   2.140   5.379   7.143 -0.0962 -0.1774 -0.2061
  697POPI   C3A 9753   2.363   5.412   7.555  0.1503  0.1337  0.1343
  697POPI   C4A 9754   2.284   5.348   8.054  0.0595 -0.0312  0.1553
  697POPI   C1B 9755   1.887   5.049   6.614  0.0476 -0.0764  0.2560
  697POPI   C2B 9756   1.711   5.082   7.106 -0.1803  0.0583 -0.0101
  697POPI   C3B 9757   1.866   5.286   7.601 -0.0431  0.1327 -0.1096
  697POPI   C4B 9758   1.666   5.618   7.658  0.1460 -0.1054 -0.2825
  698POPI    C1 9759  16.146   3.131   5.642  0.0139 -0.1430 -0.0346
  698POPI    C2 9760  15.937   2.982   5.336  0.1573 -0.0030 -0.2027
  698POPI    C3 9761  16.282   2.811   5.444  0.0493 -0.1229 -0.0430
  698POPI   PO4 9762  15.974   3.172   5.878 -0.0057 -0.0803 -0.0689
  698POPI   GL1 9763  15.895   3.555   6.196  0.0251 -0.0931  0.0312
  698POPI   GL2 9764  15.596   3.619   6.348  0.2480 -0.1806  0.1242
  698POPI   C1A 9765  16.290   3.678   6.310 -0.0467 -0.0143  0.2214
  698POPI   D2A 9766  16.523   3.914   6.517  0.0935 -0.0364  0.0067
  698POPI   C3A 9767  16.368   4.007   6.948 -0.1723 -0.2656 -0.4099
  698POPI   C4A 9768  16.245   4.279   7.271 -0.1417 -0.0568  0.1009
  698POPI   C1B 9769  15.656   3.354   6.725 -0.2401  0.1115  0.3005
  698POPI   C2B 9770  15.588   3.372   7.202  0.2891  0.0441  0.1538
  698POPI   C3B 9771  15.345   3.516   7.497 -0.4616  0.0070 -0.2351
  698POPI   C4B 9772  15.330   3.809   7.738 -0.0060 -0.0768  0.0043
  699POPI    C1 9773   0.496   3.692   5.025  0.1270  0.3457  0.1156
  699POPI    C2 9774   0.884   3.757   4.951  0.1265  0.2039 -0.0167
  699POPI    C3 9775   0.615   3.792   4.657  0.0758  0.0159  0.0060
  699POPI   PO4 9776   0.462   3.861   5.351  0.0036 -0.4404  0.0680
  699POPI   GL1 9777   0.663   3.899   5.745 -0.0418 -0.4139  0.1012
  699POPI   GL2 9778   0.443   4.236   5.819  0.2022  0.0410 -0.1780
  699POPI   C1A 9779   0.931   4.173   5.917 -0.0731 -0.0569  0.2519
  699POPI   D2A 9780   1.320   4.011   6.162 -0.0540  0.1236 -0.0977
  699POPI   C3A 9781   1.188   4.011   6.549 -0.4986  0.1353  0.0237
  699POPI   C4A 9782   0.960   4.357   6.762  0.0285  0.0218 -0.0377
  699POPI   C1B 9783   0.296   4.008   6.178 -0.0624  0.0869  0.0038
  699POPI   C2B 9784   0.404   3.947   6.588  0.0750 -0.0704  0.4084
  699POPI   C3B 9785   0.661   3.944   6.950  0.0531 -0.1793  0.2498
  699POPI   C4B 9786   1.052   3.974   7.073  0.1294  0.1992 -0.0328
  700POPI    C1 9787   3.661  17.323   6.237 -0.1018 -0.0670  0.0075
  700POPI    C2 9788   3.975  17.541   6.356 -0.0487 -0.1393  0.0008
  700POPI    C3 9789   3.965  17.392   5.986 -0.0637 -0.1869  0.0203
  700POPI   PO4 9790   3.407  17.448   6.355  0.2336 -0.3914 -0.1066
  700POPI   GL1 9791   3.031  17.538   6.599  0.0915 -0.1155  0.0504
  700POPI   GL2 9792   2.774  17.383   6.604  0.2368 -0.2201 -0.0063
  700POPI   C1A 9793   3.277  17.419   7.022  0.0374 -0.0608  0.2338
  700POPI   D2A 9794   3.526  17.411   7.297  0.2192 -0.0867 -0.2244
  700POPI   C3A 9795   3.798  17.685   7.264  0.0318  0.2211 -0.2099
  700POPI   C4A 9796   4.044  17.610   7.039  0.3222  0.2032  0.2114
  700POPI   C1B 9797   2.700  17.446   6.922 -0.2007 -0.1436  0.3295
  700POPI   C2B 9798   2.921  17.540   7.407  0.1347 -0.4956  0.2781
  700POPI   C3B 9799   2.669  17.901   7.619 -0.1507  0.2344 -0.0485
  700POPI   C4B 9800   2.256  18.149   7.763  0.3181  0.0446  0.0564
  701POPI    C1 9801   9.905   5.488   5.855 -0.0534 -0.1532  0.0746
  701POPI    C2 9802   9.793   5.168   5.641  0.2083 -0.1449 -0.0795
  701POPI    C3 9803   9.882   5.511   5.456  0.0057 -0.0037  0.0796
  701POPI   PO4 9804   9.692   5.368   6.109 -0.0789  0.0967 -0.5061
  701POPI   GL1 9805   9.615   5.380   6.522 -0.1184  0.1696 -0.0496
  701POPI   GL2 9806   9.565   5.685   6.658 -0.3219 -0.0410 -0.0567
  701POPI   C1A 9807  10.005   5.348   6.855 -0.0175 -0.0929  0.1004
  701POPI   D2A 9808  10.119   5.448   7.345 -0.3004  0.2134 -0.1422
  701POPI   C3A 9809  10.424   5.188   7.573 -0.1602  0.0910 -0.0283
  701POPI   C4A 9810  10.653   5.074   7.903 -0.1495  0.2330  0.0059
  701POPI   C1B 9811   9.531   5.569   7.037 -0.1328 -0.1495 -0.0710
  701POPI   C2B 9812   9.549   5.635   7.354 -0.2483 -0.0022 -0.4064
  701POPI   C3B 9813   9.501   5.770   7.753  0.0920 -0.1992 -0.4989
  701POPI   C4B 9814   9.327   5.972   8.228 -0.1882 -0.2736 -0.2985
  702POPI    C1 9815  14.794   0.602   6.143 -0.0840  0.3412  0.1183
  702POPI    C2 9816  14.579   0.918   6.260 -0.0980  0.3934 -0.0461
  702POPI    C3 9817  14.929   0.972   6.074  0.0193  0.3092  0.1474
  702POPI   PO4 9818  14.800   0.463   6.336  0.3183  0.3408  0.0623
  702POPI   GL1 9819  15.005   0.646   6.661  0.1439  0.0728  0.0564
  702POPI   GL2 9820  14.948   0.905   6.570  0.1345 -0.2057 -0.3047
  702POPI   C1A 9821  15.087   0.575   7.089 -0.0097 -0.0546 -0.0082
  702POPI   D2A 9822  15.192   0.841   7.430  0.0409 -0.1671 -0.2397
  702POPI   C3A 9823  15.380   1.166   7.455  0.2534  0.0079 -0.0516
  702POPI   C4A 9824  15.628   1.404   7.777 -0.1178 -0.0370  0.0268
  702POPI   C1B 9825  14.861   1.193   7.028 -0.1343  0.2668 -0.1526
  702POPI   C2B 9826  14.922   1.326   7.441  0.2704 -0.0687 -0.1565
  702POPI   C3B 9827  15.103   1.151   7.835  0.2210 -0.2045 -0.3123
  702POPI   C4B 9828  15.329   0.833   8.070 -0.1331  0.1133  0.1523
  703POPI    C1 9829  11.344  10.609   6.090  0.2062  0.1735 -0.0147
  703POPI    C2 9830  11.373  10.830   5.757 -0.1867  0.0515 -0.1345
  703POPI    C3 9831  11.201  10.469   5.744  0.1028 -0.1016  0.1370
  703POPI   PO4 9832  11.217  10.713   6.255 -0.0904  0.2200 -0.2625
  703POPI   GL1 9833  11.090  10.577   6.669 -0.0073 -0.0513 -0.0651
  703POPI   GL2 9834  10.804  10.663   6.686  0.0560 -0.0127 -0.1357
  703POPI   C1A 9835  11.138  10.392   7.007  0.0644 -0.0353 -0.1414
  703POPI   D2A 9836  11.110  10.447   7.425  0.0325 -0.0914 -0.1429
  703POPI   C3A 9837  10.856  10.479   7.798 -0.1287  0.4927 -0.2716
  703POPI   C4A 9838  10.717  10.295   8.060  0.1039 -0.0437 -0.0456
  703POPI   C1B 9839  10.678  10.544   7.099 -0.1829  0.1270  0.0755
  703POPI   C2B 9840  10.457  10.458   7.501  0.2753  0.0611 -0.2024
  703POPI   C3B 9841  10.373  10.100   7.786  0.0112 -0.1416 -0.1763
  703POPI   C4B 9842  10.456   9.921   8.221  0.1842 -0.1974 -0.0659
  704POPI    C1 9843  14.439  15.974   6.321 -0.0117  0.0204 -0.0442
  704POPI    C2 9844  14.100  15.827   6.168  0.0195 -0.0710 -0.0263
  704POPI    C3 9845  14.222  16.194   6.067 -0.2092  0.0572  0.1530
  704POPI   PO4 9846  14.371  15.990   6.610 -0.0074  0.1244 -0.2530
  704POPI   GL1 9847  14.492  15.802   6.887  0.2643 -0.1156  0.3179
  704POPI   GL2 9848  14.599  15.531   6.974  0.0546  0.1197 -0.2352
  704POPI   C1A 9849  14.511  16.021   7.224  0.1466  0.1939  0.0059
  704POPI   D2A 9850  14.872  16.299   7.394 -0.1447 -0.1566  0.0228
  704POPI   C3A 9851  14.995  16.269   7.731 -0.2344 -0.0936  0.1250
  704POPI   C4A 9852  15.178  16.261   8.000 -0.0988  0.3513 -0.3834
  704POPI   C1B 9853  14.446  15.587   7.455 -0.0571  0.0344  0.0945
  704POPI   C2B 9854  14.462  15.457   7.912  0.3125  0.2534 -0.0733
  704POPI   C3B 9855  14.260  15.341   8.332 -0.2047  0.1028 -0.0352
  704POPI   C4B 9856  13.931  15.268   8.429 -0.1957 -0.3401 -0.1305
  705POPI    C1 9857   8.578   7.184   5.978  0.0462  0.0097  0.0495
  705POPI    C2 9858   8.371   7.361   5.685 -0.0678 -0.1739  0.0172
  705POPI    C3 9859   8.766   7.418   5.714 -0.0517 -0.1731 -0.1866
  705POPI   PO4 9860   8.397   7.151   6.178 -0.2036  0.1928 -0.0925
  705POPI   GL1 9861   8.581   7.126   6.556 -0.1317  0.3194 -0.0011
  705POPI   GL2 9862   8.726   7.395   6.531 -0.0211 -0.1882  0.0607
  705POPI   C1A 9863   8.628   7.128   7.009  0.1354 -0.4699 -0.2589
  705POPI   D2A 9864   8.883   7.146   7.343 -0.0971  0.2696  0.1310
  705POPI   C3A 9865   9.060   7.501   7.482  0.0544  0.0510  0.1898
  705POPI   C4A 9866   9.441   7.764   7.389 -0.0760  0.1735 -0.2822
  705POPI   C1B 9867   9.006   7.417   6.858 -0.4129 -0.1290 -0.2744
  705POPI   C2B 9868   9.336   7.350   7.062 -0.2652  0.1662  0.1873
  705POPI   C3B 9869   9.742   7.433   7.257 -0.3216 -0.0176  0.0570
  705POPI   C4B 9870   9.855   7.411   7.707 -0.0804 -0.0388 -0.0315
  706POPI    C1 9871   3.689   3.085   5.655 -0.1952 -0.2587 -0.2211
  706POPI    C2 9872   3.336   3.121   5.839  0.0802  0.0176  0.2733
  706POPI    C3 9873   3.459   3.404   5.585 -0.0955 -0.1323  0.0168
  706POPI   PO4 9874   3.807   2.977   5.823  0.0390  0.0314  0.1771
  706POPI   GL1 9875   3.647   2.880   6.236  0.1196  0.0958  0.0145
  706POPI   GL2 9876   3.755   2.521   6.295  0.0600 -0.2172 -0.2189
  706POPI   C1A 9877   3.576   3.197   6.511  0.0105  0.1169 -0.1333
  706POPI   D2A 9878   3.555   3.329   6.987 -0.1036  0.0638 -0.1002
  706POPI   C3A 9879   3.531   3.185   7.380 -0.1058  0.3088 -0.1607
  706POPI   C4A 9880   3.189   2.880   7.599 -0.0263 -0.1008 -0.1962
  706POPI   C1B 9881   3.663   2.402   6.631 -0.0158 -0.0009 -0.2034
  706POPI   C2B 9882   3.554   2.240   7.045  0.2069 -0.0920 -0.0134
  706POPI   C3B 9883   3.388   2.168   7.379 -0.1550 -0.0557 -0.0710
  706POPI   C4B 9884   3.454   1.928   7.716  0.4435  0.0854 -0.1096
  707POPI    C1 9885  16.274  12.810   5.663  0.1638  0.0098  0.2756
  707POPI    C2 9886  16.022  12.500   5.681  0.1446  0.0128  0.0778
  707POPI    C3 9887  15.880  12.870   5.627  0.1654  0.0618  0.3411
  707POPI   PO4 9888  16.422  12.810   5.869 -0.0057 -0.0886 -0.1801
  707POPI   GL1 9889  16.289  12.605   6.269 -0.0971 -0.0717  0.0662
  707POPI   GL2 9890  15.915  12.527   6.334  0.1034  0.1406 -0.0471
  707POPI   C1A 9891  16.504  12.720   6.595 -0.2257  0.0451  0.4435
  707POPI   D2A 9892  16.810  13.018   6.809 -0.3300  0.0640  0.0934
  707POPI   C3A 9893  17.185  12.783   6.770  0.2744  0.0265  0.0120
  707POPI   C4A 9894  17.405  12.412   6.663 -0.0080 -0.1150  0.0792
  707POPI   C1B 9895  15.908  12.414   6.688 -0.0359 -0.1568 -0.4118
  707POPI   C2B 9896  15.683  12.310   7.130  0.1233  0.0280 -0.0660
  707POPI   C3B 9897  15.821  12.243   7.609 -0.3475 -0.2513  0.0213
  707POPI   C4B 9898  15.641  12.326   7.930 -0.1329  0.2023 -0.2050
  708POPI    C1 9899   2.861   3.040   5.457 -0.0219 -0.0156  0.0060
  708POPI    C2 9900   3.236   3.046   5.316 -0.0496 -0.0306 -0.0687
  708POPI    C3 9901   2.955   2.830   5.129 -0.0751 -0.0917  0.0391
  708POPI   PO4 9902   2.885   3.203   5.683  0.0967 -0.1655  0.2722
  708POPI   GL1 9903   3.013   3.553   5.928 -0.2098 -0.1101 -0.1308
  708POPI   GL2 9904   3.217   3.778   5.884 -0.1728 -0.2207  0.3594
  708POPI   C1A 9905   3.079   3.254   6.393  0.4328  0.1353  0.3974
  708POPI   D2A 9906   2.853   3.188   6.805  0.1306 -0.1156  0.0913
  708POPI   C3A 9907   2.999   3.185   7.225 -0.2659  0.0719 -0.0852
  708POPI   C4A 9908   2.902   3.253   7.704 -0.3682  0.0548 -0.1076
  708POPI   C1B 9909   3.335   3.687   6.284 -0.1726  0.1847 -0.2501
  708POPI   C2B 9910   3.265   3.699   6.740 -0.1170 -0.0448 -0.1086
  708POPI   C3B 9911   3.108   3.675   7.109 -0.1949 -0.1390  0.0780
  708POPI   C4B 9912   2.899   3.612   7.433 -0.1155 -0.1952  0.3421
  709POPI    C1 9913   4.730  10.704   5.440  0.1576 -0.0748  0.0878
  709POPI    C2 9914   5.027  10.457   5.542  0.1543 -0.0417  0.1780
  709POPI    C3 9915   4.787  10.365   5.236  0.1016 -0.1913  0.2633
  709POPI   PO4 9916   4.610  10.792   5.653  0.0944 -0.1502 -0.3096
  709POPI   GL1 9917   4.361  10.541   6.001  0.1696 -0.0463  0.1066
  709POPI   GL2 9918   4.054  10.339   5.935 -0.2401  0.3210  0.1076
  709POPI   C1A 9919   4.628  10.523   6.382 -0.3307  0.0366 -0.0453
  709POPI   D2A 9920   4.600  10.727   6.794 -0.1685 -0.1087  0.3249
  709POPI   C3A 9921   4.725  10.675   7.160 -0.0769  0.3089 -0.0658
  709POPI   C4A 9922   4.640  11.007   7.523 -0.1738 -0.0452  0.2750
  709POPI   C1B 9923   3.996  10.197   6.455 -0.0494 -0.0584 -0.0526
  709POPI   C2B 9924   4.083  10.007   6.897  0.0168  0.0446 -0.0779
  709POPI   C3B 9925   3.919   9.844   7.200 -0.0636 -0.3262  0.0264
  709POPI   C4B 9926   3.871   9.687   7.636  0.0310 -0.2308 -0.0454
  710POPI    C1 9927  16.894   9.745   5.741  0.0718 -0.0190 -0.0684
  710POPI    C2 9928  17.020  10.065   5.537  0.0779  0.1024  0.1233
  710POPI    C3 9929  16.907  10.103   5.919 -0.1475 -0.0812  0.0771
  710POPI   PO4 9930  17.076   9.627   5.731  0.0206 -0.1632  0.0743
  710POPI   GL1 9931  17.320   9.562   6.113 -0.3875  0.3404  0.1220
  710POPI   GL2 9932  17.213   9.850   6.304  0.0733 -0.0318 -0.0417
  710POPI   C1A 9933  17.518   9.358   6.494 -0.0233  0.1899  0.2055
  710POPI   D2A 9934  17.458   9.347   6.983  0.3958 -0.3386  0.1025
  710POPI   C3A 9935  17.727   9.225   7.268 -0.0684  0.0765 -0.0340
  710POPI   C4A 9936  17.819   9.067   7.630  0.5001  0.1005  0.2121
  710POPI   C1B 9937  17.062   9.553   6.525 -0.3477  0.2940 -0.2284
  710POPI   C2B 9938  16.997   9.314   6.777 -0.2778 -0.1418  0.0532
  710POPI   C3B 9939  16.905   9.210   7.184 -0.2748  0.0856  0.3318
  710POPI   C4B 9940  17.260   9.109   7.433  0.1580  0.0821  0.1380
  711POPI    C1 9941  15.059   8.159   5.383  0.1413 -0.1403  0.2864
  711POPI    C2 9942  15.001   8.227   4.993  0.0654  0.2082  0.3556
  711POPI    C3 9943  15.329   8.033   5.116  0.0213 -0.0270  0.1098
  711POPI   PO4 9944  14.799   8.274   5.478  0.0202 -0.1744  0.0823
  711POPI   GL1 9945  14.648   8.367   5.794  0.1794  0.2012  0.1848
  711POPI   GL2 9946  14.532   8.387   5.953 -0.0429  0.0282  0.0942
  711POPI   C1A 9947  14.972   8.598   6.194 -0.1532  0.0886 -0.2140
  711POPI   D2A 9948  15.028   8.863   6.398 -0.0136 -0.0932  0.0302
  711POPI   C3A 9949  15.059   8.732   6.801 -0.0246 -0.0469  0.0379
  711POPI   C4A 9950  14.863   8.668   7.220  0.1229  0.1160  0.0134
  711POPI   C1B 9951  14.717   8.157   6.257 -0.0795  0.1576 -0.3425
  711POPI   C2B 9952  14.920   8.220   6.686  0.1915  0.3282  0.1962
  711POPI   C3B 9953  15.134   8.250   7.112  0.0076  0.1619  0.3454
  711POPI   C4B 9954  15.248   8.300   7.532 -0.1793 -0.1774  0.0738
  712POPI    C1 9955   0.823  12.574   5.979  0.0307 -0.0335 -0.0784
  712POPI    C2 9956   0.888  12.615   5.587  0.3345 -0.0866 -0.0357
  712POPI    C3 9957   1.012  12.286   5.777  0.0878 -0.1120  0.0853
  712POPI   PO4 9958   0.984  12.789   6.083  0.3088  0.0555 -0.0297
  712POPI   GL1 9959   1.194  12.850   6.381 -0.0123 -0.2051  0.3104
  712POPI   GL2 9960   0.842  12.824   6.557 -0.1149 -0.3207 -0.0548
  712POPI   C1A 9961   1.388  13.046   6.649  0.1695 -0.1506  0.1345
  712POPI   D2A 9962   1.426  13.067   7.095  0.0677  0.1134  0.2986
  712POPI   C3A 9963   1.718  12.825   7.319 -0.1503  0.0076 -0.1062
  712POPI   C4A 9964   1.919  12.646   7.719  0.0153 -0.3005  0.1796
  712POPI   C1B 9965   0.918  13.039   6.921 -0.1322  0.1473 -0.3184
  712POPI   C2B 9966   0.904  13.053   7.387 -0.0952  0.0547 -0.1675
  712POPI   C3B 9967   0.726  13.242   7.708 -0.2382  0.0072 -0.0758
  712POPI   C4B 9968   0.663  13.325   8.200 -0.3604  0.2431 -0.0080
  713POPI    C1 9969   6.962  11.689   5.967  0.1049  0.1044  0.0433
  713POPI    C2 9970   7.328  11.768   6.108  0.0509  0.1772  0.1439
  713POPI    C3 9971   7.194  11.391   6.099  0.1093  0.1562  0.1537
  713POPI   PO4 9972   6.834  11.876   6.068 -0.2634 -0.1135 -0.1455
  713POPI   GL1 9973   6.957  11.999   6.467 -0.1282 -0.1321 -0.1151
  713POPI   GL2 9974   7.017  11.664   6.519 -0.3220 -0.0670 -0.0086
  713POPI   C1A 9975   7.327  12.043   6.716  0.2516 -0.0882 -0.2055
  713POPI   D2A 9976   7.450  12.072   7.107 -0.3319 -0.0719 -0.1746
  713POPI   C3A 9977   7.513  12.173   7.520  0.1762 -0.1960  0.0435
  713POPI   C4A 9978   7.484  12.267   7.954  0.1448 -0.2123 -0.0942
  713POPI   C1B 9979   7.183  11.678   6.972 -0.0741  0.1742 -0.0671
  713POPI   C2B 9980   7.200  11.766   7.378 -0.1909  0.1099 -0.0996
  713POPI   C3B 9981   7.395  11.723   7.751  0.1780 -0.0216  0.2261
  713POPI   C4B 9982   7.265  11.750   8.105 -0.4795  0.2937  0.0968
  714POPI    C1 9983  12.892  13.216   5.826  0.2222  0.0648 -0.0882
  714POPI    C2 9984  12.746  13.579   5.745  0.1504  0.0366 -0.0861
  714POPI    C3 9985  12.500  13.264   5.765  0.1911  0.0137  0.0656
  714POPI   PO4 9986  13.114  13.255   5.964  0.1216  0.3611  0.0242
  714POPI   GL1 9987  13.207  13.054   6.312  0.0769 -0.0330 -0.0408
  714POPI   GL2 9988  13.020  12.938   6.455 -0.2179  0.0703  0.2412
  714POPI   C1A 9989  13.335  13.287   6.749  0.0930  0.2614 -0.0188
  714POPI   D2A 9990  13.530  13.494   7.054  0.2255  0.3875 -0.0656
  714POPI   C3A 9991  13.369  13.365   7.490 -0.5488  0.0572  0.0892
  714POPI   C4A 9992  13.406  13.311   7.909  0.0653 -0.1022 -0.0099
  714POPI   C1B 9993  12.960  12.453   6.690  0.0261  0.0179  0.0900
  714POPI   C2B 9994  13.033  12.222   7.077 -0.0749 -0.1006 -0.0175
  714POPI   C3B 9995  12.951  11.935   7.288  0.2029 -0.1363  0.0065
  714POPI   C4B 9996  12.620  11.955   7.578  0.2742  0.2671 -0.0880
  715POPI    C1 9997   7.573  11.093   5.555 -0.0577  0.0540  0.0101
  715POPI    C2 9998   7.809  10.991   5.861 -0.0608  0.2349  0.0743
  715POPI    C3 9999   7.865  10.825   5.501 -0.1222 -0.0557  0.1954
  715POPI   PO410000   7.317  11.037   5.691  0.3467 -0.0931 -0.1392
  715POPI   GL110001   7.419  10.792   6.103  0.2526  0.1343 -0.3631
  715POPI   GL210002   7.279  10.540   6.379 -0.0988  0.1078  0.1798
  715POPI   C1A10003   7.768  10.734   6.318 -0.1220  0.0426 -0.1102
  715POPI   D2A10004   7.893  10.825   6.761 -0.2058 -0.1483  0.0964
  715POPI   C3A10005   8.102  10.712   7.100 -0.0018  0.1103 -0.1070
  715POPI   C4A10006   8.320  10.434   7.387 -0.0390  0.3440 -0.2797
  715POPI   C1B10007   7.412  10.577   6.813 -0.0409 -0.1001  0.2593
  715POPI   C2B10008   7.652  10.522   7.133 -0.0530  0.1540 -0.1440
  715POPI   C3B10009   7.871  10.451   7.562 -0.0427  0.0013 -0.0383
  715POPI   C4B10010   7.667  10.218   7.884 -0.0772  0.0674  0.1423
  716POPI    C110011   5.827   5.255   5.705  0.2032 -0.3121  0.3448
  716POPI    C210012   6.120   5.508   5.802  0.0332 -0.0124  0.0962
  716POPI    C310013   6.187   5.218   5.536  0.1729 -0.1065  0.2321
  716POPI   PO410014   5.701   5.326   5.962  0.0748 -0.1559 -0.1388
  716POPI   GL110015   5.393   5.494   6.280 -0.0608  0.0332 -0.1180
  716POPI   GL210016   5.404   5.763   6.470 -0.1701  0.3217  0.1269
  716POPI   C1A10017   5.543   5.114   6.587  0.1939 -0.1095  0.0793
  716POPI   D2A10018   5.911   4.999   6.756  0.0101 -0.1455 -0.2020
  716POPI   C3A10019   6.201   5.001   7.105 -0.1251 -0.1825  0.1640
  716POPI   C4A10020   6.579   4.857   6.820 -0.2748  0.1102  0.2347
  716POPI   C1B10021   5.524   5.538   6.875  0.0236 -0.0443  0.2064
  716POPI   C2B10022   5.586   5.699   7.181  0.1970  0.0837 -0.0107
  716POPI   C3B10023   5.838   6.055   7.504  0.0911 -0.3459  0.0978
  716POPI   C4B10024   6.196   6.032   7.674 -0.2876  0.4942  0.3185
  717POPI    C110025   6.798  15.124   6.110  0.1390 -0.2178  0.0313
  717POPI    C210026   7.154  15.177   5.935  0.0902 -0.0890 -0.0303
  717POPI    C310027   6.952  14.836   5.878  0.0496 -0.0266 -0.2712
  717POPI   PO410028   6.811  15.138   6.531 -0.0948  0.0067  0.1685
  717POPI   GL110029   6.662  15.193   6.869  0.3669  0.2780 -0.1112
  717POPI   GL210030   6.516  15.507   6.963  0.0054 -0.1372  0.0778
  717POPI   C1A10031   6.504  15.035   7.212 -0.0293 -0.2362 -0.1145
  717POPI   D2A10032   6.432  14.667   7.473  0.1342 -0.1632 -0.0603
  717POPI   C3A10033   6.509  14.716   7.918  0.1624  0.0096  0.3202
  717POPI   C4A10034   6.522  14.466   8.364 -0.0267  0.2319  0.1587
  717POPI   C1B10035   6.284  15.573   7.301  0.0075 -0.1507  0.0151
  717POPI   C2B10036   6.205  15.737   7.618 -0.0213  0.0959  0.0644
  717POPI   C3B10037   6.231  16.033   7.930 -0.0880 -0.0289 -0.0868
  717POPI   C4B10038   6.176  16.226   8.352 -0.0599 -0.0249  0.0475
  718POPI    C110039  15.878   5.912   5.533 -0.3326 -0.3064  0.4118
  718POPI    C210040  15.961   5.542   5.405  0.0341 -0.0229 -0.2196
  718POPI    C310041  15.625   5.724   5.288  0.0835  0.0176 -0.2992
  718POPI   PO410042  16.046   5.885   5.847  0.3044  0.0552  0.0918
  718POPI   GL110043  15.960   6.140   6.223 -0.0627  0.0596  0.0399
  718POPI   GL210044  15.828   5.770   6.273  0.1312 -0.2238 -0.0196
  718POPI   C1A10045  15.937   6.325   6.629  0.0831  0.0603  0.0258
  718POPI   D2A10046  15.925   6.572   6.994 -0.0519 -0.0437  0.1271
  718POPI   C3A10047  15.855   6.494   7.320 -0.1400 -0.1594 -0.0445
  718POPI   C4A10048  15.990   6.329   7.676  0.1313 -0.2307 -0.0620
  718POPI   C1B10049  15.935   5.764   6.748 -0.1025 -0.1035  0.0824
  718POPI   C2B10050  15.860   5.560   7.030 -0.2013  0.1720 -0.1089
  718POPI   C3B10051  15.619   5.726   7.390 -0.0694  0.0815 -0.3812
  718POPI   C4B10052  15.276   5.774   7.674 -0.1534 -0.0930  0.0784
  719POPI    C110053   9.046  17.667   6.090 -0.0235 -0.0251 -0.1251
  719POPI    C210054   8.826  18.001   6.086 -0.1263 -0.0923 -0.1120
  719POPI    C310055   9.073  17.921   5.782 -0.1591 -0.0427 -0.1518
  719POPI   PO410056   9.135  17.609   6.313  0.0684  0.3149  0.0759
  719POPI   GL110057   8.983  17.643   6.716  0.3681  0.0788 -0.0914
  719POPI   GL210058   8.814  17.682   7.034 -0.0467  0.3580 -0.0643
  719POPI   C1A10059   9.043  17.219   6.887 -0.0302  0.2823 -0.2386
  719POPI   D2A10060   9.192  16.899   6.983 -0.1463 -0.1529  0.3382
  719POPI   C3A10061   9.547  16.604   6.971 -0.0436 -0.1917 -0.2602
  719POPI   C4A10062   9.736  16.306   6.844  0.1075  0.0248 -0.0695
  719POPI   C1B10063   8.967  17.987   7.259  0.1195  0.0012  0.1860
  719POPI   C2B10064   8.944  18.179   7.711  0.3236 -0.0621  0.1055
  719POPI   C3B10065   8.721  18.172   8.054 -0.0060 -0.2632 -0.2372
  719POPI   C4B10066   8.475  17.750   8.071  0.2014  0.3943 -0.1355
  720POPI    C110067   4.004   8.124   5.632  0.0127  0.0078  0.0643
  720POPI    C210068   4.122   8.409   5.377 -0.2319  0.2251  0.1885
  720POPI    C310069   3.789   8.200   5.304 -0.0276 -0.0681  0.0730
  720POPI   PO410070   4.175   8.015   5.656  0.0681  0.0009 -0.6207
  720POPI   GL110071   4.427   7.934   6.018 -0.3715  0.1987  0.0026
  720POPI   GL210072   4.420   7.606   6.202  0.3088  0.1409  0.0028
  720POPI   C1A10073   4.516   8.029   6.454 -0.0744  0.0398 -0.0339
  720POPI   D2A10074   4.332   8.056   6.781  0.1893 -0.3269  0.0301
  720POPI   C3A10075   4.099   7.821   7.051  0.0133 -0.1126  0.1159
  720POPI   C4A10076   3.654   7.881   7.075  0.5399  0.0844 -0.1739
  720POPI   C1B10077   4.335   7.338   6.522 -0.2945  0.0796 -0.0151
  720POPI   C2B10078   4.205   7.236   6.960  0.2288  0.2672 -0.0748
  720POPI   C3B10079   3.952   7.446   7.308  0.0609  0.1895  0.1087
  720POPI   C4B10080   3.823   7.761   7.575  0.1997 -0.1906 -0.1003
  721POPI    C110081   8.267   3.090   6.191 -0.0995 -0.0008  0.0963
  721POPI    C210082   7.935   2.882   6.276  0.0798 -0.3013  0.0766
  721POPI    C310083   8.011   2.993   5.899 -0.0041 -0.2195  0.0833
  721POPI   PO410084   8.292   3.268   6.361 -0.0909 -0.1532  0.2011
  721POPI   GL110085   8.049   3.359   6.648  0.0300 -0.0905  0.1782
  721POPI   GL210086   7.997   3.108   6.767 -0.3075 -0.1752  0.1366
  721POPI   C1A10087   7.846   3.573   6.995  0.1860  0.2346  0.1160
  721POPI   D2A10088   7.671   3.886   7.285 -0.3046  0.2195  0.0923
  721POPI   C3A10089   7.682   3.931   7.723  0.1351  0.1486  0.1881
  721POPI   C4A10090   7.714   3.793   8.219 -0.0191 -0.2614  0.1773
  721POPI   C1B10091   7.798   3.040   7.131 -0.1480  0.0820 -0.1361
  721POPI   C2B10092   7.856   3.010   7.509 -0.2317 -0.0165  0.0270
  721POPI   C3B10093   7.755   3.164   7.902  0.1854  0.0929  0.0135
  721POPI   C4B10094   7.609   3.230   8.326 -0.4061  0.0598  0.3496
  722POPI    C110095   6.468   4.594   5.555  0.2692  0.1532 -0.1921
  722POPI    C210096   6.344   4.821   5.250 -0.2446 -0.0598 -0.1532
  722POPI    C310097   6.238   4.436   5.267  0.2579 -0.1981  0.0039
  722POPI   PO410098   6.470   4.723   5.724 -0.0432 -0.1417 -0.0593
  722POPI   GL110099   6.562   4.818   6.129 -0.0400 -0.0286 -0.0243
  722POPI   GL210100   6.841   4.919   5.992  0.5036  0.0497 -0.0075
  722POPI   C1A10101   6.384   5.170   6.464 -0.2758 -0.0802 -0.0551
  722POPI   D2A10102   6.545   5.348   6.865  0.3575 -0.1945  0.1046
  722POPI   C3A10103   6.522   5.239   7.355  0.1720 -0.3029  0.0971
  722POPI   C4A10104   6.189   5.034   7.580 -0.1829 -0.4974 -0.2549
  722POPI   C1B10105   6.916   5.067   6.435 -0.0927 -0.1651 -0.1611
  722POPI   C2B10106   7.114   5.318   6.693 -0.1539  0.0846  0.1728
  722POPI   C3B10107   7.102   5.791   6.886 -0.0399 -0.5850  0.0992
  722POPI   C4B10108   6.891   6.147   7.089 -0.1793 -0.4158  0.0090
  723POPI    C110109   6.328  13.781   6.187 -0.3797  0.1781  0.0781
  723POPI    C210110   6.179  13.703   5.824 -0.3086  0.1606  0.0526
  723POPI    C310111   6.528  13.895   5.860 -0.2336  0.0153  0.1092
  723POPI   PO410112   6.123  13.876   6.286 -0.2695 -0.1455  0.0628
  723POPI   GL110113   6.155  13.642   6.656  0.4002  0.1634  0.0208
  723POPI   GL210114   6.059  13.383   6.752 -0.0896  0.0441 -0.1308
  723POPI   C1A10115   6.119  13.997   7.085  0.0310  0.3569 -0.1423
  723POPI   D2A10116   6.094  14.274   7.447  0.0849 -0.2920 -0.3465
  723POPI   C3A10117   6.288  14.258   7.737  0.3288 -0.1586 -0.1406
  723POPI   C4A10118   6.254  14.083   8.209 -0.3334  0.0919  0.0320
  723POPI   C1B10119   6.157  13.502   7.141 -0.0908  0.1199  0.0514
  723POPI   C2B10120   6.265  13.774   7.517  0.3142 -0.0108 -0.1179
  723POPI   C3B10121   6.534  13.774   7.754 -0.1481 -0.1786  0.1615
  723POPI   C4B10122   6.669  13.601   8.049 -0.3284 -0.0910 -0.1997
  724POPI    C110123  16.017  14.923   6.173  0.0400  0.2018  0.0618
  724POPI    C210124  16.049  15.317   6.111 -0.0123  0.2026  0.0385
  724POPI    C310125  15.717  15.124   6.000 -0.0183  0.1654  0.1202
  724POPI   PO410126  16.107  14.951   6.467  0.0162  0.1181 -0.1618
  724POPI   GL110127  15.895  14.903   6.841 -0.1610 -0.0326 -0.1213
  724POPI   GL210128  15.839  15.230   7.034 -0.1107  0.3079 -0.0088
  724POPI   C1A10129  16.200  14.580   7.147  0.0150 -0.0216 -0.1467
  724POPI   D2A10130  16.495  14.373   7.451  0.1324  0.2093 -0.0476
  724POPI   C3A10131  16.394  14.272   7.897  0.2926 -0.0170 -0.0330
  724POPI   C4A10132  16.603  14.114   8.313 -0.2408 -0.2096 -0.1730
  724POPI   C1B10133  15.793  15.387   7.417  0.1083  0.0324 -0.0008
  724POPI   C2B10134  15.734  15.549   7.821 -0.1136  0.1621  0.4305
  724POPI   C3B10135  15.782  15.486   8.208  0.2902  0.0108 -0.1018
  724POPI   C4B10136  15.603  15.020   8.241  0.1289 -0.1173 -0.0418
  725POPI    C110137  15.630   0.460   5.636  0.1707 -0.0064  0.1214
  725POPI    C210138  15.385   0.740   5.781  0.0403 -0.0691  0.0244
  725POPI    C310139  15.655   0.835   5.501 -0.0831 -0.0641 -0.0937
  725POPI   PO410140  15.672   0.320   5.954 -0.0177 -0.0193 -0.1960
  725POPI   GL110141  15.766   0.500   6.371  0.0629 -0.0074  0.0971
  725POPI   GL210142  15.904   0.782   6.459  0.2481  0.0190 -0.0399
  725POPI   C1A10143  16.044   0.318   6.734 -0.4688  0.0877  0.1519
  725POPI   D2A10144  16.204   0.096   7.070  0.1236  0.2403 -0.0522
  725POPI   C3A10145  16.387   0.151   7.407  0.0739  0.4111 -0.2074
  725POPI   C4A10146  16.372  -0.111   7.799  0.2144 -0.2083  0.1477
  725POPI   C1B10147  15.951   0.862   6.800 -0.1431  0.2151  0.2665
  725POPI   C2B10148  15.788   0.963   7.231  0.2362  0.3884  0.3182
  725POPI   C3B10149  15.765   0.863   7.619  0.1394  0.1656 -0.1294
  725POPI   C4B10150  15.750   0.616   8.002  0.0842 -0.1513  0.1228
  726POPI    C110151  15.220  16.137   6.277  0.0363  0.0578  0.0496
  726POPI    C210152  14.881  16.053   6.083  0.0531  0.1816 -0.0345
  726POPI    C310153  15.123  15.757   6.199 -0.1427  0.0848  0.1355
  726POPI   PO410154  15.108  16.370   6.430 -0.2284  0.2021 -0.2152
  726POPI   GL110155  14.926  16.459   6.823  0.1817  0.2855 -0.1426
  726POPI   GL210156  15.168  16.465   6.956 -0.0770 -0.0582 -0.1445
  726POPI   C1A10157  14.719  16.686   7.135  0.1995  0.0375  0.1894
  726POPI   D2A10158  14.731  16.887   7.537 -0.0412 -0.0807 -0.0839
  726POPI   C3A10159  14.729  16.678   7.939 -0.2800 -0.0768 -0.1213
  726POPI   C4A10160  14.722  16.514   8.406  0.4145  0.0319  0.2562
  726POPI   C1B10161  15.264  16.741   7.297  0.1199  0.1271  0.0620
  726POPI   C2B10162  15.188  16.735   7.781  0.0369 -0.0475  0.0197
  726POPI   C3B10163  15.164  16.696   8.192  0.0448  0.1915 -0.1262
  726POPI   C4B10164  15.181  16.520   8.567  0.1554  0.2856 -0.1792
  727POPI    C110165  12.287  16.481   6.178  0.3305 -0.2713  0.3335
  727POPI    C210166  12.508  16.414   5.851  0.1846 -0.1894  0.2170
  727POPI    C310167  12.145  16.248   5.885  0.0221  0.1418  0.1437
  727POPI   PO410168  12.407  16.417   6.362  0.1665 -0.2241  0.0660
  727POPI   GL110169  12.370  16.480   6.748 -0.2907 -0.0466  0.1165
  727POPI   GL210170  12.559  16.800   6.756 -0.0360 -0.0715  0.0378
  727POPI   C1A10171  12.262  16.475   7.167 -0.1299  0.0330 -0.0282
  727POPI   D2A10172  12.109  16.443   7.628 -0.1936  0.2825 -0.0469
  727POPI   C3A10173  12.329  16.713   7.973  0.1289  0.0845 -0.0428
  727POPI   C4A10174  12.221  16.777   8.412  0.0058  0.0615  0.0481
  727POPI   C1B10175  12.528  16.919   7.195 -0.2427  0.1045 -0.0711
  727POPI   C2B10176  12.658  17.099   7.584  0.0636 -0.0529  0.1119
  727POPI   C3B10177  13.014  17.157   8.015 -0.1518  0.1021  0.0735
  727POPI   C4B10178  13.037  16.962   8.314  0.0887 -0.1171 -0.0361
  728POPI    C110179   9.680   1.450   6.132  0.0792 -0.0125  0.0516
  728POPI    C210180  10.068   1.442   6.228  0.1072  0.0552 -0.0543
  728POPI    C310181   9.912   1.766   6.052 -0.0616  0.1438  0.2510
  728POPI   PO410182   9.569   1.371   6.350  0.0400 -0.0554 -0.1673
  728POPI   GL110183   9.448   1.529   6.766 -0.3706 -0.4176  0.1430
  728POPI   GL210184   9.681   1.546   6.972 -0.2269 -0.4040  0.4883
  728POPI   C1A10185   9.198   1.444   7.033 -0.1030 -0.4742  0.2304
  728POPI   D2A10186   8.942   1.487   7.369  0.2587 -0.3531  0.0996
  728POPI   C3A10187   9.082   1.436   7.794 -0.2112  0.1746  0.0293
  728POPI   C4A10188   9.056   1.410   8.223  0.0036  0.1519 -0.2141
  728POPI   C1B10189   9.798   1.754   7.335  0.0294  0.1568  0.0697
  728POPI   C2B10190  10.036   2.067   7.591  0.2234  0.0278 -0.1644
  728POPI   C3B10191  10.201   2.189   7.950  0.0463 -0.0135  0.0577
  728POPI   C4B10192   9.885   2.371   8.260  0.0347 -0.1238 -0.1877
  729POPI    C110193   1.314   1.730   5.686 -0.0301 -0.0032 -0.1091
  729POPI    C210194   1.371   1.637   5.301 -0.2513 -0.1230 -0.1150
  729POPI    C310195   1.371   2.020   5.416  0.1443 -0.0999 -0.1775
  729POPI   PO410196   1.498   1.595   5.801 -0.0075  0.1941 -0.3068
  729POPI   GL110197   1.743   1.792   6.110  0.0972  0.1250 -0.1294
  729POPI   GL210198   1.515   1.912   6.229  0.2181 -0.1937  0.3022
  729POPI   C1A10199   1.996   1.943   6.394  0.1362  0.0271  0.1316
  729POPI   D2A10200   2.452   2.014   6.551  0.2801  0.2269  0.2454
  729POPI   C3A10201   2.529   2.270   6.931  0.0809 -0.0804 -0.0028
  729POPI   C4A10202   2.361   2.418   7.362 -0.1132 -0.1490 -0.1218
  729POPI   C1B10203   1.509   2.125   6.578  0.0593 -0.0334 -0.0788
  729POPI   C2B10204   1.404   2.072   6.958 -0.1809  0.3790  0.0983
  729POPI   C3B10205   1.486   1.945   7.370 -0.0367 -0.0605 -0.0557
  729POPI   C4B10206   1.256   1.671   7.673 -0.2401 -0.2341  0.1109
  730POPI    C110207   4.372  12.441   5.760 -0.3094  0.0337  0.0355
  730POPI    C210208   4.301  12.145   5.501  0.4503 -0.0215 -0.1324
  730POPI    C310209   4.249  12.525   5.389  0.3252 -0.0606 -0.2089
  730POPI   PO410210   4.331  12.247   6.020 -0.3375 -0.2006  0.1100
  730POPI   GL110211   4.317  12.092   6.453  0.2274 -0.3706 -0.0745
  730POPI   GL210212   4.398  11.825   6.458  0.1341  0.1458 -0.1327
  730POPI   C1A10213   4.345  11.958   6.914  0.0509  0.2381  0.3542
  730POPI   D2A10214   4.560  12.046   7.250 -0.0885  0.0043 -0.5357
  730POPI   C3A10215   4.736  11.716   7.583 -0.1302 -0.6663 -0.2351
  730POPI   C4A10216   4.936  11.705   7.988 -0.0573 -0.1444 -0.0478
  730POPI   C1B10217   4.177  11.530   6.620  0.2993  0.1203 -0.1915
  730POPI   C2B10218   4.092  11.457   6.987  0.1971 -0.1988  0.1397
  730POPI   C3B10219   4.389  11.495   7.335 -0.0498  0.0761  0.0547
  730POPI   C4B10220   4.230  11.503   7.736 -0.0142 -0.0369  0.0715
  731POPI    C110221   3.071  15.275   6.133 -0.1642  0.3303 -0.2061
  731POPI    C210222   3.408  15.134   5.969 -0.1083  0.0349  0.1498
  731POPI    C310223   3.066  15.122   5.763 -0.0041 -0.1549 -0.0154
  731POPI   PO410224   3.106  15.178   6.330  0.1966 -0.0578 -0.2387
  731POPI   GL110225   3.124  15.076   6.779  0.0610  0.1837  0.0258
  731POPI   GL210226   3.416  14.994   6.913 -0.1274  0.0925 -0.0965
  731POPI   C1A10227   2.803  15.036   7.148 -0.2341 -0.0958  0.0969
  731POPI   D2A10228   2.653  14.771   7.386  0.2658 -0.1242  0.1098
  731POPI   C3A10229   2.610  14.720   7.810 -0.0206 -0.0399  0.5996
  731POPI   C4A10230   2.737  14.576   8.132 -0.3761 -0.1182 -0.1915
  731POPI   C1B10231   3.628  15.102   7.282  0.0648 -0.0120  0.1351
  731POPI   C2B10232   3.566  15.327   7.604 -0.0325  0.1640 -0.0159
  731POPI   C3B10233   3.488  15.427   8.029 -0.0304  0.1313  0.0936
  731POPI   C4B10234   3.653  15.600   8.445 -0.3073  0.0778  0.1535
  732POPI    C110235  16.957  14.743   6.416  0.0565 -0.1060  0.0053
  732POPI    C210236  17.244  14.917   6.199  0.0004 -0.1715 -0.1232
  732POPI    C310237  16.867  14.914   6.066 -0.1784  0.4445  0.3222
  732POPI   PO410238  16.982  14.934   6.702 -0.1748 -0.1469 -0.0514
  732POPI   GL110239  17.239  15.103   6.980 -0.0409  0.1557 -0.1483
  732POPI   GL210240  17.232  15.484   6.945  0.2163 -0.0398  0.3277
  732POPI   C1A10241  17.062  14.966   7.386 -0.1124  0.1253  0.1280
  732POPI   D2A10242  17.236  14.934   7.909  0.0919 -0.1828 -0.0855
  732POPI   C3A10243  17.340  14.514   7.902 -0.2164 -0.1649 -0.1654
  732POPI   C4A10244  17.229  14.245   8.119  0.1082  0.2039 -0.3245
  732POPI   C1B10245  17.303  15.427   7.380 -0.1975  0.1103 -0.2044
  732POPI   C2B10246  17.175  15.413   7.811 -0.1302  0.0418 -0.3019
  732POPI   C3B10247  17.169  15.403   8.190 -0.1261 -0.1884  0.0303
  732POPI   C4B10248  17.288  15.453   8.696  0.0010 -0.1204 -0.0059
  733POPI    C110249   5.850  14.042   5.870 -0.1094  0.0006 -0.0730
  733POPI    C210250   5.739  14.149   5.501 -0.2144 -0.0643 -0.0604
  733POPI    C310251   5.791  13.762   5.590 -0.1608 -0.0467 -0.0150
  733POPI   PO410252   5.696  14.193   6.065  0.2509 -0.1609  0.0722
  733POPI   GL110253   5.661  14.326   6.494 -0.5410 -0.2082 -0.1756
  733POPI   GL210254   6.031  14.201   6.627  0.0507  0.1603  0.2430
  733POPI   C1A10255   5.326  14.185   6.852 -0.2056 -0.2509  0.1357
  733POPI   D2A10256   5.141  14.092   7.175  0.0186 -0.0026  0.1035
  733POPI   C3A10257   5.174  14.066   7.540  0.3097  0.1133 -0.0268
  733POPI   C4A10258   5.278  14.005   7.921 -0.1005  0.3099 -0.0144
  733POPI   C1B10259   5.773  14.306   7.018 -0.0276 -0.2802  0.1842
  733POPI   C2B10260   5.569  14.417   7.436 -0.3115 -0.0091 -0.0121
  733POPI   C3B10261   5.670  14.487   7.930 -0.0151  0.2344 -0.1586
  733POPI   C4B10262   6.076  14.571   8.207  0.4974 -0.0382  0.1272
  734POPI    C110263   5.689   9.553   5.732  0.3659  0.0173  0.0853
  734POPI    C210264   5.726   9.464   5.343 -0.0449  0.0330  0.0387
  734POPI    C310265   5.622   9.834   5.455 -0.0051  0.0077  0.1606
  734POPI   PO410266   5.906   9.613   5.879 -0.1408 -0.0045 -0.0943
  734POPI   GL110267   6.088   9.640   6.325  0.2595  0.0268 -0.2273
  734POPI   GL210268   6.008   9.946   6.330  0.2467 -0.0006 -0.1926
  734POPI   C1A10269   6.225   9.573   6.776 -0.1114  0.1380  0.3933
  734POPI   D2A10270   6.447   9.499   7.100 -0.1132  0.0969 -0.0703
  734POPI   C3A10271   6.674   9.631   7.579 -0.1611  0.1566 -0.1264
  734POPI   C4A10272   6.952   9.262   7.818 -0.2046 -0.0533 -0.0093
  734POPI   C1B10273   6.006  10.030   6.787 -0.2153  0.1321 -0.2451
  734POPI   C2B10274   5.987  10.206   7.166  0.2470 -0.0358 -0.2632
  734POPI   C3B10275   6.131  10.282   7.514  0.0644  0.1676 -0.0888
  734POPI   C4B10276   6.285  10.385   7.943 -0.0416 -0.0661  0.0868
  735POPI    C110277   5.161   2.467   5.927  0.1274  0.0183  0.1901
  735POPI    C210278   5.043   2.240   5.620  0.0442 -0.0002  0.2353
  735POPI    C310279   5.432   2.308   5.681  0.0650 -0.0643  0.1744
  735POPI   PO410280   4.953   2.508   6.031 -0.2495 -0.1452 -0.3212
  735POPI   GL110281   4.987   2.314   6.492 -0.2484  0.0956  0.2579
  735POPI   GL210282   5.066   2.017   6.535  0.0527 -0.1568  0.0833
  735POPI   C1A10283   4.889   2.658   6.844 -0.0354 -0.0222  0.3298
  735POPI   D2A10284   4.833   2.880   7.204 -0.0728 -0.0826 -0.2312
  735POPI   C3A10285   4.936   2.762   7.580 -0.1181 -0.1831  0.0395
  735POPI   C4A10286   4.965   2.714   8.025 -0.2027 -0.0796 -0.0363
  735POPI   C1B10287   5.111   2.210   6.958 -0.0596 -0.1267  0.1484
  735POPI   C2B10288   5.154   2.247   7.501 -0.1756 -0.0299  0.2811
  735POPI   C3B10289   5.152   2.198   7.939 -0.0817  0.0994 -0.0759
  735POPI   C4B10290   5.359   2.411   8.257 -0.1724 -0.0275 -0.2159
  736POPI    C110291   5.121   7.966   5.551  0.2905 -0.1576  0.0577
  736POPI    C210292   5.039   8.327   5.398  0.2151 -0.0785  0.2808
  736POPI    C310293   5.324   8.100   5.233  0.0493 -0.0497 -0.0539
  736POPI   PO410294   5.083   8.036   5.817 -0.2366 -0.0122  0.0649
  736POPI   GL110295   4.823   8.243   6.157 -0.1238  0.2550  0.1965
  736POPI   GL210296   4.536   8.448   6.167 -0.1560  0.1174 -0.0233
  736POPI   C1A10297   4.977   8.185   6.576  0.1003  0.3569 -0.2558
  736POPI   D2A10298   4.827   8.194   6.920  0.0172  0.1437  0.1819
  736POPI   C3A10299   4.606   8.040   7.314 -0.1659 -0.0584 -0.2437
  736POPI   C4A10300   4.565   8.028   7.752  0.1940 -0.1086 -0.2641
  736POPI   C1B10301   4.444   8.508   6.514 -0.2299  0.1194 -0.0470
  736POPI   C2B10302   4.349   8.658   6.853 -0.3562 -0.1401 -0.0485
  736POPI   C3B10303   4.324   9.026   7.120 -0.0067  0.0935 -0.0945
  736POPI   C4B10304   4.311   9.262   7.544  0.2551  0.2977  0.2817
  737POPI    C110305   5.409  12.829   5.677 -0.0889  0.2335  0.1306
  737POPI    C210306   5.099  12.759   5.435 -0.0043 -0.1553  0.1284
  737POPI    C310307   5.452  12.867   5.282 -0.1086  0.1897  0.1242
  737POPI   PO410308   5.374  12.655   5.865  0.1774 -0.1987 -0.4564
  737POPI   GL110309   5.587  12.654   6.314  0.0258 -0.1509  0.0643
  737POPI   GL210310   5.333  12.460   6.295  0.1495  0.2227 -0.0641
  737POPI   C1A10311   5.435  12.728   6.728 -0.1519 -0.1125  0.2420
  737POPI   D2A10312   5.242  12.762   7.186 -0.0761  0.1350  0.2203
  737POPI   C3A10313   5.343  12.964   7.569 -0.1801 -0.0009  0.0033
  737POPI   C4A10314   5.009  13.230   7.912  0.1052  0.0369 -0.0859
  737POPI   C1B10315   5.121  12.334   6.752 -0.3985 -0.0677 -0.0300
  737POPI   C2B10316   5.026  12.260   7.155 -0.3532  0.3968  0.1680
  737POPI   C3B10317   4.860  12.201   7.579 -0.3011  0.0310  0.0783
  737POPI   C4B10318   5.112  12.262   7.857 -0.4046  0.0167 -0.2189
  738POPI    C110319   8.309   8.000   6.281 -0.2804 -0.1500 -0.0037
  738POPI    C210320   8.474   7.638   6.243  0.3184  0.1207 -0.0913
  738POPI    C310321   8.185   7.753   5.992  0.1769 -0.2625 -0.1117
  738POPI   PO410322   8.500   8.186   6.284 -0.1329 -0.2044  0.2197
  738POPI   GL110323   8.591   8.346   6.654  0.0301 -0.0292  0.0646
  738POPI   GL210324   8.402   8.144   6.788 -0.1070  0.1782  0.0452
  738POPI   C1A10325   8.507   8.695   6.838  0.0791  0.0287 -0.0678
  738POPI   D2A10326   8.477   9.067   6.693 -0.0212  0.0013  0.0467
  738POPI   C3A10327   8.517   9.513   6.840  0.0740 -0.0223 -0.2411
  738POPI   C4A10328   8.555   9.963   6.985 -0.2113  0.1831  0.0066
  738POPI   C1B10329   8.526   8.147   7.195 -0.1129  0.0105  0.0619
  738POPI   C2B10330   8.898   8.031   7.534  0.0618 -0.0054 -0.0312
  738POPI   C3B10331   9.243   8.101   7.771  0.1066 -0.1299 -0.0156
  738POPI   C4B10332   9.375   8.457   7.975 -0.2528 -0.0226  0.0694
  739POPI    C110333   2.757  16.910   6.397  0.1490 -0.2333 -0.1711
  739POPI    C210334   2.813  17.114   6.058 -0.1336  0.3020  0.0924
  739POPI    C310335   3.114  17.071   6.318  0.1093 -0.1859 -0.2543
  739POPI   PO410336   2.534  16.788   6.326 -0.3526  0.0196  0.0770
  739POPI   GL110337   2.204  16.841   6.533 -0.2691  0.3042  0.0163
  739POPI   GL210338   2.375  17.041   6.751 -0.2045  0.0192 -0.0755
  739POPI   C1A10339   2.225  16.663   7.063 -0.1860 -0.3442 -0.0316
  739POPI   D2A10340   2.436  16.571   7.348  0.3067 -0.0961  0.0390
  739POPI   C3A10341   2.332  16.854   7.606 -0.0132 -0.0557 -0.1441
  739POPI   C4A10342   2.155  16.826   8.139  0.3976  0.2091 -0.4455
  739POPI   C1B10343   2.418  17.209   7.181 -0.1136 -0.2994  0.0402
  739POPI   C2B10344   2.477  17.334   7.588  0.2669  0.0687 -0.1257
  739POPI   C3B10345   2.553  17.186   8.042  0.0060  0.1041 -0.0828
  739POPI   C4B10346   2.640  17.125   8.405 -0.1133  0.1869 -0.3381
  740POPI    C110347   3.756   1.434   5.682  0.2774  0.2138 -0.0745
  740POPI    C210348   4.155   1.438   5.711  0.2769 -0.2534  0.0649
  740POPI    C310349   3.975   1.185   5.459  0.0713  0.0776 -0.1276
  740POPI   PO410350   3.753   1.577   5.978 -0.4079 -0.1885  0.1187
  740POPI   GL110351   3.579   1.321   6.376  0.1972 -0.1945 -0.3184
  740POPI   GL210352   3.923   1.282   6.460 -0.2845 -0.4107 -0.1420
  740POPI   C1A10353   3.506   1.078   6.772 -0.3604 -0.1097  0.1619
  740POPI   D2A10354   3.558   1.123   7.213  0.1303 -0.0686 -0.0984
  740POPI   C3A10355   3.613   1.463   7.569  0.1431 -0.3470 -0.2913
  740POPI   C4A10356   3.921   1.642   7.808 -0.0437 -0.4439 -0.2181
  740POPI   C1B10357   3.826   1.501   6.905  0.2173 -0.1634  0.2040
  740POPI   C2B10358   3.886   1.837   7.340  0.4023 -0.0592  0.4024
  740POPI   C3B10359   3.852   2.186   7.600 -0.0750 -0.0076  0.0798
  740POPI   C4B10360   3.731   2.104   8.075 -0.1400  0.1040 -0.1922
  741POPI    C110361  10.520   9.290   5.885 -0.0342 -0.0045  0.1269
  741POPI    C210362  10.135   9.185   5.911 -0.0548 -0.0449 -0.2739
  741POPI    C310363  10.235   9.550   5.781  0.0391  0.0838  0.1462
  741POPI   PO410364  10.631   9.031   5.845 -0.1069 -0.0359  0.2460
  741POPI   GL110365  10.589   8.716   6.152  0.0224 -0.3659 -0.0231
  741POPI   GL210366  10.160   8.734   6.085 -0.1147  0.0369  0.0948
  741POPI   C1A10367  10.816   8.629   6.528 -0.1257  0.0504 -0.1976
  741POPI   D2A10368  11.010   8.538   6.843  0.0245  0.2105 -0.1190
  741POPI   C3A10369  10.824   8.464   7.370 -0.3890 -0.0892 -0.0643
  741POPI   C4A10370  10.550   8.195   7.550  0.0399 -0.3494 -0.0294
  741POPI   C1B10371  10.236   8.649   6.502 -0.4266  0.0332 -0.3010
  741POPI   C2B10372  10.038   8.536   6.822  0.1485  0.0423 -0.1362
  741POPI   C3B10373   9.802   8.656   7.257  0.1517  0.2913  0.1563
  741POPI   C4B10374   9.647   8.891   7.681  0.0091  0.0443  0.1855
  742POPS   CNO10375   3.692  16.461   5.857  0.2806  0.1774 -0.2076
  742POPS   PO410376   3.807  16.057   5.985  0.1323  0.1851 -0.3377
  742POPS   GL110377   3.876  15.995   6.423 -0.0578  0.4465 -0.2137
  742POPS   GL210378   3.554  15.944   6.582  0.1696  0.4482  0.1941
  742POPS   C1A10379   4.058  15.806   6.776 -0.1008  0.0432  0.3283
  742POPS   D2A10380   4.183  15.598   7.273 -0.0456 -0.0565 -0.1195
  742POPS   C3A10381   4.019  15.280   7.390  0.0460 -0.0616 -0.0283
  742POPS   C4A10382   4.063  15.111   7.756 -0.1648 -0.1150 -0.1013
  742POPS   C1B10383   3.642  15.996   6.981  0.0829 -0.0428 -0.0693
  742POPS   C2B10384   3.535  16.190   7.358  0.1486  0.2881  0.2034
  742POPS   C3B10385   3.237  16.018   7.636 -0.6301 -0.0755 -0.2713
  742POPS   C4B10386   3.196  15.644   7.709 -0.2832 -0.0160  0.0093
  743POPS   CNO10387  17.174   0.952   6.010  0.2399  0.1960 -0.3804
  743POPS   PO410388  17.470   0.675   6.042  0.1639  0.1607  0.1113
  743POPS   GL110389  17.456   0.771   6.436 -0.1265 -0.0182 -0.2949
  743POPS   GL210390  17.734   0.690   6.461 -0.3287 -0.1675 -0.1102
  743POPS   C1A10391  17.225   0.910   6.809 -0.2038  0.1100 -0.3160
  743POPS   D2A10392  17.342   1.078   7.102 -0.0426 -0.0143 -0.0443
  743POPS   C3A10393  17.181   1.035   7.541  0.0674  0.0302  0.0312
  743POPS   C4A10394  17.020   1.027   7.953 -0.1478  0.1602  0.1352
  743POPS   C1B10395  17.650   0.683   6.936 -0.1639 -0.2571  0.1107
  743POPS   C2B10396  17.647   0.867   7.390  0.3573  0.1281  0.0871
  743POPS   C3B10397  17.550   0.787   7.830  0.0783 -0.2035  0.0688
  743POPS   C4B10398  17.670   0.621   8.293  0.0515 -0.0953 -0.2102
  744POPS   CNO10399   1.234   8.796   5.723  0.1022 -0.1241 -0.1591
  744POPS   PO410400   1.580   9.116   5.675  0.3887 -0.3985  0.3271
  744POPS   GL110401   1.721   9.130   6.087 -0.1317  0.0399 -0.1505
  744POPS   GL210402   1.718   9.414   6.128  0.2103 -0.0834  0.0274
  744POPS   C1A10403   1.703   8.843   6.453  0.0878  0.0322 -0.0552
  744POPS   D2A10404   1.507   8.592   6.719  0.0956  0.3275 -0.2199
  744POPS   C3A10405   1.707   8.352   7.002  0.2360  0.1429 -0.0496
  744POPS   C4A10406   1.678   8.142   7.492  0.0494  0.0761 -0.1351
  744POPS   C1B10407   1.752   9.336   6.594  0.0767 -0.0543  0.1962
  744POPS   C2B10408   1.621   9.622   6.983  0.1558  0.0765 -0.1260
  744POPS   C3B10409   1.285   9.517   7.252 -0.0486 -0.0792 -0.1789
  744POPS   C4B10410   1.309   9.065   7.380  0.2281 -0.2969 -0.0407
  745POPS   CNO10411   6.647  16.886   6.633  0.2513  0.1314  0.1238
  745POPS   PO410412   7.009  16.706   6.422  0.1325  0.0203 -0.1666
  745POPS   GL110413   7.280  16.785   6.671  0.2710 -0.2760  0.1886
  745POPS   GL210414   7.598  16.656   6.723 -0.0266  0.0567  0.0869
  745POPS   C1A10415   7.242  16.706   7.101  0.0261 -0.0672  0.1004
  745POPS   D2A10416   7.311  16.813   7.518  0.0423  0.2838 -0.1486
  745POPS   C3A10417   7.322  16.593   7.856  0.0329  0.1083 -0.0403
  745POPS   C4A10418   7.380  16.329   8.266  0.0530 -0.0218 -0.1172
  745POPS   C1B10419   7.718  16.865   7.134 -0.0296  0.0207 -0.1027
  745POPS   C2B10420   7.830  17.170   7.365  0.1938 -0.1411 -0.2986
  745POPS   C3B10421   7.624  17.418   7.661  0.1463  0.0511  0.0698
  745POPS   C4B10422   7.616  17.419   8.114  0.0117  0.2267  0.0989
  746POPS   CNO10423   1.620  12.947   6.092 -0.2378 -0.1864  0.1526
  746POPS   PO410424   1.666  13.378   5.888 -0.2593  0.3010 -0.0549
  746POPS   GL110425   1.795  13.403   6.376 -0.0980 -0.0556 -0.0671
  746POPS   GL210426   1.862  13.049   6.530  0.1659  0.1983 -0.2244
  746POPS   C1A10427   1.686  13.440   6.818 -0.0706 -0.0079 -0.3821
  746POPS   D2A10428   1.635  13.557   7.299  0.1895  0.1592 -0.1351
  746POPS   C3A10429   1.624  13.278   7.602 -0.0014  0.0913 -0.0696
  746POPS   C4A10430   1.357  13.238   8.067  0.0921 -0.1383 -0.0512
  746POPS   C1B10431   2.073  12.835   6.847 -0.0261 -0.2312 -0.4645
  746POPS   C2B10432   2.196  12.649   7.300  0.2759 -0.1529 -0.0214
  746POPS   C3B10433   2.492  12.435   7.659 -0.2964 -0.0911  0.4239
  746POPS   C4B10434   2.662  12.387   7.991 -0.0222  0.0898  0.0372
  747POPS   CNO10435   4.631  12.846   5.608  0.1740 -0.0458  0.1503
  747POPS   PO410436   4.495  12.909   5.985 -0.1948 -0.2515 -0.0439
  747POPS   GL110437   4.589  12.893   6.351 -0.0298 -0.0797 -0.0735
  747POPS   GL210438   4.558  12.520   6.375  0.3766  0.3895 -0.1129
  747POPS   C1A10439   4.372  12.966   6.609  0.1534 -0.0367  0.1079
  747POPS   D2A10440   4.235  12.976   7.010 -0.0361  0.1211  0.2102
  747POPS   C3A10441   4.146  12.907   7.447 -0.1887 -0.1747  0.3358
  747POPS   C4A10442   4.026  13.132   7.814  0.1296  0.0165  0.1735
  747POPS   C1B10443   4.595  12.450   6.832  0.1219  0.2559  0.1298
  747POPS   C2B10444   4.679  12.687   7.163  0.0547  0.0182 -0.1658
  747POPS   C3B10445   4.911  12.648   7.552  0.0359 -0.0200 -0.1199
  747POPS   C4B10446   5.014  12.733   7.974 -0.2078  0.0636 -0.2791
  748POPS   CNO10447   5.935  10.912   5.964  0.2532 -0.0988  0.0272
  748POPS   PO410448   6.257  10.512   6.110 -0.1443 -0.0775 -0.0617
  748POPS   GL110449   6.089  10.700   6.489 -0.2043  0.0381 -0.1012
  748POPS   GL210450   5.874  10.988   6.441 -0.1864 -0.0468 -0.3803
  748POPS   C1A10451   5.936  10.722   6.902 -0.3200 -0.0258  0.3061
  748POPS   D2A10452   5.786  10.719   7.283 -0.1665  0.1643  0.0580
  748POPS   C3A10453   5.873  10.685   7.664 -0.3568 -0.0671 -0.2109
  748POPS   C4A10454   6.006  10.797   8.050 -0.1937 -0.1591  0.1223
  748POPS   C1B10455   5.779  11.229   6.789 -0.0015  0.0314 -0.0814
  748POPS   C2B10456   5.715  11.187   7.219 -0.1949 -0.0858  0.1514
  748POPS   C3B10457   5.487  11.399   7.552  0.5141 -0.0623 -0.0983
  748POPS   C4B10458   5.415  11.473   7.929 -0.1491 -0.1434  0.2272
  749POPS   CNO10459   5.783  16.425   6.253  0.0745  0.3979  0.0794
  749POPS   PO410460   5.517  16.175   6.451 -0.0528  0.0336  0.2036
  749POPS   GL110461   5.481  16.155   6.810  0.2289 -0.0238  0.0804
  749POPS   GL210462   5.267  16.357   6.822  0.0759 -0.2049 -0.2486
  749POPS   C1A10463   5.377  16.138   7.340 -0.0295 -0.0955 -0.1661
  749POPS   D2A10464   5.258  16.093   7.799 -0.0474 -0.1944 -0.0486
  749POPS   C3A10465   5.538  15.872   7.975 -0.0131  0.1650 -0.0936
  749POPS   C4A10466   5.783  15.973   8.181  0.1710  0.0271  0.1092
  749POPS   C1B10467   5.120  15.881   6.997  0.0572  0.0439  0.0188
  749POPS   C2B10468   4.927  15.809   7.412 -0.3719 -0.2571  0.2425
  749POPS   C3B10469   4.555  15.800   7.510 -0.0533 -0.1636 -0.0793
  749POPS   C4B10470   4.256  15.592   7.845 -0.2166 -0.1131  0.1163
  750POPS   CNO10471   3.636  17.793   6.013  0.0248  0.2631  0.0010
  750POPS   PO410472   3.613  18.201   6.211 -0.3201 -0.0583 -0.0736
  750POPS   GL110473   3.335  18.283   6.624  0.2189 -0.0166  0.1384
  750POPS   GL210474   3.294  18.565   6.629  0.0190 -0.1318 -0.0353
  750POPS   C1A10475   2.978  18.030   6.746 -0.0633  0.1610  0.1006
  750POPS   D2A10476   2.827  17.898   7.137 -0.0024 -0.0259 -0.4427
  750POPS   C3A10477   2.401  17.733   7.284 -0.0159 -0.0091  0.0987
  750POPS   C4A10478   2.144  17.618   6.847 -0.2687 -0.1792 -0.1074
  750POPS   C1B10479   3.458  18.633   6.979 -0.0574  0.0708 -0.0420
  750POPS   C2B10480   3.501  18.583   7.418 -0.0405 -0.1827  0.2618
  750POPS   C3B10481   3.422  18.424   7.848  0.1913  0.1337 -0.0575
  750POPS   C4B10482   3.643  18.082   8.210 -0.0244 -0.3080 -0.2450
  751POPS   CNO10483   7.079  12.868   5.329 -0.0083  0.0813 -0.0811
  751POPS   PO410484   6.889  12.768   5.844 -0.5557 -0.0893  0.1718
  751POPS   GL110485   6.847  12.641   6.290  0.1126 -0.0153 -0.2812
  751POPS   GL210486   6.696  12.908   6.510 -0.0055  0.3128 -0.0766
  751POPS   C1A10487   7.020  12.440   6.604  0.0576  0.1559  0.0884
  751POPS   D2A10488   7.307  12.525   6.921  0.0455  0.1357 -0.1179
  751POPS   C3A10489   7.527  12.613   7.277 -0.1285  0.1197  0.0785
  751POPS   C4A10490   7.809  12.939   7.469 -0.1219 -0.2373  0.0582
  751POPS   C1B10491   6.432  13.036   6.846  0.1435  0.0710 -0.0716
  751POPS   C2B10492   6.248  12.962   7.220 -0.1336  0.0573  0.0503
  751POPS   C3B10493   6.318  12.726   7.555 -0.1713  0.1938  0.2405
  751POPS   C4B10494   6.275  12.550   8.078  0.0405 -0.1266  0.2542
  752POPS   CNO10495   7.511  12.938   5.589 -0.1953  0.2074  0.0982
  752POPS   PO410496   7.695  12.621   5.905 -0.1493  0.1761  0.1276
  752POPS   GL110497   7.755  12.817   6.266  0.2191  0.0088  0.0809
  752POPS   GL210498   7.944  13.057   6.509 -0.0799  0.1331  0.1284
  752POPS   C1A10499   7.797  12.683   6.813 -0.0744  0.1495  0.1846
  752POPS   D2A10500   8.083  12.564   7.187  0.2035  0.2123  0.0772
  752POPS   C3A10501   8.017  12.410   7.557  0.0845 -0.0732  0.0857
  752POPS   C4A10502   8.089  12.345   7.940  0.0975  0.1925  0.0180
  752POPS   C1B10503   8.075  13.203   6.953 -0.1048 -0.0532  0.0367
  752POPS   C2B10504   8.239  13.206   7.363  0.0778  0.3864 -0.1628
  752POPS   C3B10505   8.072  13.489   7.687  0.1499 -0.2568 -0.1586
  752POPS   C4B10506   8.109  13.552   8.126  0.2500 -0.3998 -0.1133
  753POPS   CNO10507  13.112  12.726   5.924  0.0447 -0.0251  0.0613
  753POPS   PO410508  12.665  12.757   5.854 -0.1343  0.2290  0.0448
  753POPS   GL110509  12.558  12.574   6.293 -0.1375 -0.0254 -0.3994
  753POPS   GL210510  12.547  12.725   6.591 -0.0091 -0.0970 -0.1596
  753POPS   C1A10511  12.456  12.121   6.269 -0.1150  0.0848  0.0162
  753POPS   D2A10512  12.333  11.751   6.595 -0.0603 -0.2420  0.2935
  753POPS   C3A10513  12.470  11.724   6.932 -0.2657 -0.1429 -0.1431
  753POPS   C4A10514  12.528  11.985   7.077 -0.0209  0.0645  0.2806
  753POPS   C1B10515  12.639  12.613   6.969  0.1761 -0.0130  0.2391
  753POPS   C2B10516  12.722  12.474   7.320  0.2603  0.0643 -0.0079
  753POPS   C3B10517  12.992  12.409   7.563  0.0140 -0.0409  0.0900
  753POPS   C4B10518  13.024  12.110   7.885 -0.2411 -0.1236  0.2645
  754POPS   CNO10519  15.750  17.052   6.401 -0.2336 -0.0580  0.0028
  754POPS   PO410520  15.594  17.307   6.695 -0.0935  0.1370  0.1722
  754POPS   GL110521  15.446  17.258   7.086  0.0666  0.0425 -0.0525
  754POPS   GL210522  15.032  17.081   7.062  0.1942 -0.0577  0.2123
  754POPS   C1A10523  15.562  17.525   7.481  0.1171  0.0256  0.0405
  754POPS   D2A10524  15.534  17.909   7.635 -0.1071  0.1228  0.2833
  754POPS   C3A10525  15.554  18.112   8.003  0.1069  0.0907 -0.0504
  754POPS   C4A10526  15.257  18.349   8.165  0.1369 -0.0320  0.1951
  754POPS   C1B10527  15.096  17.244   7.502 -0.1981 -0.0424  0.0919
  754POPS   C2B10528  14.943  17.155   7.961 -0.2385  0.2520  0.1026
  754POPS   C3B10529  14.872  17.543   8.216 -0.1611 -0.2229 -0.0052
  754POPS   C4B10530  14.518  17.750   8.186 -0.1388 -0.1920  0.0674
  755POPS   CNO10531   7.015  16.206   6.418 -0.0222 -0.1617 -0.0701
  755POPS   PO410532   7.388  16.358   6.324 -0.1569 -0.1137  0.3660
  755POPS   GL110533   7.621  16.039   6.533  0.0396  0.0052 -0.0181
  755POPS   GL210534   7.358  15.804   6.713 -0.0150 -0.0160  0.2071
  755POPS   C1A10535   7.782  15.878   7.021 -0.0306  0.0187 -0.1481
  755POPS   D2A10536   7.641  15.786   7.410  0.3507  0.1553  0.2134
  755POPS   C3A10537   7.750  16.049   7.725  0.1496 -0.0846  0.2161
  755POPS   C4A10538   8.080  16.131   8.031  0.0578  0.0189  0.2300
  755POPS   C1B10539   7.334  16.211   7.008  0.0861 -0.1191 -0.0628
  755POPS   C2B10540   7.319  16.188   7.494 -0.0975 -0.3573 -0.0423
  755POPS   C3B10541   7.143  15.980   7.852 -0.0640  0.2001 -0.0147
  755POPS   C4B10542   7.064  15.862   8.335  0.3684 -0.0024  0.2131
  756POPS   CNO10543   7.102   6.934   6.092 -0.4416 -0.0155  0.1533
  756POPS   PO410544   6.800   7.089   5.776  0.2178 -0.1637  0.1380
  756POPS   GL110545   6.587   7.104   6.115  0.1478 -0.0794 -0.0397
  756POPS   GL210546   6.679   7.217   6.376 -0.0620 -0.1240 -0.2522
  756POPS   C1A10547   6.194   7.223   6.302  0.1803 -0.0226 -0.0669
  756POPS   D2A10548   5.772   7.474   6.314 -0.2025  0.2345 -0.0390
  756POPS   C3A10549   5.607   7.516   6.740 -0.1146  0.0592 -0.1545
  756POPS   C4A10550   5.682   7.638   7.139 -0.0242 -0.0141  0.3507
  756POPS   C1B10551   6.617   7.402   6.875 -0.5141  0.5044  0.1330
  756POPS   C2B10552   6.678   7.480   7.298 -0.1208  0.2021 -0.2902
  756POPS   C3B10553   6.675   7.403   7.692 -0.0717  0.1525  0.0801
  756POPS   C4B10554   6.724   7.224   8.155 -0.3720  0.0733 -0.1954
  757POPS   CNO10555  12.954   1.643   6.130 -0.1574 -0.1496 -0.0482
  757POPS   PO410556  12.623   1.810   6.325  0.2693 -0.2511  0.2422
  757POPS   GL110557  12.601   1.881   6.786  0.1233 -0.0857 -0.0843
  757POPS   GL210558  12.844   2.087   6.949 -0.1565 -0.2253 -0.0396
  757POPS   C1A10559  12.525   1.777   7.203 -0.1091  0.0615 -0.1649
  757POPS   D2A10560  12.424   1.909   7.579 -0.0699  0.2525 -0.0430
  757POPS   C3A10561  12.583   1.788   7.942  0.0344 -0.0706 -0.2284
  757POPS   C4A10562  12.532   1.313   8.047 -0.1174  0.0620 -0.0082
  757POPS   C1B10563  12.829   2.101   7.412 -0.2054 -0.1181 -0.1081
  757POPS   C2B10564  13.010   2.079   7.822  0.1654  0.0363  0.4125
  757POPS   C3B10565  13.318   2.226   8.145 -0.0997  0.0653  0.0714
  757POPS   C4B10566  13.565   2.481   8.210 -0.2493  0.1188  0.1640
  758POPS   CNO10567  13.219   6.306   5.982 -0.0849  0.0513  0.0771
  758POPS   PO410568  13.530   6.264   5.728 -0.2286 -0.4045  0.0907
  758POPS   GL110569  13.752   6.501   6.111  0.0730 -0.1698  0.1024
  758POPS   GL210570  13.501   6.463   6.371 -0.2259  0.1487  0.2481
  758POPS   C1A10571  13.895   6.563   6.657 -0.1514 -0.0032 -0.1104
  758POPS   D2A10572  14.000   6.830   6.932 -0.1126  0.0972  0.1204
  758POPS   C3A10573  14.219   7.088   7.219  0.1043 -0.3186 -0.1103
  758POPS   C4A10574  14.370   7.349   7.604  0.1704  0.0393 -0.3124
  758POPS   C1B10575  13.365   6.262   6.747  0.1187 -0.0816 -0.1966
  758POPS   C2B10576  13.324   6.228   7.222  0.1975 -0.2866  0.1966
  758POPS   C3B10577  13.201   5.934   7.478  0.0215  0.3962 -0.0608
  758POPS   C4B10578  12.989   5.595   7.737  0.2601 -0.2043  0.0578
  759POPS   CNO10579   7.506   9.629   6.392 -0.0428 -0.0860 -0.0342
  759POPS   PO410580   7.563   9.362   6.059 -0.1908  0.1581  0.1337
  759POPS   GL110581   7.365   9.135   6.344 -0.1254  0.1566 -0.0473
  759POPS   GL210582   7.004   9.318   6.358  0.1649 -0.1362  0.0874
  759POPS   C1A10583   7.071   8.862   6.558 -0.0134  0.0819 -0.1262
  759POPS   D2A10584   6.706   8.634   6.686  0.1916 -0.2094  0.0728
  759POPS   C3A10585   6.658   8.241   6.759  0.1528 -0.1011 -0.3441
  759POPS   C4A10586   6.399   7.963   6.735 -0.0397 -0.1606  0.1338
  759POPS   C1B10587   7.179   9.267   6.791 -0.1234 -0.3381 -0.2668
  759POPS   C2B10588   7.634   9.232   6.890  0.0432 -0.1190 -0.0992
  759POPS   C3B10589   7.932   9.040   6.959  0.1327 -0.1716 -0.0937
  759POPS   C4B10590   8.256   9.216   7.136  0.2064  0.2458  0.3989
  760POPS   CNO10591  17.956   2.419   5.509  0.0687 -0.2033  0.1466
  760POPS   PO410592  17.999   2.566   5.892 -0.0640 -0.3325  0.0661
  760POPS   GL110593  18.294   2.663   6.205  0.3757  0.1020 -0.0159
  760POPS   GL210594  18.207   2.552   6.448 -0.1469  0.0106 -0.0835
  760POPS   C1A10595  18.291   3.061   6.430 -0.0109  0.2562 -0.1251
  760POPS   D2A10596  18.460   3.079   6.828 -0.0093 -0.0790  0.0920
  760POPS   C3A10597  18.158   2.700   7.039 -0.1935  0.0346  0.4351
  760POPS   C4A10598  17.901   2.399   6.791 -0.1238 -0.2571 -0.0853
  760POPS   C1B10599  18.421   2.310   6.839 -0.1363  0.0076 -0.0854
  760POPS   C2B10600  18.558   2.367   7.264  0.2464 -0.1350  0.1510
  760POPS   C3B10601  18.561   2.289   7.680 -0.4743  0.1461  0.0328
  760POPS   C4B10602  18.715   2.573   8.023 -0.1337 -0.1144 -0.0376
  761POPS   CNO10603  15.898  10.462   5.373 -0.0375  0.1295  0.1352
  761POPS   PO410604  16.284  10.539   5.481 -0.0537 -0.0767  0.3132
  761POPS   GL110605  16.153  10.335   5.842 -0.0807  0.0131 -0.3260
  761POPS   GL210606  16.112  10.606   5.957  0.2154  0.1355 -0.0713
  761POPS   C1A10607  16.091   9.903   6.246 -0.0254 -0.1978 -0.1200
  761POPS   D2A10608  16.271   9.691   6.638 -0.1314 -0.0447 -0.0258
  761POPS   C3A10609  16.672   9.747   6.786  0.1399  0.0282 -0.1972
  761POPS   C4A10610  16.865  10.061   6.601  0.1267 -0.3799 -0.0097
  761POPS   C1B10611  16.147  10.403   6.412  0.1557  0.3403  0.0695
  761POPS   C2B10612  16.285  10.160   6.805 -0.0598 -0.0531  0.2373
  761POPS   C3B10613  16.272   9.790   7.150  0.6118  0.1749 -0.1181
  761POPS   C4B10614  16.218   9.578   7.528 -0.0102  0.3291  0.1486
  762POPS   CNO10615  15.994  11.070   6.169  0.0082  0.1246 -0.0494
  762POPS   PO410616  16.208  11.255   5.845  0.0944 -0.0595  0.1328
  762POPS   GL110617  16.396  11.361   6.253  0.0201  0.1989 -0.1992
  762POPS   GL210618  16.690  11.649   6.296 -0.2084 -0.0048 -0.1441
  762POPS   C1A10619  16.228  11.292   6.656  0.1771 -0.1476  0.0364
  762POPS   D2A10620  16.077  11.082   7.032 -0.0001  0.2087  0.0266
  762POPS   C3A10621  15.695  11.147   7.187 -0.1433  0.0652 -0.0250
  762POPS   C4A10622  15.343  11.335   7.030  0.0942 -0.1690  0.1314
  762POPS   C1B10623  16.620  11.630   6.671  0.2268 -0.0834 -0.2761
  762POPS   C2B10624  16.461  11.519   7.063 -0.0510  0.1376 -0.2388
  762POPS   C3B10625  16.575  11.550   7.464  0.0646  0.0238  0.3353
  762POPS   C4B10626  16.399  11.590   7.790 -0.1231  0.1749  0.0843
  763POPS   CNO10627  14.145   0.718   6.387  0.0552  0.3447  0.1202
  763POPS   PO410628  13.851   0.550   6.627  0.2773  0.2300  0.2116
  763POPS   GL110629  14.062   0.486   6.951  0.2507  0.1258 -0.0488
  763POPS   GL210630  14.185   0.093   6.971 -0.0464  0.0153  0.1114
  763POPS   C1A10631  14.249   0.465   7.351  0.0653  0.0045 -0.2385
  763POPS   D2A10632  14.451   0.488   7.787  0.1147  0.0151  0.0302
  763POPS   C3A10633  14.269   0.759   8.035  0.0884 -0.4686 -0.0381
  763POPS   C4A10634  13.861   0.874   8.155  0.0474 -0.1672  0.2724
  763POPS   C1B10635  13.891  -0.056   7.359 -0.1864  0.2077 -0.2350
  763POPS   C2B10636  13.487  -0.183   7.505 -0.0699  0.0366 -0.0386
  763POPS   C3B10637  13.207  -0.435   7.616 -0.1163 -0.3155  0.1051
  763POPS   C4B10638  13.240  -0.896   7.586 -0.1962 -0.0505 -0.1813
  764POPS   CNO10639   1.042  16.043   6.177  0.1827 -0.2744  0.3536
  764POPS   PO410640   0.600  15.895   6.430 -0.3963 -0.0520  0.1209
  764POPS   GL110641   0.671  15.949   6.864  0.0441  0.0049  0.0016
  764POPS   GL210642   0.639  16.209   7.162 -0.0897 -0.0183  0.2865
  764POPS   C1A10643   0.468  15.784   7.300  0.3771  0.0626  0.3612
  764POPS   D2A10644   0.529  15.748   7.755  0.1309  0.0879  0.1964
  764POPS   C3A10645   0.261  15.856   8.103  0.1677  0.0224  0.0803
  764POPS   C4A10646   0.278  15.846   8.549 -0.0603  0.0321 -0.1545
  764POPS   C1B10647   0.752  16.112   7.546 -0.2335  0.0196 -0.1775
  764POPS   C2B10648   1.040  16.032   7.896 -0.1219  0.0452 -0.2221
  764POPS   C3B10649   1.051  16.037   8.378  0.0466  0.0085 -0.1870
  764POPS   C4B10650   1.343  16.018   8.533 -0.1115 -0.1046  0.1789
  765POPS   CNO10651   4.507   2.303   5.851 -0.0738  0.3087  0.1452
  765POPS   PO410652   4.107   2.014   5.922 -0.0787 -0.1068  0.2890
  765POPS   GL110653   4.141   2.171   6.334  0.0739  0.1557  0.2272
  765POPS   GL210654   4.330   2.006   6.566  0.0912 -0.0889  0.1803
  765POPS   C1A10655   4.148   2.480   6.695  0.2191 -0.0318 -0.1982
  765POPS   D2A10656   4.416   2.711   6.992 -0.1207 -0.1708  0.1692
  765POPS   C3A10657   4.444   2.807   7.426  0.0684  0.0451 -0.1109
  765POPS   C4A10658   4.450   3.293   7.552 -0.2569  0.0067  0.1292
  765POPS   C1B10659   4.566   2.240   6.860  0.1254 -0.0219 -0.0560
  765POPS   C2B10660   4.726   2.420   7.292 -0.0229  0.1402  0.2155
  765POPS   C3B10661   4.676   2.270   7.794  0.0396 -0.0350  0.1519
  765POPS   C4B10662   4.670   2.390   8.179  0.0917  0.1523  0.0967
  766POPS   CNO10663   9.294  11.330   6.075  0.1911 -0.1514 -0.2291
  766POPS   PO410664   9.065  10.920   6.277  0.1057 -0.0613 -0.2180
  766POPS   GL110665   9.110  11.237   6.632 -0.1119 -0.2554  0.0056
  766POPS   GL210666   9.434  11.180   6.770 -0.1736  0.0946 -0.0056
  766POPS   C1A10667   9.049  11.411   7.052 -0.0063  0.1163 -0.1095
  766POPS   D2A10668   8.910  11.304   7.395 -0.3111 -0.1418 -0.0007
  766POPS   C3A10669   9.151  10.952   7.651  0.4385 -0.2587 -0.2271
  766POPS   C4A10670   9.406  11.050   8.036  0.1865 -0.0136  0.2464
  766POPS   C1B10671   9.460  10.991   7.139 -0.2214 -0.3374 -0.1836
  766POPS   C2B10672   9.628  10.919   7.572  0.1754  0.0516 -0.0954
  766POPS   C3B10673   9.948  10.913   7.908  0.1796 -0.0919  0.2765
  766POPS   C4B10674  10.463  10.760   7.968 -0.1613  0.0465  0.0591
  767POPS   CNO10675  16.792  14.322   6.091 -0.1105  0.0166  0.1045
  767POPS   PO410676  17.271  14.139   6.044  0.1550 -0.2590 -0.0094
  767POPS   GL110677  17.199  14.281   6.366 -0.1274  0.1078 -0.2156
  767POPS   GL210678  17.385  14.495   6.475  0.0348 -0.0568 -0.1910
  767POPS   C1A10679  16.866  14.365   6.647 -0.3579  0.1594 -0.0067
  767POPS   D2A10680  16.796  14.534   7.045 -0.0429 -0.2458  0.1446
  767POPS   C3A10681  16.597  14.893   7.252 -0.1555  0.1303  0.1736
  767POPS   C4A10682  16.262  15.137   7.253 -0.3000  0.1646  0.1909
  767POPS   C1B10683  17.304  14.478   7.003 -0.0911 -0.0089  0.0317
  767POPS   C2B10684  17.250  14.524   7.340 -0.3462  0.0553 -0.1932
  767POPS   C3B10685  16.896  14.559   7.702 -0.2251  0.0461 -0.2277
  767POPS   C4B10686  16.819  14.554   8.128  0.0032 -0.0183 -0.0723
  768POPS   CNO10687  16.596  12.318   5.450 -0.1313 -0.1330 -0.0328
  768POPS   PO410688  16.797  12.418   5.810  0.0321 -0.0709 -0.1841
  768POPS   GL110689  16.725  12.218   6.258 -0.0776 -0.1013 -0.0562
  768POPS   GL210690  16.925  12.526   6.391  0.0180 -0.2858  0.3615
  768POPS   C1A10691  16.961  12.075   6.593 -0.0362 -0.2055 -0.1155
  768POPS   D2A10692  17.174  12.139   6.999  0.0095  0.0157 -0.0659
  768POPS   C3A10693  17.034  12.103   7.389 -0.2913 -0.0478 -0.0441
  768POPS   C4A10694  17.019  11.751   7.592  0.3924  0.4208  0.2844
  768POPS   C1B10695  16.804  12.497   6.903 -0.2919  0.3302  0.1624
  768POPS   C2B10696  17.052  12.607   7.247  0.0742  0.2928 -0.1274
  768POPS   C3B10697  17.393  12.805   7.498  0.2669 -0.0854  0.0304
  768POPS   C4B10698  17.569  12.855   7.906 -0.0608 -0.2026 -0.1230
  769POPS   CNO10699   3.004  13.337   5.633 -0.0197  0.0022  0.0693
  769POPS   PO410700   2.968  13.462   6.133  0.1956 -0.1596  0.0318
  769POPS   GL110701   2.679  13.599   6.447  0.0294 -0.1611  0.2154
  769POPS   GL210702   2.495  13.351   6.403  0.0235  0.1901  0.0365
  769POPS   C1A10703   2.331  13.834   6.609  0.0463 -0.0843  0.1159
  769POPS   D2A10704   2.135  13.667   6.963 -0.1412 -0.0903 -0.3583
  769POPS   C3A10705   2.177  13.709   7.376  0.1087  0.1838 -0.1012
  769POPS   C4A10706   2.056  13.541   7.772  0.0806  0.2788 -0.0430
  769POPS   C1B10707   2.275  13.247   6.757 -0.3637 -0.1580 -0.0117
  769POPS   C2B10708   1.918  13.191   7.174 -0.3021 -0.4621 -0.2931
  769POPS   C3B10709   2.132  13.062   7.611 -0.0706 -0.2471  0.1469
  769POPS   C4B10710   2.382  12.854   7.907  0.1749 -0.3256  0.0838
  770POPS   CNO10711   4.980  13.794   5.371 -0.3469 -0.2570 -0.1012
  770POPS   PO410712   5.012  13.615   5.868 -0.0226  0.0614 -0.1549
  770POPS   GL110713   4.878  13.413   6.240 -0.0689 -0.3377  0.0410
  770POPS   GL210714   4.541  13.452   6.345  0.1367 -0.0721 -0.2067
  770POPS   C1A10715   4.934  13.453   6.594  0.0896  0.5067 -0.1202
  770POPS   D2A10716   5.060  13.604   7.014  0.2624  0.2433  0.2886
  770POPS   C3A10717   4.770  13.852   7.278  0.1096  0.1333 -0.2608
  770POPS   C4A10718   4.390  13.896   7.198 -0.1487 -0.2174 -0.4136
  770POPS   C1B10719   4.439  13.417   6.838 -0.1227 -0.1958  0.0816
  770POPS   C2B10720   4.492  13.402   7.243 -0.2014  0.1565  0.0786
  770POPS   C3B10721   4.517  13.363   7.759  0.3391 -0.0867  0.1423
  770POPS   C4B10722   4.686  13.459   8.188 -0.3655 -0.2046  0.0655
  771POPS   CNO10723  12.365  17.160   6.444  0.2909 -0.0677  0.2112
  771POPS   PO410724  12.030  16.808   6.484 -0.0163  0.0543  0.1042
  771POPS   GL110725  11.793  16.644   6.814  0.1075 -0.1158  0.3206
  771POPS   GL210726  11.679  16.306   6.656 -0.1564 -0.1563 -0.3044
  771POPS   C1A10727  11.761  16.591   7.241 -0.0792  0.0624  0.3497
  771POPS   D2A10728  11.638  16.537   7.708 -0.0837  0.1190  0.1542
  771POPS   C3A10729  11.810  16.570   8.120 -0.2730 -0.0523  0.2412
  771POPS   C4A10730  12.171  16.330   8.189  0.2044 -0.1100  0.2463
  771POPS   C1B10731  11.520  16.200   6.962 -0.0203 -0.0311  0.2555
  771POPS   C2B10732  11.470  15.906   7.289  0.0320 -0.3006  0.0771
  771POPS   C3B10733  11.474  15.959   7.682 -0.2921  0.0852 -0.0943
  771POPS   C4B10734  11.795  16.112   7.969  0.0717  0.3337  0.0281
  772POPS   CNO10735   1.392   7.399   5.612 -0.0964 -0.0414  0.2103
  772POPS   PO410736   1.633   7.110   5.573 -0.0622 -0.1409 -0.1070
  772POPS   GL110737   1.707   7.184   6.026  0.0824  0.0812  0.2534
  772POPS   GL210738   1.814   6.849   6.134  0.1470 -0.0342 -0.1540
  772POPS   C1A10739   2.077   7.241   6.280  0.3007  0.0637  0.1222
  772POPS   D2A10740   2.167   6.822   6.477 -0.0541  0.0956 -0.1071
  772POPS   C3A10741   2.228   6.574   6.937  0.0557  0.0197  0.1068
  772POPS   C4A10742   2.533   6.231   7.071 -0.2844  0.3049 -0.0315
  772POPS   C1B10743   1.686   6.753   6.469 -0.0306 -0.0453  0.0879
  772POPS   C2B10744   1.580   6.615   6.905 -0.0885  0.0169  0.0516
  772POPS   C3B10745   1.707   6.874   7.260 -0.0889 -0.1506  0.4432
  772POPS   C4B10746   1.714   6.784   7.728 -0.0907  0.1803  0.1096
  773POPS   CNO10747   9.397  15.195   5.683 -0.1644  0.0737 -0.0977
  773POPS   PO410748   9.294  14.773   5.885 -0.0674  0.1633  0.0688
  773POPS   GL110749   9.265  14.769   6.447  0.3874 -0.2219 -0.0506
  773POPS   GL210750   9.046  14.951   6.561  0.0585 -0.1620 -0.3047
  773POPS   C1A10751   9.166  14.531   6.809  0.0701  0.3749 -0.0201
  773POPS   D2A10752   9.251  14.369   7.153  0.0373 -0.0144  0.0649
  773POPS   C3A10753   9.119  14.315   7.464  0.1352  0.1284  0.1425
  773POPS   C4A10754   9.323  14.311   7.793  0.1029 -0.0623  0.2311
  773POPS   C1B10755   9.177  14.990   7.070 -0.2368  0.0995  0.0654
  773POPS   C2B10756   9.206  14.838   7.470 -0.0538 -0.0902  0.3764
  773POPS   C3B10757   9.303  14.830   7.861  0.0524 -0.1273 -0.0425
  773POPS   C4B10758   9.485  14.678   8.138 -0.1257 -0.1624  0.0240
  774POPS   CNO10759  17.988   4.286   6.028 -0.1809  0.0640  0.1550
  774POPS   PO410760  17.660   3.987   5.695 -0.2340  0.1576 -0.1116
  774POPS   GL110761  17.794   3.839   6.101  0.3764 -0.0716  0.2587
  774POPS   GL210762  17.496   3.784   6.331 -0.0932 -0.1510 -0.2552
  774POPS   C1A10763  17.926   4.057   6.523 -0.2307  0.3229 -0.2129
  774POPS   D2A10764  18.079   3.931   6.949  0.2534 -0.1108 -0.0379
  774POPS   C3A10765  18.007   3.794   7.336 -0.2212 -0.1126  0.2150
  774POPS   C4A10766  18.051   3.399   7.516 -0.2292 -0.1941 -0.1893
  774POPS   C1B10767  17.516   3.955   6.805  0.3370 -0.2251  0.1155
  774POPS   C2B10768  17.529   3.990   7.162  0.2570 -0.0954 -0.2185
  774POPS   C3B10769  17.550   4.026   7.611 -0.1665 -0.0313  0.3668
  774POPS   C4B10770  17.885   3.830   7.809  0.0360 -0.0717 -0.0522
  775POPS   CNO10771   8.648   1.382   5.952 -0.0703 -0.2103 -0.1535
  775POPS   PO410772   8.437   1.335   6.351 -0.2989  0.0203 -0.0278
  775POPS   GL110773   8.357   1.137   6.806 -0.1139  0.1763  0.3029
  775POPS   GL210774   7.956   1.201   6.980  0.2543 -0.2667 -0.1900
  775POPS   C1A10775   8.365   1.337   7.160 -0.4236  0.3322  0.0998
  775POPS   D2A10776   8.372   1.417   7.569  0.0600  0.4583  0.2081
  775POPS   C3A10777   7.924   1.412   7.617 -0.0046  0.1821 -0.2425
  775POPS   C4A10778   7.751   1.560   7.977  0.2735 -0.0285 -0.0509
  775POPS   C1B10779   7.561   1.109   7.148  0.0680  0.1077  0.1735
  775POPS   C2B10780   7.181   1.203   7.564  0.0924  0.0093  0.1941
  775POPS   C3B10781   6.928   1.278   7.963 -0.0860  0.1468  0.3715
  775POPS   C4B10782   6.781   1.248   8.320  0.2146  0.1317  0.1745
  776POPS   CNO10783   7.979   8.105   5.734 -0.1128  0.0840 -0.1568
  776POPS   PO410784   7.945   8.369   6.117 -0.0741  0.4162  0.2967
  776POPS   GL110785   7.927   8.467   6.576 -0.3893  0.2806  0.1312
  776POPS   GL210786   7.844   8.097   6.682  0.0592  0.0185  0.1385
  776POPS   C1A10787   7.942   8.475   7.011  0.1103 -0.0947  0.1260
  776POPS   D2A10788   8.201   8.744   7.378 -0.1828  0.2449  0.0015
  776POPS   C3A10789   8.145   8.722   7.776  0.0191 -0.1658 -0.0587
  776POPS   C4A10790   8.103   8.952   8.235  0.2840 -0.0654 -0.1311
  776POPS   C1B10791   8.094   7.930   7.057 -0.1740  0.2053  0.2088
  776POPS   C2B10792   7.991   7.756   7.480 -0.0262 -0.3479 -0.0158
  776POPS   C3B10793   7.598   7.727   7.735 -0.4093 -0.0470  0.2795
  776POPS   C4B10794   7.220   7.643   7.670  0.0961  0.0891 -0.0342
  777POPS   CNO10795   8.340   0.142   6.260  0.1215  0.1570 -0.2690
  777POPS   PO410796   7.945  -0.048   6.492 -0.1637  0.0838 -0.2315
  777POPS   GL110797   7.816   0.107   6.900  0.2036 -0.0386  0.0809
  777POPS   GL210798   7.719   0.391   6.928 -0.0185 -0.0905 -0.2846
  777POPS   C1A10799   7.483   0.101   7.211  0.0181  0.0846 -0.1986
  777POPS   D2A10800   7.322  -0.146   7.584  0.2114 -0.1024  0.1350
  777POPS   C3A10801   6.934  -0.081   7.598 -0.0737  0.0415 -0.0034
  777POPS   C4A10802   6.460  -0.238   7.575 -0.1866  0.3703 -0.0945
  777POPS   C1B10803   7.603   0.598   7.286 -0.2401 -0.0994 -0.2122
  777POPS   C2B10804   7.667   0.917   7.673  0.1265  0.2694 -0.0508
  777POPS   C3B10805   7.622   1.083   8.037  0.1699 -0.0650 -0.2695
  777POPS   C4B10806   7.332   1.279   8.250 -0.2214  0.0397  0.4256
  778POPS   CNO10807  17.859   6.224   5.144  0.3381  0.2307 -0.1461
  778POPS   PO410808  18.195   6.384   5.373  0.0853  0.2218 -0.0801
  778POPS   GL110809  18.024   6.308   5.751  0.1148 -0.0149  0.0242
  778POPS   GL210810  17.947   6.036   5.972 -0.1374  0.1014 -0.0400
  778POPS   C1A10811  17.901   6.503   6.135  0.1502 -0.0459  0.1868
  778POPS   D2A10812  18.137   6.782   6.383 -0.1919 -0.2070 -0.0958
  778POPS   C3A10813  18.468   6.725   6.794  0.2841  0.3190  0.0263
  778POPS   C4A10814  18.690   6.426   7.150  0.1982 -0.0214 -0.3908
  778POPS   C1B10815  17.792   6.005   6.422 -0.3128 -0.1421  0.1671
  778POPS   C2B10816  17.777   5.953   6.848 -0.0185 -0.1672  0.3119
  778POPS   C3B10817  17.952   5.712   7.177  0.0170  0.0353  0.0699
  778POPS   C4B10818  18.087   5.268   7.362  0.1243 -0.0674  0.2867
  779POPS   CNO10819  10.591   6.091   5.725  0.3349 -0.0889 -0.0359
  779POPS   PO410820  10.268   6.311   5.866  0.3668  0.1137 -0.1223
  779POPS   GL110821  10.469   6.573   6.142 -0.0940  0.0518  0.0313
  779POPS   GL210822  10.204   6.863   6.212  0.0300 -0.0743 -0.0691
  779POPS   C1A10823  10.674   6.554   6.589  0.2284  0.2181  0.2116
  779POPS   D2A10824  10.840   6.301   6.794  0.2092  0.2584  0.0221
  779POPS   C3A10825  10.818   6.388   7.205 -0.2466 -0.1348 -0.1286
  779POPS   C4A10826  11.025   6.431   7.523 -0.1687 -0.2465  0.1412
  779POPS   C1B10827  10.186   6.651   6.670 -0.0892 -0.0965  0.2102
  779POPS   C2B10828  10.178   6.756   7.049  0.1282  0.3082 -0.1253
  779POPS   C3B10829  10.086   6.916   7.446  0.1283  0.0552 -0.1153
  779POPS   C4B10830  10.101   6.869   7.916 -0.2848 -0.0536  0.0395
  780POPS   CNO10831  14.031   3.259   5.694 -0.0790  0.1465  0.2099
  780POPS   PO410832  13.729   3.184   5.906 -0.3223 -0.0223 -0.3031
  780POPS   GL110833  13.712   3.014   6.392 -0.0183  0.0865  0.2799
  780POPS   GL210834  13.480   2.846   6.521  0.2837  0.0988  0.3030
  780POPS   C1A10835  13.680   3.139   6.864 -0.1472  0.1696 -0.0695
  780POPS   D2A10836  13.419   3.475   6.940  0.1407  0.5704  0.2432
  780POPS   C3A10837  13.498   3.873   6.767 -0.0089  0.0898  0.2423
  780POPS   C4A10838  13.698   4.038   6.410  0.0718  0.0033 -0.0863
  780POPS   C1B10839  13.615   2.675   6.946 -0.0067  0.1859 -0.0064
  780POPS   C2B10840  13.666   2.682   7.286  0.0645  0.1666  0.2308
  780POPS   C3B10841  13.932   2.833   7.562 -0.0431 -0.2561  0.4006
  780POPS   C4B10842  14.055   3.239   7.690 -0.2747 -0.0706 -0.1550
  781POPS   CNO10843  14.218   5.055   5.568 -0.0930 -0.0029  0.0296
  781POPS   PO410844  14.159   5.394   5.706 -0.4128 -0.0801 -0.0498
  781POPS   GL110845  14.413   5.331   6.088 -0.2159  0.1139 -0.0688
  781POPS   GL210846  14.661   5.438   6.149  0.0971 -0.0975 -0.0308
  781POPS   C1A10847  14.437   5.278   6.494  0.0991 -0.1796 -0.3089
  781POPS   D2A10848  14.458   5.322   7.025  0.2409 -0.2662 -0.0242
  781POPS   C3A10849  14.830   5.343   7.343  0.1557  0.0754  0.1065
  781POPS   C4A10850  14.841   5.448   7.725  0.4161  0.3139 -0.0287
  781POPS   C1B10851  14.366   5.786   6.485 -0.1071 -0.0361 -0.1120
  781POPS   C2B10852  14.206   5.790   6.886  0.0005 -0.2279 -0.1523
  781POPS   C3B10853  14.243   6.016   7.226  0.0056 -0.2694  0.2957
  781POPS   C4B10854  14.179   6.292   7.574  0.1588 -0.0413  0.0202
  782POPS   CNO10855  11.712   9.422   5.754 -0.1151  0.3704 -0.1105
  782POPS   PO410856  11.396   9.293   5.906  0.0551  0.2839 -0.2349
  782POPS   GL110857  11.549   9.294   6.356 -0.2684  0.4668 -0.0694
  782POPS   GL210858  11.911   9.177   6.361 -0.0848  0.1875  0.2203
  782POPS   C1A10859  11.245   9.220   6.692 -0.3111 -0.1711  0.1992
  782POPS   D2A10860  10.977   9.054   6.986 -0.1171 -0.0660  0.0270
  782POPS   C3A10861  10.986   8.988   7.362  0.2182  0.0148 -0.2012
  782POPS   C4A10862  11.077   8.864   7.747 -0.1195 -0.0808  0.2121
  782POPS   C1B10863  11.791   9.126   6.775 -0.1049 -0.1151  0.1296
  782POPS   C2B10864  11.446   9.146   7.137 -0.0963 -0.3895  0.1280
  782POPS   C3B10865  11.448   9.205   7.531  0.1151 -0.1116  0.1549
  782POPS   C4B10866  11.558   9.295   7.918 -0.0766  0.0178  0.0437
  783POPS   CNO10867  12.750   3.097   5.827 -0.0308 -0.2671 -0.0307
  783POPS   PO410868  12.431   3.400   5.858  0.0821  0.0215  0.1665
  783POPS   GL110869  12.410   3.626   6.199  0.0238 -0.1917 -0.1076
  783POPS   GL210870  12.143   3.686   6.304  0.0754 -0.0692 -0.0196
  783POPS   C1A10871  12.537   3.536   6.546  0.2177  0.0712 -0.0710
  783POPS   D2A10872  12.848   3.407   6.969 -0.2200  0.1086  0.0108
  783POPS   C3A10873  12.968   3.765   7.166  0.2266  0.0210  0.0104
  783POPS   C4A10874  12.867   4.071   7.394  0.0571  0.1159 -0.0135
  783POPS   C1B10875  12.128   3.906   6.687 -0.0297 -0.0445 -0.0998
  783POPS   C2B10876  12.190   4.187   7.072  0.0150 -0.3063  0.0881
  783POPS   C3B10877  12.343   4.120   7.481  0.2316 -0.4147  0.1511
  783POPS   C4B10878  12.627   4.254   7.768  0.0156  0.0964  0.1603
  784POPS   CNO10879  15.542  12.318   5.690 -0.0478  0.0052 -0.1614
  784POPS   PO410880  15.132  12.432   5.903  0.1188  0.2126  0.0332
  784POPS   GL110881  15.385  12.352   6.327 -0.0331  0.2181 -0.1548
  784POPS   GL210882  15.678  12.031   6.441 -0.0208 -0.1542 -0.0816
  784POPS   C1A10883  15.386  12.406   6.743  0.0597 -0.0274  0.0322
  784POPS   D2A10884  14.992  12.604   6.924 -0.0168  0.4609  0.0477
  784POPS   C3A10885  14.868  12.382   7.281  0.1640  0.2886  0.3212
  784POPS   C4A10886  14.875  12.075   7.545 -0.1242  0.4429 -0.0472
  784POPS   C1B10887  15.584  11.931   6.810  0.0034  0.0389  0.0451
  784POPS   C2B10888  15.403  11.932   7.236  0.0671  0.1506 -0.0103
  784POPS   C3B10889  15.356  11.922   7.708  0.2075 -0.0982 -0.1736
  784POPS   C4B10890  15.274  11.604   8.015  0.1285 -0.2160  0.0941
  785POPS   CNO10891  12.787  17.342   6.156 -0.1235  0.3000 -0.0373
  785POPS   PO410892  12.910  17.110   6.449 -0.1386  0.1518 -0.2040
  785POPS   GL110893  12.830  17.276   6.801  0.0657  0.0376  0.3261
  785POPS   GL210894  13.110  17.250   6.971  0.1165  0.2236 -0.1647
  785POPS   C1A10895  12.414  17.450   6.982 -0.0487  0.1869 -0.0778
  785POPS   D2A10896  12.363  17.448   7.390  0.0988  0.0279  0.0337
  785POPS   C3A10897  12.238  17.824   7.557 -0.1521  0.0399 -0.2437
  785POPS   C4A10898  11.802  17.920   7.573  0.2529 -0.4507 -0.2709
  785POPS   C1B10899  12.859  17.555   7.310  0.1792  0.0390 -0.1764
  785POPS   C2B10900  12.700  17.538   7.775  0.3158 -0.0176  0.1075
  785POPS   C3B10901  12.877  17.601   8.233 -0.0449 -0.1247  0.1808
  785POPS   C4B10902  12.853  17.315   8.580 -0.0501 -0.0671 -0.0995
  786POPS   CNO10903   0.542   7.107   5.531  0.0951  0.0817 -0.1755
  786POPS   PO410904   0.891   6.920   5.449  0.2321  0.1407  0.0792
  786POPS   GL110905   0.758   6.881   5.956  0.0733  0.0549  0.4106
  786POPS   GL210906   0.361   6.679   5.852  0.3116 -0.3663 -0.1123
  786POPS   C1A10907   0.719   6.913   6.396 -0.1955  0.2805 -0.3611
  786POPS   D2A10908   0.894   7.212   6.736 -0.3056  0.2521 -0.0114
  786POPS   C3A10909   0.605   7.393   6.977 -0.4813  0.3222  0.2002
  786POPS   C4A10910   0.479   7.800   7.245 -0.0335  0.1180  0.0019
  786POPS   C1B10911   0.538   6.467   6.263  0.0190  0.0453 -0.2725
  786POPS   C2B10912   0.605   6.265   6.672 -0.0069  0.0610 -0.1327
  786POPS   C3B10913   0.304   6.109   7.052  0.2364  0.3799  0.0845
  786POPS   C4B10914   0.137   6.068   7.503 -0.0543 -0.3370 -0.3974
  787POPS   CNO10915  11.649   7.100   5.909  0.1351  0.1737 -0.3027
  787POPS   PO410916  11.539   7.597   6.058  0.1995 -0.1625 -0.0410
  787POPS   GL110917  11.861   7.687   6.359  0.2172 -0.0303 -0.1821
  787POPS   GL210918  11.807   7.395   6.423 -0.2177 -0.2611  0.1615
  787POPS   C1A10919  12.066   7.870   6.681 -0.4052 -0.2296  0.1722
  787POPS   D2A10920  12.045   8.211   6.961  0.0135 -0.0064 -0.4095
  787POPS   C3A10921  12.084   8.004   7.455 -0.0485  0.1161  0.0210
  787POPS   C4A10922  11.778   8.051   7.809 -0.0599  0.1462  0.0977
  787POPS   C1B10923  11.866   7.460   6.769 -0.1810  0.0290  0.0404
  787POPS   C2B10924  11.829   7.732   7.122 -0.0978  0.0070  0.3818
  787POPS   C3B10925  11.579   7.612   7.526 -0.3138 -0.1399 -0.0117
  787POPS   C4B10926  11.244   7.903   7.781 -0.0028 -0.0554  0.1361
  788POPS   CNO10927   3.512  10.114   5.317 -0.2533  0.0831  0.2334
  788POPS   PO410928   3.115   9.888   5.511 -0.0986 -0.2116  0.0264
  788POPS   GL110929   3.277  10.037   5.892 -0.1361 -0.3562 -0.0197
  788POPS   GL210930   3.534  10.143   5.806  0.0963 -0.3126 -0.4617
  788POPS   C1A10931   3.007  10.207   6.200 -0.0872  0.0483 -0.0563
  788POPS   D2A10932   2.788  10.142   6.592 -0.0411  0.0203  0.1258
  788POPS   C3A10933   2.566   9.930   6.848  0.0078  0.3534  0.0544
  788POPS   C4A10934   2.465   9.947   7.285  0.0678 -0.0479  0.0416
  788POPS   C1B10935   3.627  10.422   6.176  0.2267  0.0808  0.0449
  788POPS   C2B10936   3.592  10.648   6.539  0.1859 -0.2217  0.3136
  788POPS   C3B10937   3.876  10.578   6.957  0.2589 -0.0572  0.1883
  788POPS   C4B10938   4.160  10.545   7.216 -0.0650  0.1999 -0.1514
  789POPS   CNO10939  12.529  14.671   6.005  0.1822 -0.0399  0.0176
  789POPS   PO410940  12.739  14.745   6.430  0.1159  0.1300  0.0508
  789POPS   GL110941  12.438  14.720   6.692  0.0613  0.2620  0.1340
  789POPS   GL210942  12.248  15.026   6.764 -0.3198 -0.0778 -0.1479
  789POPS   C1A10943  12.316  14.635   7.161  0.0934  0.2173  0.0389
  789POPS   D2A10944  12.259  14.708   7.607  0.1852 -0.0825  0.4817
  789POPS   C3A10945  12.307  14.493   8.031 -0.0606 -0.0508 -0.0456
  789POPS   C4A10946  12.412  14.347   8.437 -0.2870  0.0228  0.0885
  789POPS   C1B10947  12.034  15.072   7.255  0.1997  0.1423 -0.0782
  789POPS   C2B10948  12.138  15.169   7.730 -0.3872 -0.4328 -0.0178
  789POPS   C3B10949  12.194  14.955   8.118  0.0594 -0.0548 -0.2830
  789POPS   C4B10950  12.350  14.892   8.557 -0.1390  0.0883 -0.2737
  790POPS   CNO10951   8.338   3.868   6.212 -0.0687 -0.0775 -0.0447
  790POPS   PO410952   8.703   4.003   6.156  0.0949  0.2905 -0.0888
  790POPS   GL110953   8.638   3.952   6.609  0.2152 -0.0463  0.2511
  790POPS   GL210954   8.495   3.620   6.620 -0.1129  0.1500  0.2836
  790POPS   C1A10955   8.619   3.752   7.070 -0.1064  0.3112 -0.2555
  790POPS   D2A10956   8.750   3.697   7.389  0.2334 -0.1462  0.1844
  790POPS   C3A10957   8.554   3.754   7.703  0.0630 -0.1450 -0.1278
  790POPS   C4A10958   8.441   3.696   8.133  0.0558 -0.1019 -0.1092
  790POPS   C1B10959   8.348   3.337   6.994  0.0645 -0.1664  0.0819
  790POPS   C2B10960   8.362   3.336   7.465 -0.1772 -0.2312  0.1816
  790POPS   C3B10961   8.228   3.257   7.861  0.1197 -0.4526 -0.0938
  790POPS   C4B10962   8.080   3.453   8.350  0.3604 -0.2409 -0.1515
  791POPS   CNO10963   9.871   5.991   5.789  0.2015 -0.0473 -0.0838
  791POPS   PO410964   9.790   6.391   5.921  0.0881  0.2624 -0.1364
  791POPS   GL110965   9.813   6.365   6.368  0.1952 -0.0022 -0.1233
  791POPS   GL210966  10.113   6.216   6.398  0.4259  0.0057  0.0492
  791POPS   C1A10967   9.839   6.307   6.808 -0.0218 -0.0344 -0.1759
  791POPS   D2A10968   9.763   6.434   7.218  0.1928  0.4100  0.0926
  791POPS   C3A10969   9.470   6.619   7.592 -0.1739 -0.2347  0.1125
  791POPS   C4A10970   9.041   6.793   7.742 -0.3315 -0.2445  0.0873
  791POPS   C1B10971  10.323   6.194   6.729  0.1703 -0.0844 -0.4507
  791POPS   C2B10972  10.272   6.282   7.096  0.1061  0.1906 -0.3215
  791POPS   C3B10973  10.393   6.490   7.451 -0.1977 -0.0816 -0.1975
  791POPS   C4B10974  10.580   6.697   7.765 -0.1560  0.0221 -0.1636
  792POPS   CNO10975   3.816  13.725   6.052 -0.0572 -0.0071  0.0808
  792POPS   PO410976   3.396  13.752   5.988 -0.0576 -0.0615 -0.1444
  792POPS   GL110977   3.457  13.751   6.495 -0.3341  0.3348  0.4966
  792POPS   GL210978   3.180  13.626   6.538  0.1657  0.1083  0.0057
  792POPS   C1A10979   3.544  13.812   6.901 -0.1995 -0.0962 -0.3759
  792POPS   D2A10980   3.474  13.681   7.373  0.0324  0.0294 -0.0179
  792POPS   C3A10981   3.725  13.516   7.738  0.0936 -0.3271 -0.1764
  792POPS   C4A10982   3.709  13.279   8.181 -0.0690 -0.4783 -0.1096
  792POPS   C1B10983   3.449  13.284   6.717  0.0178 -0.3980 -0.0697
  792POPS   C2B10984   3.507  13.218   7.140  0.0488  0.1351  0.0973
  792POPS   C3B10985   3.653  13.089   7.477 -0.0254  0.3407 -0.1256
  792POPS   C4B10986   3.568  12.846   7.785  0.0106 -0.4017  0.1495
  793POPS   CNO10987  10.864   4.320   5.631  0.3013  0.2615  0.2840
  793POPS   PO410988  10.341   4.331   5.842  0.1890 -0.2252  0.0355
  793POPS   GL110989  10.548   4.506   6.170  0.2077 -0.2511 -0.0351
  793POPS   GL210990  10.554   4.804   6.239 -0.2188 -0.1731  0.3459
  793POPS   C1A10991  10.338   4.509   6.536  0.1130  0.3270  0.0191
  793POPS   D2A10992  10.364   4.557   6.925 -0.0119  0.0813 -0.0904
  793POPS   C3A10993  10.747   4.566   7.181  0.0124 -0.1292 -0.2090
  793POPS   C4A10994  10.877   4.897   7.429  0.0812 -0.1368  0.2681
  793POPS   C1B10995  10.878   5.053   6.438 -0.2893  0.1142  0.2385
  793POPS   C2B10996  11.365   5.116   6.570  0.2247 -0.3117  0.0424
  793POPS   C3B10997  11.686   5.100   6.925 -0.3312 -0.0209  0.0444
  793POPS   C4B10998  11.793   5.304   7.168 -0.2690 -0.3135  0.0888
  794POPS   CNO10999  14.938   2.919   5.688 -0.1708 -0.2231 -0.0063
  794POPS   PO411000  14.706   2.655   5.908 -0.0672  0.1171 -0.1700
  794POPS   GL111001  14.581   2.732   6.219 -0.0968 -0.0105 -0.1277
  794POPS   GL211002  14.525   2.538   6.484  0.0012  0.0519 -0.1119
  794POPS   C1A11003  14.484   3.076   6.512  0.1494  0.0673 -0.1034
  794POPS   D2A11004  14.211   3.312   6.700  0.4375 -0.2247  0.0354
  794POPS   C3A11005  13.758   3.502   6.464  0.0261  0.2937 -0.2286
  794POPS   C4A11006  13.341   3.349   6.488 -0.2813 -0.1479 -0.0234
  794POPS   C1B11007  14.649   2.692   6.881  0.2958 -0.2120 -0.1702
  794POPS   C2B11008  14.862   2.672   7.263 -0.1651  0.0604  0.1918
  794POPS   C3B11009  14.839   2.617   7.732 -0.1554 -0.2566 -0.0751
  794POPS   C4B11010  14.665   2.382   8.095  0.1845  0.0666 -0.2344
  795POPS   CNO11011  10.736   2.895   5.637 -0.1901 -0.1436 -0.0309
  795POPS   PO411012  11.141   2.883   5.865  0.2009 -0.0497  0.1353
  795POPS   GL111013  11.041   3.167   6.196 -0.0735 -0.1070 -0.0124
  795POPS   GL211014  11.047   3.475   6.259 -0.1898  0.0158  0.2192
  795POPS   C1A11015  10.770   3.030   6.570 -0.1921 -0.1749 -0.0455
  795POPS   D2A11016  10.909   3.200   6.959 -0.0487 -0.1007 -0.1302
  795POPS   C3A11017  11.355   3.130   7.194  0.1002 -0.1208  0.0413
  795POPS   C4A11018  11.781   3.033   7.059  0.1060  0.0688  0.2493
  795POPS   C1B11019  11.157   3.917   6.440  0.1926  0.0412 -0.1178
  795POPS   C2B11020  11.264   4.169   6.690 -0.0060 -0.3611  0.1598
  795POPS   C3B11021  11.199   4.263   7.059  0.2129 -0.3607 -0.1247
  795POPS   C4B11022  10.968   4.239   7.551  0.1162  0.1605  0.1920
  796POPS   CNO11023   4.143  11.500   5.548 -0.1368  0.4233  0.0545
  796POPS   PO411024   4.085  11.393   5.845  0.1958  0.0629  0.0186
  796POPS   GL111025   4.023  11.300   6.172  0.0057 -0.2524  0.2386
  796POPS   GL211026   3.739  11.528   6.226  0.2082  0.0556 -0.0723
  796POPS   C1A11027   3.831  11.165   6.524 -0.0526  0.3361 -0.1834
  796POPS   D2A11028   3.693  11.014   6.905  0.1929 -0.0704  0.1218
  796POPS   C3A11029   3.716  11.294   7.312  0.0656  0.1535  0.0852
  796POPS   C4A11030   3.773  11.312   7.781 -0.0911 -0.3597 -0.0080
  796POPS   C1B11031   3.579  11.567   6.669 -0.0963 -0.3627  0.0280
  796POPS   C2B11032   3.279  11.438   7.093 -0.0190  0.1152  0.0481
  796POPS   C3B11033   3.057  11.190   7.381  0.1788  0.1080  0.1028
  796POPS   C4B11034   2.630  11.086   7.621  0.0408 -0.0508  0.0012
  797POPS   CNO11035  11.218  17.470   6.428  0.1879  0.1342 -0.1730
  797POPS   PO411036  11.141  17.065   6.543  0.3359 -0.1523 -0.2301
  797POPS   GL111037  11.071  16.851   6.829 -0.1863 -0.1497  0.0706
  797POPS   GL211038  11.333  16.657   7.001 -0.0849  0.0521  0.2277
  797POPS   C1A11039  10.991  16.871   7.310  0.0276  0.1048 -0.1628
  797POPS   D2A11040  10.863  16.865   7.791 -0.0716 -0.2265 -0.1079
  797POPS   C3A11041  10.825  16.540   8.216 -0.1040  0.1324 -0.0770
  797POPS   C4A11042  11.001  16.280   8.543 -0.1358  0.0305  0.1318
  797POPS   C1B11043  11.270  16.388   7.369  0.1772 -0.0476 -0.2058
  797POPS   C2B11044  11.181  16.401   7.869 -0.1431 -0.2324  0.6400
  797POPS   C3B11045  11.318  16.763   8.045 -0.1938  0.0259  0.0137
  797POPS   C4B11046  11.485  17.008   8.421  0.0824 -0.0083  0.0377
  798POPS   CNO11047  10.522  12.245   6.015 -0.4285 -0.2469  0.1723
  798POPS   PO411048  10.377  12.709   6.245 -0.1847 -0.0919 -0.3235
  798POPS   GL111049  10.611  12.710   6.592 -0.1530  0.4137  0.2048
  798POPS   GL211050  10.776  12.967   6.742 -0.0214 -0.1132 -0.0994
  798POPS   C1A11051  10.597  12.469   6.933  0.0493  0.2083  0.0750
  798POPS   D2A11052  10.643  12.479   7.300 -0.0186 -0.0065  0.1446
  798POPS   C3A11053  10.824  12.266   7.694  0.0628  0.0357 -0.1863
  798POPS   C4A11054  11.174  11.891   7.756  0.2814  0.2215 -0.3575
  798POPS   C1B11055  10.742  12.968   7.211  0.1604 -0.1345 -0.1876
  798POPS   C2B11056  10.620  13.203   7.638  0.0753 -0.2475 -0.2436
  798POPS   C3B11057  10.188  13.286   7.879 -0.1984  0.0764 -0.0947
  798POPS   C4B11058   9.900  13.507   8.157 -0.1695  0.0236 -0.0913
  799POPS   CNO11059   0.993   8.321   5.517 -0.1443 -0.0716  0.3378
  799POPS   PO411060   0.657   8.054   5.575 -0.1870 -0.2559  0.0924
  799POPS   GL111061   0.662   8.292   6.023 -0.3058  0.0212 -0.0707
  799POPS   GL211062   0.881   8.638   6.016 -0.2429  0.0919 -0.2619
  799POPS   C1A11063   0.582   8.471   6.455 -0.1008 -0.1870 -0.0565
  799POPS   D2A11064   0.727   8.636   6.803  0.1476 -0.2249  0.1722
  799POPS   C3A11065   0.538   8.766   7.198  0.0664  0.0142 -0.1018
  799POPS   C4A11066   0.197   8.732   7.491 -0.0875 -0.1567  0.2906
  799POPS   C1B11067   0.865   8.985   6.346 -0.0568  0.0773  0.0303
  799POPS   C2B11068   0.751   9.166   6.805  0.1116  0.1642  0.2819
  799POPS   C3B11069   0.865   9.238   7.211 -0.1529 -0.2394  0.0856
  799POPS   C4B11070   0.921   9.414   7.569 -0.0401  0.0321  0.1511
  800POPS   CNO11071   3.127   8.830   5.468  0.1699  0.1484  0.1298
  800POPS   PO411072   3.009   8.619   5.751  0.0020  0.2457 -0.2363
  800POPS   GL111073   3.223   8.565   6.132  0.0646 -0.0286 -0.0214
  800POPS   GL211074   3.427   8.781   6.217  0.1857 -0.0338  0.0664
  800POPS   C1A11075   3.438   8.399   6.515 -0.1090  0.0149 -0.1396
  800POPS   D2A11076   3.446   8.375   6.958  0.3582  0.1047 -0.2740
  800POPS   C3A11077   3.115   8.413   7.314  0.1443 -0.2473  0.0079
  800POPS   C4A11078   2.972   8.569   7.578  0.1694 -0.2066  0.1069
  800POPS   C1B11079   3.369   8.999   6.627  0.1515  0.0330  0.2568
  800POPS   C2B11080   3.334   9.261   7.004 -0.3383 -0.1011 -0.0051
  800POPS   C3B11081   3.368   9.572   7.375  0.1393 -0.0244  0.2980
  800POPS   C4B11082   3.311   9.627   7.799 -0.1198  0.2012 -0.3906
  801POPS   CNO11083  15.516   9.991   5.316 -0.1986 -0.0278  0.0001
  801POPS   PO411084  15.423   9.870   5.742 -0.0355  0.3647  0.1515
  801POPS   GL111085  15.308   9.857   6.229 -0.2636  0.1023  0.1733
  801POPS   GL211086  15.164   9.468   6.155  0.0747  0.0708 -0.1401
  801POPS   C1A11087  15.202   9.881   6.661  0.0667  0.2032 -0.1259
  801POPS   D2A11088  15.136   9.722   7.150 -0.0139 -0.1177 -0.2075
  801POPS   C3A11089  15.302   9.868   7.501 -0.2321 -0.3926  0.0575
  801POPS   C4A11090  15.211  10.120   7.837 -0.0573 -0.0002  0.0854
  801POPS   C1B11091  15.104   9.441   6.481  0.2371  0.1229 -0.3809
  801POPS   C2B11092  15.108   9.314   6.874 -0.1660  0.0128  0.3256
  801POPS   C3B11093  14.909   9.158   7.229 -0.3690  0.2973  0.2261
  801POPS   C4B11094  14.815   8.930   7.674  0.0392  0.0242  0.0307
  802POPS   CNO11095   5.952   1.231   6.097 -0.1254 -0.0623  0.1232
  802POPS   PO411096   5.896   1.545   6.380  0.1951 -0.1479  0.1004
  802POPS   GL111097   6.004   1.647   6.735  0.0329 -0.1173 -0.2057
  802POPS   GL211098   5.795   1.687   6.880  0.2115 -0.2345 -0.0700
  802POPS   C1A11099   6.104   1.357   7.105 -0.0850 -0.0351  0.1367
  802POPS   D2A11100   5.776   1.067   7.231 -0.0689  0.2616  0.2522
  802POPS   C3A11101   5.905   1.053   7.653  0.2165 -0.1901  0.1274
  802POPS   C4A11102   6.163   1.176   7.928 -0.0526  0.2547  0.2822
  802POPS   C1B11103   5.618   2.007   7.189  0.2556  0.2823  0.3237
  802POPS   C2B11104   5.663   2.274   7.488 -0.1341 -0.1894 -0.0933
  802POPS   C3B11105   5.784   2.321   7.920  0.0475 -0.0484 -0.1663
  802POPS   C4B11106   5.844   2.382   8.388 -0.0987 -0.1211  0.0034
  803POPS   CNO11107   4.494  17.523   5.825 -0.0541 -0.0198 -0.0204
  803POPS   PO411108   4.385  17.250   6.206 -0.0527 -0.2357  0.0391
  803POPS   GL111109   4.454  17.199   6.592  0.1269 -0.2258  0.0745
  803POPS   GL211110   4.211  17.282   6.744 -0.1635  0.0926 -0.1605
  803POPS   C1A11111   4.783  17.284   6.944 -0.0794  0.0711  0.0610
  803POPS   D2A11112   4.873  17.240   7.327  0.0998  0.2081 -0.0081
  803POPS   C3A11113   5.055  17.105   7.664 -0.2360 -0.0365  0.0786
  803POPS   C4A11114   5.090  16.729   7.890  0.2227 -0.2242 -0.0895
  803POPS   C1B11115   4.368  17.278   7.196 -0.3235 -0.0563 -0.0776
  803POPS   C2B11116   4.498  17.192   7.632  0.0837 -0.0886 -0.0265
  803POPS   C3B11117   4.207  17.016   7.969 -0.0529  0.0062 -0.1672
  803POPS   C4B11118   4.193  16.999   8.431 -0.1459 -0.0515  0.0204
  804POPS   CNO11119   1.309   3.013   5.476  0.0126 -0.2894 -0.1659
  804POPS   PO411120   1.552   3.295   5.755 -0.1308 -0.1666 -0.0636
  804POPS   GL111121   1.463   3.509   6.136 -0.0345  0.0517  0.0754
  804POPS   GL211122   1.124   3.556   6.303 -0.2329  0.1071 -0.0026
  804POPS   C1A11123   1.807   3.403   6.536 -0.0122 -0.4009 -0.0589
  804POPS   D2A11124   1.791   2.909   6.652 -0.1970  0.0733  0.1331
  804POPS   C3A11125   1.864   2.763   7.005  0.0386 -0.2281 -0.2489
  804POPS   C4A11126   1.917   2.816   7.415 -0.0053 -0.2419  0.0894
  804POPS   C1B11127   1.147   3.443   6.653  0.1341 -0.0043 -0.0463
  804POPS   C2B11128   0.922   3.309   7.011  0.1036 -0.3399  0.2620
  804POPS   C3B11129   0.843   3.176   7.487  0.0150  0.2032  0.1085
  804POPS   C4B11130   0.853   3.091   7.978 -0.1488 -0.1812  0.1839
  805POPS   CNO11131   0.569  12.017   5.755  0.0086 -0.2682  0.0476
  805POPS   PO411132   0.736  11.944   6.123 -0.2115 -0.1193  0.1645
  805POPS   GL111133   0.884  12.233   6.407  0.1082  0.1986  0.5889
  805POPS   GL211134   1.165  12.322   6.302  0.1285 -0.0547  0.2312
  805POPS   C1A11135   0.772  12.256   6.796 -0.3023  0.0361  0.1133
  805POPS   D2A11136   0.732  11.814   7.057 -0.0482  0.0281 -0.4721
  805POPS   C3A11137   0.798  11.828   7.492  0.0123  0.0834 -0.1291
  805POPS   C4A11138   0.874  11.735   7.951 -0.1282 -0.2357  0.0181
  805POPS   C1B11139   1.172  12.502   6.732  0.1661 -0.2219 -0.0417
  805POPS   C2B11140   1.106  12.621   7.042 -0.2652  0.0947  0.0613
  805POPS   C3B11141   1.232  12.561   7.464  0.1137 -0.0854 -0.3736
  805POPS   C4B11142   1.484  12.819   7.808  0.1069  0.1420 -0.2764
  806POPS   CNO11143  11.319  15.931   5.681 -0.1479  0.1663  0.3073
  806POPS   PO411144  11.542  15.693   5.947 -0.2217  0.0229  0.2463
  806POPS   GL111145  11.805  15.611   6.385 -0.0712 -0.0179  0.3042
  806POPS   GL211146  11.790  15.281   6.482 -0.0616 -0.1723  0.2326
  806POPS   C1A11147  11.759  15.796   6.824  0.0563 -0.1019  0.0762
  806POPS   D2A11148  11.958  16.077   7.115 -0.3226 -0.2505 -0.2252
  806POPS   C3A11149  12.052  15.883   7.578 -0.2671 -0.3117 -0.1390
  806POPS   C4A11150  12.107  15.657   7.929 -0.1386 -0.0632 -0.0371
  806POPS   C1B11151  11.858  15.324   6.914 -0.0213  0.0357  0.2076
  806POPS   C2B11152  11.824  15.532   7.283  0.1236  0.5062 -0.1187
  806POPS   C3B11153  11.750  15.480   7.619 -0.0332  0.2040  0.1717
  806POPS   C4B11154  11.299  15.525   7.615 -0.1749  0.2057 -0.1130
  807POPS   CNO11155  12.811  12.115   5.177  0.2639 -0.2582  0.1067
  807POPS   PO411156  13.048  11.843   5.498  0.0428 -0.3226  0.0238
  807POPS   GL111157  12.881  11.892   5.930  0.2401 -0.0471  0.2445
  807POPS   GL211158  12.936  12.296   6.034 -0.3961  0.1469  0.0393
  807POPS   C1A11159  12.849  11.624   6.285  0.2355  0.3123 -0.1233
  807POPS   D2A11160  13.065  11.288   6.488 -0.0953 -0.1066 -0.1349
  807POPS   C3A11161  12.997  10.916   6.224  0.1865  0.0496  0.1662
  807POPS   C4A11162  12.657  10.769   6.309  0.0547 -0.2090 -0.0008
  807POPS   C1B11163  13.245  12.040   6.251  0.0708 -0.0240 -0.0686
  807POPS   C2B11164  13.539  12.097   6.631  0.1945 -0.2153  0.3177
  807POPS   C3B11165  13.569  12.072   7.066  0.0721  0.1051 -0.1726
  807POPS   C4B11166  13.833  12.031   7.536  0.0774 -0.1135 -0.1056
  808POPS   CNO11167   4.662  10.242   5.775 -0.0233  0.0164  0.1843
  808POPS   PO411168   4.415  10.072   5.713  0.3030 -0.0860 -0.0227
  808POPS   GL111169   4.408   9.915   6.126  0.1993 -0.2344  0.2540
  808POPS   GL211170   4.774   9.855   6.128 -0.2114  0.0407  0.1526
  808POPS   C1A11171   4.489  10.056   6.552  0.0181  0.0297 -0.3327
  808POPS   D2A11172   4.518  10.266   6.948 -0.1909 -0.0470  0.1245
  808POPS   C3A11173   4.424  10.128   7.366  0.1989  0.1233 -0.1135
  808POPS   C4A11174   4.381   9.748   7.507 -0.2257  0.2354  0.1702
  808POPS   C1B11175   4.586   9.568   6.511  0.2660  0.0916  0.0341
  808POPS   C2B11176   4.674   9.317   6.819 -0.1577  0.2898 -0.2429
  808POPS   C3B11177   4.806   9.357   7.240 -0.2828  0.2403 -0.1337
  808POPS   C4B11178   4.943   9.414   7.615  0.1100 -0.0327 -0.0682
  809POPS   CNO11179   0.386   9.547   5.701  0.1947 -0.0077 -0.1909
  809POPS   PO411180   0.815   9.609   5.667 -0.2316  0.0181  0.3047
  809POPS   GL111181   0.696   9.476   6.076 -0.1059  0.2376  0.2633
  809POPS   GL211182   0.387   9.338   6.154  0.0530 -0.1613 -0.0659
  809POPS   C1A11183   0.773   9.535   6.409  0.0351 -0.5360  0.0862
  809POPS   D2A11184   0.865   9.828   6.639 -0.0200  0.1931  0.3348
  809POPS   C3A11185   0.957   9.896   7.050 -0.0898 -0.2937 -0.1212
  809POPS   C4A11186   1.140   9.916   7.481  0.1492  0.1009  0.2400
  809POPS   C1B11187   0.350   9.392   6.560 -0.0028 -0.1435 -0.0807
  809POPS   C2B11188   0.517   9.586   7.012 -0.0056  0.2743  0.1086
  809POPS   C3B11189   0.600   9.730   7.445 -0.0138  0.1352 -0.0343
  809POPS   C4B11190   0.250  10.021   7.709  0.0589  0.0318  0.2338
  810POPS   CNO11191   4.815   6.303   5.591  0.0569  0.3655 -0.2474
  810POPS   PO411192   5.055   6.430   5.915  0.1526  0.1910  0.2297
  810POPS   GL111193   4.729   6.585   6.098 -0.1759  0.1419  0.1364
  810POPS   GL211194   4.863   6.576   6.331 -0.2491 -0.1571  0.1427
  810POPS   C1A11195   4.439   6.805   6.350  0.3598 -0.0146  0.0725
  810POPS   D2A11196   4.312   6.780   6.784  0.2793 -0.0410 -0.0322
  810POPS   C3A11197   4.054   6.570   6.715  0.1182 -0.0144 -0.0516
  810POPS   C4A11198   3.809   6.367   6.979 -0.1215 -0.0675  0.1672
  810POPS   C1B11199   4.791   6.510   6.733 -0.1587  0.0928  0.0862
  810POPS   C2B11200   4.749   6.501   7.125  0.1411  0.0257  0.0794
  810POPS   C3B11201   5.011   6.457   7.554 -0.0617 -0.2740  0.1093
  810POPS   C4B11202   5.272   6.073   7.696 -0.0167  0.1096 -0.0856
  811POPS   CNO11203   7.485   6.238   6.042  0.3727  0.0023  0.0380
  811POPS   PO411204   7.030   6.234   5.862 -0.4726  0.1912 -0.2616
  811POPS   GL111205   7.024   6.335   6.305  0.3666  0.0619 -0.3123
  811POPS   GL211206   6.904   6.658   6.471  0.1346 -0.2038  0.1533
  811POPS   C1A11207   6.787   6.009   6.571  0.0184  0.0012  0.0682
  811POPS   D2A11208   6.512   5.813   6.826  0.1438  0.5162  0.1196
  811POPS   C3A11209   6.637   5.715   7.269 -0.2153  0.0115  0.2035
  811POPS   C4A11210   6.523   5.591   7.694  0.0769  0.1634  0.1572
  811POPS   C1B11211   6.774   6.528   6.757 -0.1287 -0.2872  0.2654
  811POPS   C2B11212   6.687   6.608   7.092  0.0896  0.4245  0.1537
  811POPS   C3B11213   6.595   6.768   7.540  0.0910  0.0113  0.0021
  811POPS   C4B11214   6.544   6.782   7.976 -0.1637  0.1368  0.2492
  812YOPS   CNO11215   3.197  16.641   6.532  0.5448  0.4599 -0.1289
  812YOPS   PO411216   3.529  16.802   6.326 -0.0766  0.0220  0.0049
  812YOPS   GL111217   3.453  17.098   6.685  0.0080 -0.4424  0.1622
  812YOPS   GL211218   3.705  17.254   6.826 -0.2198  0.2299 -0.0263
  812YOPS   C1A11219   3.444  16.935   7.122 -0.0494  0.0991  0.2471
  812YOPS   D2A11220   3.436  16.646   7.548 -0.3143  0.0034 -0.0471
  812YOPS   C3A11221   3.709  16.270   7.821  0.0815 -0.1925 -0.0379
  812YOPS   C4A11222   4.057  16.385   8.056 -0.0298  0.1789 -0.2584
  812YOPS   C1B11223   3.915  17.082   7.189  0.1630  0.1241  0.2074
  812YOPS   C2B11224   3.957  17.230   7.523 -0.0446  0.1342  0.1269
  812YOPS   D3B11225   3.632  17.228   7.800  0.0450 -0.3733 -0.0262
  812YOPS   C4B11226   3.287  17.486   7.726 -0.1387  0.2221  0.3305
  813YOPS   CNO11227   7.924   2.368   6.069 -0.0045 -0.1089  0.0810
  813YOPS   PO411228   7.635   2.183   5.823  0.0998 -0.2486  0.0846
  813YOPS   GL111229   7.504   2.415   6.354 -0.0795  0.2013 -0.1033
  813YOPS   GL211230   7.798   2.463   6.623  0.1874  0.0376 -0.1255
  813YOPS   C1A11231   7.372   2.745   6.727 -0.0322  0.1400 -0.2468
  813YOPS   D2A11232   6.951   2.674   6.984 -0.0070  0.1437 -0.1423
  813YOPS   C3A11233   6.866   2.330   7.141 -0.1987  0.0405 -0.3498
  813YOPS   C4A11234   6.962   1.816   6.916  0.2339 -0.3443 -0.0785
  813YOPS   C1B11235   7.810   2.530   7.069  0.2251  0.0991 -0.2603
  813YOPS   C2B11236   7.814   2.506   7.517  0.1768  0.0891  0.1957
  813YOPS   D3B11237   7.629   2.627   7.812 -0.1094  0.0942  0.1798
  813YOPS   C4B11238   7.640   2.507   8.211 -0.0571 -0.1654 -0.0802
  814YOPS   CNO11239   0.935  10.324   5.579 -0.0814  0.0252 -0.1190
  814YOPS   PO411240   0.608  10.516   5.706  0.1317  0.0584 -0.0548
  814YOPS   GL111241   0.781  10.598   6.073  0.0851 -0.0354  0.2177
  814YOPS   GL211242   0.944  10.740   6.200  0.1936 -0.1200 -0.3055
  814YOPS   C1A11243   0.468  10.640   6.513 -0.0834  0.1090  0.1057
  814YOPS   D2A11244   0.060  10.692   6.908 -0.2566 -0.2277 -0.1180
  814YOPS   C3A11245  -0.392  10.817   6.757  0.2111  0.2823  0.1399
  814YOPS   C4A11246  -0.581  10.862   6.329 -0.1248 -0.2838 -0.0996
  814YOPS   C1B11247   1.171  10.662   6.613 -0.0249 -0.0190  0.0280
  814YOPS   C2B11248   1.357  10.682   6.961 -0.0618  0.3993  0.1580
  814YOPS   D3B11249   1.551  10.776   7.401 -0.1911  0.1571 -0.0976
  814YOPS   C4B11250   1.476  10.579   7.720  0.1895 -0.1608 -0.2432
  815YOPS   CNO11251   2.467   5.070   5.805 -0.2805  0.1034 -0.1327
  815YOPS   PO411252   2.159   4.728   5.903  0.0562 -0.1282  0.1771
  815YOPS   GL111253   1.884   4.729   6.209 -0.2032  0.0319  0.0948
  815YOPS   GL211254   2.044   4.453   6.356  0.1552 -0.0876 -0.3796
  815YOPS   C1A11255   1.566   4.536   6.521 -0.0568 -0.0601  0.1678
  815YOPS   D2A11256   1.420   4.273   6.902  0.1019 -0.1895  0.0882
  815YOPS   C3A11257   1.259   4.312   7.393 -0.0035 -0.1542 -0.2495
  815YOPS   C4A11258   0.809   4.417   7.216  0.1451  0.1201  0.0473
  815YOPS   C1B11259   1.932   4.380   6.841  0.0173  0.0554  0.2189
  815YOPS   C2B11260   1.737   4.437   7.234 -0.2572 -0.4819 -0.0626
  815YOPS   D3B11261   1.701   4.742   7.497 -0.1146 -0.1957  0.0818
  815YOPS   C4B11262   1.376   4.755   7.737 -0.0754 -0.1874  0.0883
  816YOPS   CNO11263   1.355   4.915   5.376  0.1739  0.0721 -0.3265
  816YOPS   PO411264   1.517   5.162   5.644 -0.0585  0.1396 -0.1971
  816YOPS   GL111265   1.575   5.228   6.059 -0.1305 -0.0616 -0.0512
  816YOPS   GL211266   1.694   5.532   6.062  0.0814  0.2001 -0.0930
  816YOPS   C1A11267   1.440   4.991   6.312 -0.1678 -0.0233  0.0476
  816YOPS   D2A11268   1.365   4.996   6.715 -0.1347  0.2560  0.0226
  816YOPS   C3A11269   1.296   4.760   7.081 -0.1634  0.1032 -0.1615
  816YOPS   C4A11270   1.252   5.195   7.383 -0.1303  0.1938 -0.0608
  816YOPS   C1B11271   1.207   5.518   6.222  0.0003 -0.2038  0.2817
  816YOPS   C2B11272   0.793   5.573   6.431 -0.2734 -0.0928  0.1343
  816YOPS   D3B11273   0.705   5.766   6.746  0.0576  0.1945  0.0264
  816YOPS   C4B11274   0.827   5.999   7.033  0.0309 -0.1234 -0.0155
  817YOPS   CNO11275   7.114   9.613   6.012 -0.0094 -0.3628  0.1064
  817YOPS   PO411276   6.803   9.977   6.066 -0.0332 -0.0110  0.0253
  817YOPS   GL111277   6.523  10.081   6.381  0.1738 -0.0792 -0.0808
  817YOPS   GL211278   6.528  10.457   6.567 -0.0128  0.1207  0.3114
  817YOPS   C1A11279   6.512   9.987   6.776  0.5193 -0.1488 -0.1482
  817YOPS   D2A11280   6.456   9.993   7.297  0.2344  0.2060 -0.1582
  817YOPS   C3A11281   6.642  10.152   7.676  0.2706 -0.3923 -0.0912
  817YOPS   C4A11282   6.666  10.508   7.561  0.0718 -0.0387 -0.0805
  817YOPS   C1B11283   6.482  10.462   6.975  0.1955  0.3631  0.0887
  817YOPS   C2B11284   6.330  10.780   7.274  0.2724 -0.1689 -0.1823
  817YOPS   D3B11285   6.414  10.952   7.710  0.2769 -0.1234  0.2697
  817YOPS   C4B11286   6.452  11.433   7.827 -0.0575 -0.0792 -0.0642
  818YOPS   CNO11287   0.248   7.672   5.259 -0.0561 -0.0118  0.0219
  818YOPS   PO411288   0.370   7.594   5.644 -0.2875  0.1046 -0.0484
  818YOPS   GL111289   0.686   7.439   5.902  0.1601 -0.1471 -0.0139
  818YOPS   GL211290   0.955   7.292   5.783 -0.0090 -0.1719  0.0106
  818YOPS   C1A11291   0.554   7.371   6.302 -0.2599  0.0468  0.2069
  818YOPS   D2A11292   0.351   7.174   6.683 -0.1674 -0.0474  0.3305
  818YOPS   C3A11293  -0.078   6.790   6.814 -0.1495 -0.3709  0.0526
  818YOPS   C4A11294   0.087   6.341   6.665  0.4492 -0.1333  0.1378
  818YOPS   C1B11295   1.241   7.399   6.062  0.0387  0.3496 -0.1217
  818YOPS   C2B11296   1.370   7.193   6.419  0.2144 -0.0143 -0.2198
  818YOPS   D3B11297   1.373   7.130   6.917  0.2804  0.1205 -0.1772
  818YOPS   C4B11298   1.051   7.276   7.203 -0.1367  0.1186 -0.2346
  819YOPS   CNO11299   8.512  11.767   6.130 -0.3599  0.0139  0.3173
  819YOPS   PO411300   8.953  11.770   5.916  0.0815  0.1023  0.0619
  819YOPS   GL111301   8.997  11.662   6.295 -0.2163 -0.0120  0.2435
  819YOPS   GL211302   9.328  11.710   6.407 -0.0773  0.0582 -0.1075
  819YOPS   C1A11303   8.762  11.716   6.699  0.4116 -0.2019 -0.1478
  819YOPS   D2A11304   8.768  11.796   7.193  0.1117  0.3171  0.0875
  819YOPS   C3A11305   8.938  11.746   7.671 -0.1645  0.1427  0.2861
  819YOPS   C4A11306   9.342  11.448   7.524 -0.3961 -0.3844 -0.1219
  819YOPS   C1B11307   9.433  11.761   6.749 -0.1216 -0.1409  0.1009
  819YOPS   C2B11308   9.278  11.862   7.220 -0.1821 -0.0446  0.0292
  819YOPS   D3B11309   8.962  12.196   7.343 -0.0555  0.0037  0.0285
  819YOPS   C4B11310   8.935  12.575   7.125 -0.1073  0.0117 -0.1728
  820YOPS   CNO11311   1.429  12.532   5.920 -0.5339 -0.2769 -0.1455
  820YOPS   PO411312   1.620  12.268   6.101 -0.1976  0.1978  0.0157
  820YOPS   GL111313   1.521  11.938   6.443  0.0146  0.1076  0.0221
  820YOPS   GL211314   1.490  11.629   6.356  0.0276  0.0855  0.0026
  820YOPS   C1A11315   1.571  11.673   6.863  0.1167  0.1426 -0.0499
  820YOPS   D2A11316   1.550  11.354   7.199 -0.0867 -0.3553  0.0553
  820YOPS   C3A11317   1.679  11.265   7.582  0.3297 -0.3756 -0.0421
  820YOPS   C4A11318   1.366  11.128   7.875  0.1892  0.1315 -0.0697
  820YOPS   C1B11319   1.491  11.196   6.746 -0.2020  0.1758 -0.1712
  820YOPS   C2B11320   1.835  10.955   6.997  0.2042  0.0071 -0.1175
  820YOPS   D3B11321   2.090  10.888   7.461 -0.1669  0.3601 -0.0460
  820YOPS   C4B11322   1.950  10.749   7.713 -0.0163  0.1735  0.0301
  821YOPS   CNO11323  12.255   5.965   5.503 -0.0642  0.1048 -0.0597
  821YOPS   PO411324  12.594   6.277   5.493  0.2255 -0.2524  0.0004
  821YOPS   GL111325  12.711   6.244   5.955  0.0049  0.1068  0.2677
  821YOPS   GL211326  12.558   6.398   6.214 -0.0934 -0.0689 -0.0079
  821YOPS   C1A11327  12.943   6.029   6.270  0.3300 -0.3799 -0.2604
  821YOPS   D2A11328  12.944   5.905   6.712 -0.0680 -0.2760  0.2137
  821YOPS   C3A11329  12.887   5.882   7.041 -0.1382 -0.0145  0.2307
  821YOPS   C4A11330  12.741   5.543   7.273  0.2942 -0.1218 -0.0850
  821YOPS   C1B11331  12.627   6.278   6.697 -0.0126 -0.0104  0.2175
  821YOPS   C2B11332  12.550   6.214   7.097  0.0853  0.1057  0.1199
  821YOPS   D3B11333  12.359   5.940   7.396 -0.1656  0.0158  0.2548
  821YOPS   C4B11334  12.493   5.740   7.774 -0.3637 -0.1374 -0.0987
  822YOPS   CNO11335  14.771   8.898   5.620  0.2383  0.0921 -0.0191
  822YOPS   PO411336  14.363   8.997   5.680  0.0505  0.4260 -0.2966
  822YOPS   GL111337  14.129   9.139   6.049  0.2803 -0.0664  0.0189
  822YOPS   GL211338  13.838   9.319   6.118 -0.0711 -0.3521 -0.0097
  822YOPS   C1A11339  13.970   8.877   6.381  0.0141 -0.1463  0.2076
  822YOPS   D2A11340  14.001   8.869   6.835  0.1910 -0.2825  0.1394
  822YOPS   C3A11341  14.021   8.875   7.297 -0.0120  0.0314 -0.1679
  822YOPS   C4A11342  13.869   8.496   7.402 -0.0693  0.1604  0.2076
  822YOPS   C1B11343  14.063   9.416   6.501  0.2126  0.0908  0.1953
  822YOPS   C2B11344  14.007   9.345   6.790 -0.2236 -0.0107 -0.2931
  822YOPS   D3B11345  14.099   9.475   7.208  0.2270  0.3539  0.2048
  822YOPS   C4B11346  13.855   9.726   7.515  0.1665 -0.1136 -0.2180
  823YOPS   CNO11347   7.468  14.479   6.250  0.0300 -0.0211  0.1935
  823YOPS   PO411348   7.610  14.913   6.309 -0.0645  0.0765 -0.2820
  823YOPS   GL111349   7.547  14.697   6.698 -0.1496 -0.3767  0.0190
  823YOPS   GL211350   7.311  14.534   6.828 -0.1381  0.0265  0.0579
  823YOPS   C1A11351   7.633  14.777   7.115  0.2137  0.0528  0.0849
  823YOPS   D2A11352   7.592  14.815   7.556 -0.0553 -0.0244 -0.1111
  823YOPS   C3A11353   7.442  14.990   7.921  0.3055  0.0715 -0.3200
  823YOPS   C4A11354   7.517  14.816   8.397  0.3713  0.1125 -0.0270
  823YOPS   C1B11355   7.245  14.314   7.168 -0.2809  0.2831  0.1405
  823YOPS   C2B11356   7.330  14.367   7.526 -0.0130  0.1580 -0.0161
  823YOPS   D3B11357   7.218  14.440   7.918  0.1434  0.1482 -0.1745
  823YOPS   C4B11358   7.126  14.376   8.345  0.3057 -0.2699  0.0125
  824YOPS   CNO11359   9.082   7.381   6.119  0.1680  0.0615 -0.1316
  824YOPS   PO411360   9.379   7.389   5.840  0.0994 -0.0489  0.2391
  824YOPS   GL111361   9.731   7.523   6.162  0.3046 -0.0391 -0.4281
  824YOPS   GL211362   9.911   7.259   6.167  0.2142 -0.1802 -0.1102
  824YOPS   C1A11363   9.949   7.843   6.470 -0.0005 -0.1363 -0.0416
  824YOPS   D2A11364   9.876   8.048   6.881 -0.1742  0.1277  0.1448
  824YOPS   C3A11365   9.544   8.194   7.200  0.2161 -0.3646  0.0685
  824YOPS   C4A11366   9.679   8.302   7.544 -0.1425 -0.1425  0.0694
  824YOPS   C1B11367  10.068   7.256   6.529 -0.1803 -0.3435 -0.0344
  824YOPS   C2B11368  10.454   7.104   6.717  0.2673  0.0476 -0.0838
  824YOPS   D3B11369  10.674   6.825   7.042  0.0265 -0.0078  0.1386
  824YOPS   C4B11370  10.702   6.963   7.371 -0.0042  0.0187  0.4437
  825YOPS   CNO11371   5.067   7.501   5.768 -0.0968 -0.2351  0.1169
  825YOPS   PO411372   5.402   7.696   6.007 -0.3868 -0.1525 -0.0211
  825YOPS   GL111373   5.345   7.844   6.347 -0.2549  0.1498  0.2258
  825YOPS   GL211374   5.381   8.144   6.198  0.1694  0.0454  0.0175
  825YOPS   C1A11375   5.354   7.962   6.854  0.0270 -0.0880 -0.2936
  825YOPS   D2A11376   5.192   7.875   7.221 -0.0962 -0.1272 -0.0606
  825YOPS   C3A11377   5.044   7.916   7.597 -0.0154  0.0703 -0.0199
  825YOPS   C4A11378   5.028   8.032   8.060  0.0680 -0.0292  0.0466
  825YOPS   C1B11379   5.631   8.229   6.584  0.4634  0.1405 -0.1395
  825YOPS   C2B11380   5.873   7.925   6.618  0.2398  0.2502 -0.1806
  825YOPS   D3B11381   6.146   7.538   6.743  0.0319  0.1695 -0.2927
  825YOPS   C4B11382   6.181   7.672   7.159 -0.2539  0.1377 -0.0833
  826YOPS   CNO11383   4.357   0.245   5.819  0.2270 -0.0324  0.0233
  826YOPS   PO411384   4.163  -0.133   6.009 -0.3504 -0.1155  0.1774
  826YOPS   GL111385   4.136   0.063   6.329  0.0711  0.1968  0.1088
  826YOPS   GL211386   4.395   0.247   6.375  0.4158  0.2211 -0.1613
  826YOPS   C1A11387   4.114   0.030   6.818 -0.2015 -0.3437  0.0037
  826YOPS   D2A11388   3.970   0.135   7.317  0.0801 -0.0852 -0.1687
  826YOPS   C3A11389   3.880   0.169   7.645  0.0993  0.0780  0.1634
  826YOPS   C4A11390   3.606  -0.161   7.756 -0.0548 -0.0368 -0.0440
  826YOPS   C1B11391   4.514   0.426   6.786  0.0300  0.1253  0.2057
  826YOPS   C2B11392   4.471   0.307   7.186  0.0195 -0.2479 -0.1689
  826YOPS   D3B11393   4.501   0.391   7.623 -0.1545  0.1568 -0.0284
  826YOPS   C4B11394   4.594   0.725   7.915 -0.1384  0.0297 -0.0989
  827YOPS   CNO11395   8.068  13.990   5.521 -0.1405 -0.1759  0.0369
  827YOPS   PO411396   8.305  14.014   5.972  0.0914  0.0254 -0.0478
  827YOPS   GL111397   8.601  13.719   6.245 -0.0978 -0.0642  0.0356
  827YOPS   GL211398   8.835  13.466   6.074  0.2680  0.1419 -0.3235
  827YOPS   C1A11399   8.911  13.583   6.572  0.1077  0.1327 -0.3576
  827YOPS   D2A11400   8.988  13.369   6.898  0.2160 -0.2834  0.1761
  827YOPS   C3A11401   8.991  13.080   7.228  0.2026  0.0150 -0.3802
  827YOPS   C4A11402   9.110  13.311   7.646 -0.1661 -0.1196 -0.1040
  827YOPS   C1B11403   8.991  13.202   6.333  0.1296  0.6540  0.0559
  827YOPS   C2B11404   9.366  13.436   6.471 -0.1095 -0.2811  0.2564
  827YOPS   D3B11405   9.544  13.357   6.665  0.1738  0.0914  0.0801
  827YOPS   C4B11406   9.446  13.397   7.096  0.2582 -0.2211  0.1754
  828YOPS   CNO11407   1.743   0.117   6.166  0.0659 -0.2412  0.0963
  828YOPS   PO411408   2.179   0.314   6.210  0.0582  0.1349  0.0594
  828YOPS   GL111409   2.254   0.580   6.657 -0.0569  0.1129 -0.1039
  828YOPS   GL211410   1.974   0.520   6.846 -0.2931 -0.1519  0.0493
  828YOPS   C1A11411   2.439   0.725   6.976  0.0151  0.0720 -0.1939
  828YOPS   D2A11412   2.633   0.829   7.277  0.2417  0.1636  0.0421
  828YOPS   C3A11413   2.737   0.956   7.661 -0.2368  0.0522 -0.2159
  828YOPS   C4A11414   2.450   0.620   7.883 -0.1241 -0.2303 -0.0152
  828YOPS   C1B11415   1.588   0.841   6.875 -0.1688 -0.0797 -0.5351
  828YOPS   C2B11416   1.507   1.066   7.257 -0.1833 -0.0247 -0.0987
  828YOPS   D3B11417   1.545   0.956   7.709 -0.0764 -0.2581 -0.1283
  828YOPS   C4B11418   1.309   1.150   8.003 -0.0063  0.3128 -0.2907
  829YOPS   CNO11419   6.853   3.588   5.435 -0.0898 -0.0234  0.1084
  829YOPS   PO411420   7.043   3.516   5.753  0.1033  0.2458  0.0223
  829YOPS   GL111421   7.132   3.566   6.233  0.1957  0.1155  0.0796
  829YOPS   GL211422   7.203   3.775   6.259  0.0075  0.2669 -0.0201
  829YOPS   C1A11423   7.180   3.343   6.584  0.1218 -0.0960 -0.3088
  829YOPS   D2A11424   7.265   3.182   7.022  0.1224  0.1727 -0.1560
  829YOPS   C3A11425   7.405   2.801   7.297  0.3591  0.1135 -0.0813
  829YOPS   C4A11426   7.081   2.584   7.618  0.2224 -0.0273 -0.2056
  829YOPS   C1B11427   7.185   4.144   6.547  0.3518  0.2180  0.0551
  829YOPS   C2B11428   7.182   4.171   6.997  0.1543  0.0207 -0.0606
  829YOPS   D3B11429   7.185   4.042   7.429 -0.3169 -0.0798 -0.1907
  829YOPS   C4B11430   6.792   3.928   7.678 -0.1091 -0.2063  0.2708
  830YOPS   CNO11431  17.530  13.533   5.360  0.0942  0.1776 -0.0264
  830YOPS   PO411432  17.526  13.203   5.871 -0.2261 -0.1661  0.3051
  830YOPS   GL111433  17.450  13.314   6.289  0.1230  0.0660  0.0896
  830YOPS   GL211434  17.144  13.150   6.467 -0.0272  0.0395  0.1020
  830YOPS   C1A11435  17.543  13.292   6.750  0.3710  0.1877  0.2094
  830YOPS   D2A11436  17.322  13.135   7.116  0.0469  0.3052 -0.0465
  830YOPS   C3A11437  17.022  13.136   7.419 -0.0596  0.2150 -0.0655
  830YOPS   C4A11438  16.975  12.826   7.721  0.0629 -0.0903  0.2483
  830YOPS   C1B11439  17.039  13.427   6.759  0.0986  0.1257  0.2133
  830YOPS   C2B11440  16.907  13.547   7.095  0.0124  0.0306  0.2095
  830YOPS   D3B11441  17.036  13.677   7.505  0.1229  0.0906  0.2694
  830YOPS   C4B11442  16.876  13.437   7.780  0.1033  0.1302 -0.1155
  831YOPS   CNO11443   9.414   9.330   6.022 -0.0064 -0.0370 -0.0222
  831YOPS   PO411444   9.526   9.047   5.852 -0.1235 -0.0092 -0.1980
  831YOPS   GL111445   9.728   8.927   6.202 -0.1784  0.0211  0.1130
  831YOPS   GL211446   9.804   9.238   6.377  0.0880 -0.0398 -0.1214
  831YOPS   C1A11447   9.699   8.785   6.594 -0.0765 -0.0665  0.1647
  831YOPS   D2A11448   9.510   8.564   6.871  0.1842  0.1070  0.0343
  831YOPS   C3A11449   9.073   8.354   6.953  0.0528  0.3664 -0.0281
  831YOPS   C4A11450   8.988   7.936   7.039  0.2138 -0.0320  0.2059
  831YOPS   C1B11451  10.035   9.214   6.675 -0.4762  0.1798  0.2285
  831YOPS   C2B11452   9.955   9.042   6.979 -0.1214 -0.0348 -0.1630
  831YOPS   D3B11453  10.078   9.240   7.413 -0.0762  0.0297 -0.0238
  831YOPS   C4B11454   9.984   9.346   7.809 -0.1457 -0.0417 -0.0487
  832YOPS   CNO11455   0.986   5.819   5.112 -0.0635  0.0497 -0.0193
  832YOPS   PO411456   0.989   5.833   5.469  0.0754  0.1631 -0.1375
  832YOPS   GL111457   0.982   5.981   5.940  0.4801 -0.2858  0.0047
  832YOPS   GL211458   0.643   5.981   6.136 -0.1421  0.4645  0.3157
  832YOPS   C1A11459   1.027   6.009   6.356  0.0496 -0.1972 -0.0966
  832YOPS   D2A11460   1.193   5.801   6.694 -0.0002  0.2644  0.3834
  832YOPS   C3A11461   1.518   5.912   6.896 -0.1157 -0.1090 -0.1348
  832YOPS   C4A11462   1.768   5.681   7.142  0.0229  0.0663  0.2854
  832YOPS   C1B11463   0.305   5.937   6.475 -0.2976  0.2828 -0.0701
  832YOPS   C2B11464   0.073   5.547   6.701 -0.2616  0.2861 -0.1255
  832YOPS   D3B11465  -0.019   5.099   6.791 -0.0309 -0.0918 -0.1838
  832YOPS   C4B11466  -0.208   4.902   7.121 -0.2232 -0.0905 -0.1309
  833YOPS   CNO11467   6.524  16.715   6.197  0.1156 -0.3884 -0.3819
  833YOPS   PO411468   6.166  16.734   6.389  0.2648  0.1999  0.1271
  833YOPS   GL111469   5.861  16.792   6.697  0.0009  0.0407 -0.1202
  833YOPS   GL211470   5.727  16.573   6.770 -0.0549  0.0841 -0.1671
  833YOPS   C1A11471   5.904  16.809   7.264  0.1084  0.1267  0.0408
  833YOPS   D2A11472   5.999  16.842   7.772 -0.0323 -0.1141 -0.2097
  833YOPS   C3A11473   6.416  16.945   8.055 -0.2476 -0.0659 -0.1950
  833YOPS   C4A11474   6.242  17.080   8.453 -0.2107 -0.0943 -0.1810
  833YOPS   C1B11475   5.481  16.612   7.176  0.1318  0.0604 -0.0739
  833YOPS   C2B11476   5.484  16.920   7.517 -0.1476 -0.0002  0.0924
  833YOPS   D3B11477   5.556  17.004   7.921  0.1744 -0.2152 -0.0577
  833YOPS   C4B11478   5.267  17.132   8.187  0.2108  0.1235  0.2522
  834YOPS   CNO11479  15.675  11.238   5.780 -0.1816  0.2148  0.1900
  834YOPS   PO411480  15.686  10.831   5.848  0.2125 -0.2024  0.4303
  834YOPS   GL111481  15.640  10.529   6.209  0.2737 -0.1207 -0.1011
  834YOPS   GL211482  15.687  10.183   6.139 -0.0535  0.1683 -0.2604
  834YOPS   C1A11483  15.315  10.351   6.417 -0.0396  0.2475  0.0133
  834YOPS   D2A11484  15.242  10.360   6.777  0.1078  0.1119 -0.0855
  834YOPS   C3A11485  15.235  10.250   7.197  0.0355 -0.0283  0.1779
  834YOPS   C4A11486  15.550  10.296   7.508 -0.2559  0.0852 -0.2086
  834YOPS   C1B11487  15.709  10.073   6.604 -0.1046 -0.1209 -0.1018
  834YOPS   C2B11488  15.622   9.902   7.062 -0.2766 -0.1891 -0.0880
  834YOPS   D3B11489  15.761   9.758   7.396  0.2044  0.0758  0.2160
  834YOPS   C4B11490  15.852   9.986   7.676  0.0097  0.0311  0.0480
  835YOPS   CNO11491  16.348   9.027   5.405 -0.3502 -0.0407 -0.1982
  835YOPS   PO411492  16.630   9.284   5.631  0.0143 -0.2342 -0.1995
  835YOPS   GL111493  16.833   9.233   6.058  0.0385 -0.0232  0.0992
  835YOPS   GL211494  17.049   9.091   6.138  0.0898  0.0242 -0.2348
  835YOPS   C1A11495  16.659   9.116   6.465 -0.1573  0.1669 -0.2194
  835YOPS   D2A11496  16.795   8.882   6.740 -0.1864  0.0808 -0.0165
  835YOPS   C3A11497  16.849   8.753   7.127  0.0213 -0.0217  0.2054
  835YOPS   C4A11498  16.654   8.465   7.372 -0.0395 -0.0006  0.1435
  835YOPS   C1B11499  17.244   8.954   6.508  0.1132  0.3759 -0.1281
  835YOPS   C2B11500  17.285   8.848   6.986  0.1639  0.0145  0.0234
  835YOPS   D3B11501  17.325   8.624   7.447  0.1006 -0.3034 -0.0485
  835YOPS   C4B11502  17.036   8.513   7.662 -0.1805  0.0911 -0.1432
  836YOPS   CNO11503  16.414  16.802   5.876  0.1642 -0.0813 -0.1888
  836YOPS   PO411504  16.528  16.549   6.222 -0.2908 -0.0078  0.1477
  836YOPS   GL111505  16.447  16.699   6.719 -0.0381 -0.0955 -0.0640
  836YOPS   GL211506  16.468  16.438   6.959  0.0914 -0.2470  0.0420
  836YOPS   C1A11507  16.220  16.872   7.058  0.0090 -0.1157 -0.0817
  836YOPS   D2A11508  16.267  17.052   7.417 -0.2125  0.3015  0.0280
  836YOPS   C3A11509  16.230  17.083   7.788 -0.0745  0.2223  0.1284
  836YOPS   C4A11510  16.039  16.992   8.136  0.1367 -0.0949 -0.2192
  836YOPS   C1B11511  16.557  16.608   7.459  0.1398  0.1748  0.1592
  836YOPS   C2B11512  16.572  16.720   7.912 -0.0022 -0.0495  0.0513
  836YOPS   D3B11513  16.540  16.989   8.277 -0.0843  0.0034 -0.3975
  836YOPS   C4B11514  16.822  16.799   8.522  0.0889  0.1648 -0.0476
  837YOPS   CNO11515   8.704   8.758   6.321 -0.0042  0.0301 -0.1228
  837YOPS   PO411516   8.824   8.920   5.981 -0.3016 -0.1569 -0.0472
  837YOPS   GL111517   9.029   9.148   6.350 -0.0455  0.0258  0.2091
  837YOPS   GL211518   9.317   9.008   6.465 -0.0059  0.3497 -0.2912
  837YOPS   C1A11519   9.007   9.310   6.708 -0.1844  0.2358  0.1495
  837YOPS   D2A11520   8.896   9.247   7.132  0.0785 -0.0062  0.2200
  837YOPS   C3A11521   8.664   9.551   7.380  0.0774  0.0378  0.3230
  837YOPS   C4A11522   8.293   9.776   7.333  0.0268  0.2171 -0.2101
  837YOPS   C1B11523   9.000   8.821   6.727 -0.1104  0.1290 -0.0269
  837YOPS   C2B11524   8.837   8.759   7.190 -0.0131  0.0380  0.2029
  837YOPS   D3B11525   8.669   8.542   7.508 -0.0525 -0.0498 -0.1289
  837YOPS   C4B11526   8.903   8.456   7.815  0.2458 -0.0509  0.0361
  838YOPS   CNO11527  12.021   5.109   5.774 -0.2676  0.3042 -0.1510
  838YOPS   PO411528  11.693   5.105   5.556  0.0070  0.3066  0.1007
  838YOPS   GL111529  11.655   5.306   6.051  0.2333  0.0551 -0.1488
  838YOPS   GL211530  11.393   5.502   6.123  0.1107 -0.0548 -0.2769
  838YOPS   C1A11531  11.791   5.337   6.435 -0.2665 -0.1168  0.1030
  838YOPS   D2A11532  12.180   5.184   6.695  0.2548 -0.0186  0.2793
  838YOPS   C3A11533  12.496   5.090   6.732  0.0686  0.2967  0.0310
  838YOPS   C4A11534  12.677   5.077   7.125 -0.0323 -0.2277 -0.0583
  838YOPS   C1B11535  11.445   5.650   6.584  0.4937 -0.0352  0.1686
  838YOPS   C2B11536  11.399   5.586   7.081  0.1921 -0.1205 -0.0986
  838YOPS   D3B11537  11.507   5.467   7.591  0.0444  0.0556 -0.1531
  838YOPS   C4B11538  11.218   5.479   7.731 -0.0077  0.2947 -0.2150
  839YOPS   CNO11539  15.067  10.109   5.482  0.0011  0.2980  0.0936
  839YOPS   PO411540  14.657   9.908   5.723  0.1671  0.0643  0.3183
  839YOPS   GL111541  14.829   9.867   6.096  0.5667  0.1140 -0.1180
  839YOPS   GL211542  14.611   9.754   6.275 -0.0957  0.1226 -0.0759
  839YOPS   C1A11543  14.838  10.140   6.472  0.1098 -0.2917 -0.0754
  839YOPS   D2A11544  14.821  10.117   6.912  0.0412  0.1247  0.2160
  839YOPS   C3A11545  14.772  10.019   7.371 -0.1179 -0.0051  0.1543
  839YOPS   C4A11546  14.769  10.313   7.604 -0.1073  0.1382  0.1120
  839YOPS   C1B11547  14.649   9.734   6.674  0.0158  0.1553  0.0367
  839YOPS   C2B11548  14.689   9.583   7.063  0.3650  0.0332  0.1573
  839YOPS   D3B11549  14.742   9.477   7.548 -0.0077  0.0618 -0.2243
  839YOPS   C4B11550  15.200   9.367   7.670 -0.0940  0.0467 -0.0496
  840YOPS   CNO11551  15.618   9.497   5.398  0.1922 -0.1427 -0.0462
  840YOPS   PO411552  15.410   9.256   5.618 -0.1003 -0.2172  0.2042
  840YOPS   GL111553  15.565   9.305   5.936  0.0574 -0.1340 -0.2107
  840YOPS   GL211554  15.774   9.624   5.992 -0.0233 -0.1929 -0.1500
  840YOPS   C1A11555  15.562   8.979   6.289 -0.1566 -0.1190 -0.2015
  840YOPS   D2A11556  15.494   9.070   6.646  0.1477  0.0940  0.2153
  840YOPS   C3A11557  15.603   9.063   6.999  0.3871 -0.0844 -0.1722
  840YOPS   C4A11558  15.476   9.405   7.240 -0.2045 -0.0044 -0.0386
  840YOPS   C1B11559  15.596   9.510   6.401  0.0197  0.1794  0.4169
  840YOPS   C2B11560  15.581   9.540   6.749  0.3927 -0.1099  0.0022
  840YOPS   D3B11561  15.923   9.481   6.982  0.4398 -0.0109  0.2145
  840YOPS   C4B11562  16.015   9.160   7.244 -0.0005 -0.2503  0.0821
  841YOPS   CNO11563  16.926   8.805   5.308  0.1666 -0.0843  0.0602
  841YOPS   PO411564  17.241   8.658   5.496 -0.2548  0.0243  0.1043
  841YOPS   GL111565  17.450   8.589   5.898  0.0494 -0.0345 -0.2083
  841YOPS   GL211566  17.509   8.690   6.187  0.0885  0.0523 -0.2559
  841YOPS   C1A11567  17.339   8.192   6.207 -0.0408 -0.1015 -0.1454
  841YOPS   D2A11568  17.181   7.959   6.484 -0.0226  0.0033  0.0036
  841YOPS   C3A11569  17.271   7.715   6.822  0.1203  0.0423 -0.0143
  841YOPS   C4A11570  17.496   7.799   7.078 -0.1216 -0.3272  0.1870
  841YOPS   C1B11571  17.536   8.462   6.529  0.0670 -0.1775 -0.3331
  841YOPS   C2B11572  17.601   8.293   7.011 -0.2167  0.1760  0.0129
  841YOPS   D3B11573  17.550   8.174   7.428  0.0421 -0.0301 -0.2094
  841YOPS   C4B11574  17.394   7.864   7.648  0.1325 -0.0949 -0.2334
  842POPE   NH311575   7.473  14.712   5.779 -0.1056  0.0859  0.0908
  842POPE   PO411576   7.760  14.341   5.820  0.0212 -0.1118  0.2302
  842POPE   GL111577   7.840  14.135   6.259  0.0804  0.2711  0.1719
  842POPE   GL211578   7.932  13.853   6.336  0.0359 -0.1397 -0.0651
  842POPE   C1A11579   7.794  14.264   6.656  0.1115  0.2139  0.0271
  842POPE   D2A11580   7.769  14.267   7.150 -0.0196 -0.2185 -0.0634
  842POPE   C3A11581   7.856  14.428   7.558 -0.0001  0.1959 -0.0016
  842POPE   C4A11582   7.697  14.561   7.976 -0.3031  0.1632 -0.0416
  842POPE   C1B11583   8.214  13.502   6.467 -0.0256  0.2587 -0.0232
  842POPE   C2B11584   8.498  13.211   6.632  0.0623  0.0991  0.1829
  842POPE   C3B11585   8.774  12.887   6.757 -0.0699 -0.0823  0.3698
  842POPE   C4B11586   9.014  12.639   6.422  0.0431 -0.0595  0.2082
  843POPE   NH311587  14.268  15.468   6.569  0.0833  0.0860  0.2720
  843POPE   PO411588  14.384  15.096   6.435 -0.0506 -0.0167 -0.0247
  843POPE   GL111589  14.574  14.963   6.876 -0.0521 -0.0271 -0.1215
  843POPE   GL211590  14.866  14.751   6.905  0.3694  0.1705 -0.1481
  843POPE   C1A11591  14.478  14.997   7.338  0.3689 -0.0301  0.3910
  843POPE   D2A11592  14.691  14.799   7.709  0.3210  0.1332 -0.2166
  843POPE   C3A11593  14.959  14.557   7.932  0.1298  0.0447 -0.1464
  843POPE   C4A11594  15.180  14.559   8.265 -0.1307 -0.1279 -0.2918
  843POPE   C1B11595  15.031  14.630   7.203 -0.0393 -0.0198 -0.1641
  843POPE   C2B11596  15.142  14.868   7.536  0.0849 -0.0613 -0.0130
  843POPE   C3B11597  15.023  15.080   7.957  0.2972 -0.3399  0.0946
  843POPE   C4B11598  14.716  15.107   8.184  0.1882 -0.0942 -0.0607
  844POPE   NH311599   2.524   3.523   5.796  0.0777  0.0278  0.0415
  844POPE   PO411600   2.691   3.995   5.866 -0.2648 -0.0029 -0.0284
  844POPE   GL111601   2.877   4.049   6.213  0.0610  0.2141 -0.0294
  844POPE   GL211602   2.643   4.297   6.281 -0.0302 -0.2420  0.0271
  844POPE   C1A11603   3.171   4.135   6.511 -0.1351 -0.0267  0.2414
  844POPE   D2A11604   3.115   4.205   6.930  0.0414 -0.1336 -0.0264
  844POPE   C3A11605   3.045   4.113   7.415 -0.1990  0.0111  0.1112
  844POPE   C4A11606   2.650   3.970   7.740 -0.2865  0.1200  0.0514
  844POPE   C1B11607   2.785   4.587   6.534  0.0334  0.1016  0.0382
  844POPE   C2B11608   2.837   4.575   6.871 -0.0514 -0.3494 -0.0694
  844POPE   C3B11609   2.745   4.655   7.241  0.0524 -0.1981 -0.3907
  844POPE   C4B11610   2.610   4.515   7.620  0.2606 -0.1881  0.2670
  845POPE   NH311611   5.428  12.113   5.869  0.2330 -0.3030 -0.2836
  845POPE   PO411612   5.056  12.050   5.690  0.1197  0.0469 -0.0696
  845POPE   GL111613   4.937  11.951   6.078 -0.0526  0.1258 -0.2440
  845POPE   GL211614   4.879  12.127   6.332  0.0856  0.2688 -0.1828
  845POPE   C1A11615   4.965  11.510   6.273  0.2741 -0.3391 -0.0296
  845POPE   D2A11616   4.663  11.262   6.498  0.5703 -0.1319  0.0347
  845POPE   C3A11617   4.404  10.974   6.302 -0.2846 -0.0678 -0.2967
  845POPE   C4A11618   4.139  10.644   6.575 -0.0230  0.1360 -0.3403
  845POPE   C1B11619   4.829  11.965   6.812  0.1888  0.0509 -0.1745
  845POPE   C2B11620   4.735  11.598   6.995  0.2365  0.0736  0.1696
  845POPE   C3B11621   4.658  11.162   7.037 -0.0327 -0.0849  0.1562
  845POPE   C4B11622   4.235  10.981   6.990  0.2166 -0.1267  0.0523
  846POPE   NH311623   6.380  11.769   6.181  0.1593  0.3671  0.0682
  846POPE   PO411624   6.170  11.339   6.207  0.1044 -0.0645 -0.0168
  846POPE   GL111625   6.208  11.394   6.539  0.0553 -0.4255  0.1283
  846POPE   GL211626   6.353  11.059   6.656 -0.2303  0.0513 -0.2578
  846POPE   C1A11627   6.009  11.696   6.892 -0.2983  0.2619  0.0574
  846POPE   D2A11628   5.818  11.696   7.318  0.1380 -0.0070 -0.2052
  846POPE   C3A11629   5.953  11.674   7.666  0.1355 -0.3976  0.0394
  846POPE   C4A11630   5.872  11.523   8.106 -0.2889  0.0903 -0.1694
  846POPE   C1B11631   6.348  11.251   7.051  0.0117 -0.1034  0.1509
  846POPE   C2B11632   6.235  11.308   7.437  0.1400  0.0153  0.1560
  846POPE   C3B11633   5.911  11.179   7.686  0.2691  0.0604 -0.0506
  846POPE   C4B11634   5.486  10.944   7.788  0.1492 -0.5367  0.0930
  847POPE   NH311635   5.005   6.936   5.831 -0.0507  0.1389 -0.2113
  847POPE   PO411636   5.453   7.197   5.818 -0.0914 -0.0703  0.0113
  847POPE   GL111637   5.253   7.317   6.231  0.1331  0.2343  0.1676
  847POPE   GL211638   4.828   7.168   6.279 -0.1879  0.0591 -0.1296
  847POPE   C1A11639   5.185   7.216   6.650 -0.0354  0.2299  0.1506
  847POPE   D2A11640   5.219   7.402   7.052 -0.0143 -0.0990 -0.1851
  847POPE   C3A11641   4.948   7.417   7.480  0.2842  0.0872  0.0611
  847POPE   C4A11642   4.641   7.349   7.721 -0.0543 -0.2378  0.4654
  847POPE   C1B11643   4.750   6.999   6.676  0.0087  0.0530 -0.1128
  847POPE   C2B11644   4.634   7.056   7.133 -0.2052  0.0550 -0.3577
  847POPE   C3B11645   4.663   6.817   7.560 -0.0276  0.1284 -0.0830
  847POPE   C4B11646   4.845   6.818   7.958 -0.0625  0.0141  0.0817
  848POPE   NH311647  17.299  12.286   5.950  0.3370 -0.0530 -0.4191
  848POPE   PO411648  17.733  12.340   5.961  0.3295 -0.2581  0.3587
  848POPE   GL111649  17.842  12.245   6.350 -0.0916 -0.2332 -0.4670
  848POPE   GL211650  17.633  11.984   6.392 -0.2005  0.2240  0.1020
  848POPE   C1A11651  17.917  12.247   6.821 -0.0337  0.2368 -0.2548
  848POPE   D2A11652  18.141  12.581   6.989 -0.0518  0.2432  0.1284
  848POPE   C3A11653  18.072  12.882   7.189  0.0924  0.0141  0.0290
  848POPE   C4A11654  17.769  13.160   7.335  0.1220  0.0322  0.0924
  848POPE   C1B11655  17.455  11.846   6.771 -0.1586 -0.3803  0.1541
  848POPE   C2B11656  17.428  11.784   7.178 -0.2591  0.2013 -0.1170
  848POPE   C3B11657  17.576  11.471   7.443 -0.0270 -0.0846 -0.1175
  848POPE   C4B11658  17.724  11.395   7.799  0.1593 -0.0453 -0.0158
  849POPE   NH311659   0.275  12.320   6.045 -0.0333  0.0867  0.0355
  849POPE   PO411660   0.462  12.560   6.373  0.0188  0.2319 -0.0056
  849POPE   GL111661   0.340  12.794   6.587  0.0773  0.0767  0.0204
  849POPE   GL211662   0.031  12.777   6.464 -0.2000 -0.1434 -0.0565
  849POPE   C1A11663   0.590  12.702   7.093  0.1482  0.1455 -0.1942
  849POPE   D2A11664   0.717  12.403   7.345 -0.0226  0.1498 -0.2917
  849POPE   C3A11665   1.085  12.191   7.207  0.0820 -0.1878  0.0082
  849POPE   C4A11666   1.249  12.011   6.809  0.0860 -0.4026  0.0754
  849POPE   C1B11667  -0.219  12.785   6.738  0.2148  0.0503  0.0841
  849POPE   C2B11668  -0.421  12.738   7.051  0.1418  0.1831  0.1191
  849POPE   C3B11669  -0.463  12.358   7.304 -0.1606  0.1646  0.0865
  849POPE   C4B11670  -0.213  12.109   7.403  0.2210  0.2311  0.0546
  850POPE   NH311671   0.555  10.026   5.653  0.2638  0.1735  0.6277
  850POPE   PO411672   0.059  10.023   5.750 -0.0416  0.0163 -0.0493
  850POPE   GL111673  -0.132   9.796   6.066  0.0755 -0.0124  0.1667
  850POPE   GL211674  -0.178  10.019   6.200  0.1527 -0.0363 -0.2881
  850POPE   C1A11675  -0.044   9.479   6.283  0.0561 -0.0618 -0.2736
  850POPE   D2A11676  -0.101   9.438   6.799  0.0911  0.2984 -0.0018
  850POPE   C3A11677  -0.219   9.827   7.045  0.0130 -0.3402 -0.1732
  850POPE   C4A11678  -0.244   9.929   7.464  0.1871  0.0192  0.0772
  850POPE   C1B11679  -0.346   9.903   6.558 -0.0701  0.1291 -0.2026
  850POPE   C2B11680  -0.673   9.919   6.817 -0.2464 -0.0844 -0.1981
  850POPE   C3B11681  -0.899   9.743   7.103  0.1807 -0.0456  0.1142
  850POPE   C4B11682  -1.258   9.681   7.380  0.0007 -0.1677  0.1869
  851POPE   NH311683  16.212  15.389   6.632  0.2757 -0.2656 -0.0504
  851POPE   PO411684  16.677  15.396   6.792 -0.2693  0.0446  0.0395
  851POPE   GL111685  16.753  15.354   7.203  0.1678 -0.0131 -0.0890
  851POPE   GL211686  16.828  15.645   7.232  0.0283 -0.0599 -0.1647
  851POPE   C1A11687  16.736  15.223   7.607 -0.2290 -0.1569  0.1202
  851POPE   D2A11688  16.758  15.082   8.033 -0.2064 -0.3139 -0.0372
  851POPE   C3A11689  16.684  15.446   8.409 -0.0305  0.2347  0.2125
  851POPE   C4A11690  16.509  15.485   8.824 -0.0515  0.1193 -0.1355
  851POPE   C1B11691  16.756  15.726   7.732 -0.0415  0.1086 -0.2011
  851POPE   C2B11692  16.923  15.845   8.110 -0.1137 -0.1987 -0.2350
  851POPE   C3B11693  17.158  15.854   8.472 -0.0347 -0.3033 -0.3192
  851POPE   C4B11694  17.468  15.981   8.723 -0.2224  0.0067 -0.1189
  852POPE   NH311695  12.996   0.387   6.174  0.0760 -0.1534 -0.0954
  852POPE   PO411696  12.895   0.662   6.506  0.1428  0.1423  0.3391
  852POPE   GL111697  12.917   0.595   6.857  0.0212 -0.1837  0.1942
  852POPE   GL211698  13.141   0.703   7.007  0.3550  0.0960 -0.1276
  852POPE   C1A11699  12.807   0.356   7.114 -0.1167 -0.1126  0.0923
  852POPE   D2A11700  12.813   0.042   7.457 -0.2932  0.0748  0.1747
  852POPE   C3A11701  13.178   0.026   7.857  0.1400  0.0841  0.1197
  852POPE   C4A11702  13.262  -0.000   8.294  0.0694  0.1277 -0.2009
  852POPE   C1B11703  12.845   0.816   7.360  0.1086 -0.2717 -0.3570
  852POPE   C2B11704  12.571   0.505   7.579 -0.2375  0.2165  0.0036
  852POPE   C3B11705  12.424   0.438   7.940 -0.0446 -0.0294 -0.1190
  852POPE   C4B11706  12.147   0.608   8.271  0.1991  0.0926  0.0815
  853POPE   NH311707  11.671  13.427   6.282 -0.1691  0.2758  0.2334
  853POPE   PO411708  11.410  13.860   6.294  0.0855 -0.0321  0.1263
  853POPE   GL111709  11.269  13.521   6.546 -0.1245  0.1517  0.0526
  853POPE   GL211710  10.879  13.454   6.596 -0.0252 -0.3070  0.0676
  853POPE   C1A11711  11.356  13.664   6.909  0.1270  0.1034 -0.0736
  853POPE   D2A11712  11.460  13.600   7.266 -0.1029  0.2594  0.0017
  853POPE   C3A11713  11.583  13.256   7.293 -0.3642  0.1415  0.0850
  853POPE   C4A11714  11.917  13.204   7.603 -0.1349 -0.0467  0.4064
  853POPE   C1B11715  10.920  13.433   7.047  0.0434 -0.3623 -0.1261
  853POPE   C2B11716  10.956  13.595   7.414  0.4590 -0.0205  0.2325
  853POPE   C3B11717  10.666  13.655   7.858 -0.0523  0.1287  0.3237
  853POPE   C4B11718  10.364  13.773   8.226 -0.0814  0.0239  0.1001
  854POPE   NH311719  15.617   5.533   5.757 -0.1462 -0.0024 -0.3223
  854POPE   PO411720  15.209   5.534   5.628 -0.0551  0.0471  0.5234
  854POPE   GL111721  15.173   5.510   5.999 -0.3013 -0.0724  0.0924
  854POPE   GL211722  15.365   5.667   6.254 -0.0195  0.1119 -0.1295
  854POPE   C1A11723  15.135   5.308   6.423  0.2319 -0.1330 -0.2754
  854POPE   D2A11724  15.009   5.260   6.835  0.0557 -0.0717 -0.1091
  854POPE   C3A11725  15.192   5.574   7.095  0.1467  0.1505  0.0649
  854POPE   C4A11726  15.171   6.010   7.232  0.0636  0.3233 -0.0138
  854POPE   C1B11727  15.053   5.761   6.481 -0.2333  0.1086  0.0345
  854POPE   C2B11728  14.783   5.748   6.791  0.4822  0.3151 -0.0168
  854POPE   C3B11729  14.686   5.783   7.175  0.2603 -0.2787  0.0950
  854POPE   C4B11730  14.443   5.661   7.448 -0.0800 -0.0839  0.3453
  855POPE   NH311731  13.888  14.775   6.240  0.2761  0.3219 -0.1832
  855POPE   PO411732  13.852  15.168   6.478 -0.3395  0.2231 -0.2639
  855POPE   GL111733  13.954  14.952   6.853 -0.0703 -0.0876  0.0715
  855POPE   GL211734  14.049  15.331   6.979  0.1210 -0.1076 -0.0500
  855POPE   C1A11735  14.075  14.703   7.140  0.2454 -0.1511 -0.2059
  855POPE   D2A11736  14.212  14.505   7.458 -0.2479 -0.0269  0.1073
  855POPE   C3A11737  14.067  14.368   7.756  0.2073  0.2731 -0.1395
  855POPE   C4A11738  14.146  14.393   8.208  0.0200 -0.0370  0.1753
  855POPE   C1B11739  14.047  15.252   7.478  0.1273 -0.0720 -0.1032
  855POPE   C2B11740  14.067  14.908   7.642  0.2015 -0.3186 -0.1916
  855POPE   C3B11741  14.270  14.888   7.986 -0.0343  0.0184 -0.0155
  855POPE   C4B11742  14.578  14.624   8.306  0.0977 -0.2950  0.1873
  856POPE   NH311743  14.711  13.635   6.383  0.2333  0.0882  0.1671
  856POPE   PO411744  14.191  13.507   6.425 -0.1563 -0.0656  0.2062
  856POPE   GL111745  14.544  13.407   6.820  0.1603  0.1267 -0.1842
  856POPE   GL211746  14.752  13.135   6.959  0.0268  0.1184 -0.1505
  856POPE   C1A11747  14.500  13.388   7.302 -0.1659  0.3078 -0.2409
  856POPE   D2A11748  14.704  13.282   7.746 -0.1837  0.0792  0.2961
  856POPE   C3A11749  14.610  12.945   8.013 -0.2217 -0.0992  0.0660
  856POPE   C4A11750  14.338  13.020   8.352 -0.0682  0.0770  0.1090
  856POPE   C1B11751  15.068  12.988   7.325  0.1445  0.1409  0.0794
  856POPE   C2B11752  15.118  12.966   7.687 -0.3060  0.1271  0.1481
  856POPE   C3B11753  15.120  13.235   8.043  0.2174  0.0666 -0.0520
  856POPE   C4B11754  15.259  13.635   8.311 -0.1931 -0.0240 -0.0104
  857POPE   NH311755  10.919   8.391   5.989  0.1214 -0.1352  0.2247
  857POPE   PO411756  11.340   8.404   6.043  0.0264  0.0663 -0.1623
  857POPE   GL111757  11.297   8.266   6.411 -0.1664  0.3627 -0.1018
  857POPE   GL211758  11.345   7.956   6.444 -0.1564 -0.1413 -0.1827
  857POPE   C1A11759  11.465   8.226   6.865 -0.0034 -0.1486 -0.0406
  857POPE   D2A11760  11.525   8.090   7.268 -0.2070 -0.2113 -0.1075
  857POPE   C3A11761  11.751   8.450   7.439 -0.2093 -0.1595 -0.0478
  857POPE   C4A11762  11.574   8.690   7.789  0.2307  0.0281 -0.0870
  857POPE   C1B11763  11.465   7.681   6.701  0.0705  0.0895 -0.1550
  857POPE   C2B11764  11.274   7.591   7.073 -0.4513  0.2713  0.2062
  857POPE   C3B11765  11.001   7.457   7.409 -0.0314 -0.0200 -0.0219
  857POPE   C4B11766  10.872   7.239   7.838 -0.1437 -0.2489  0.0579
  858POPE   NH311767  15.464  13.707   6.134 -0.0851 -0.3650 -0.2994
  858POPE   PO411768  15.147  13.826   6.409 -0.2585  0.2683  0.0601
  858POPE   GL111769  14.886  13.896   6.764 -0.2688  0.1989 -0.2361
  858POPE   GL211770  15.063  14.237   6.828 -0.4220  0.0335  0.0837
  858POPE   C1A11771  14.817  13.766   7.159 -0.0301  0.2584  0.0455
  858POPE   D2A11772  15.010  13.536   7.457 -0.1468 -0.1684 -0.0381
  858POPE   C3A11773  15.176  13.604   7.710 -0.2149 -0.1230 -0.3544
  858POPE   C4A11774  15.569  13.678   7.935  0.1112  0.1627 -0.1248
  858POPE   C1B11775  15.190  14.159   7.294  0.0575 -0.0970 -0.1598
  858POPE   C2B11776  15.096  14.108   7.744  0.1891 -0.0944 -0.0475
  858POPE   C3B11777  15.227  14.088   8.094 -0.0904 -0.2396  0.1002
  858POPE   C4B11778  15.621  14.302   8.197  0.1471  0.0273  0.0835
  859POPE   NH311779   6.510  15.470   6.375  0.1016 -0.0220 -0.1556
  859POPE   PO411780   6.885  15.656   6.415 -0.2346  0.1688  0.1147
  859POPE   GL111781   6.656  15.925   6.649 -0.0357  0.0220  0.2930
  859POPE   GL211782   6.409  16.024   6.965 -0.2546 -0.1013 -0.2798
  859POPE   C1A11783   6.860  15.941   7.066  0.0455 -0.3273  0.2751
  859POPE   D2A11784   7.072  15.769   7.356 -0.1738 -0.0556  0.0199
  859POPE   C3A11785   6.772  15.397   7.378 -0.4717 -0.1788 -0.2836
  859POPE   C4A11786   6.476  15.204   7.658 -0.2182  0.2871 -0.2744
  859POPE   C1B11787   6.474  16.005   7.357 -0.3098 -0.1465 -0.1141
  859POPE   C2B11788   6.678  15.754   7.713 -0.4239 -0.0381 -0.3083
  859POPE   C3B11789   6.951  15.423   8.015 -0.1243 -0.0046 -0.1280
  859POPE   C4B11790   7.260  15.312   8.272 -0.0897 -0.1060 -0.2137
  860POPE   NH311791  12.225  10.288   5.769  0.0293 -0.1358  0.0891
  860POPE   PO411792  11.959   9.982   5.870  0.0430  0.2455  0.3368
  860POPE   GL111793  11.955  10.001   6.314 -0.1235  0.0388 -0.1696
  860POPE   GL211794  11.686   9.806   6.285  0.1127 -0.0110 -0.3642
  860POPE   C1A11795  12.077   9.598   6.598 -0.1132  0.1426  0.2542
  860POPE   D2A11796  12.225   9.583   6.958 -0.1038  0.0531  0.0775
  860POPE   C3A11797  12.177   9.275   7.216  0.1256  0.0189 -0.2744
  860POPE   C4A11798  11.907   8.960   7.303 -0.0636 -0.2865  0.1429
  860POPE   C1B11799  11.607   9.659   6.670 -0.3331 -0.2500  0.0149
  860POPE   C2B11800  11.696   9.575   7.029 -0.1757 -0.1434 -0.0828
  860POPE   C3B11801  11.811   9.540   7.398 -0.3234 -0.0487 -0.0780
  860POPE   C4B11802  12.049   9.345   7.734  0.1611  0.1047 -0.2140
  861POPE   NH311803  11.107   5.916   6.025  0.1687 -0.0499 -0.1248
  861POPE   PO411804  10.718   5.703   6.073 -0.0275  0.0685  0.1457
  861POPE   GL111805  10.937   5.607   6.471 -0.0395  0.1512  0.1748
  861POPE   GL211806  10.938   5.837   6.543 -0.1373 -0.0416 -0.1925
  861POPE   C1A11807  11.013   5.426   6.811 -0.1454 -0.3350  0.2218
  861POPE   D2A11808  10.948   5.009   6.957  0.1746  0.0485 -0.2281
  861POPE   C3A11809  11.229   4.764   6.957 -0.2549  0.0562 -0.0631
  861POPE   C4A11810  11.557   4.593   6.786  0.0341  0.0243  0.0922
  861POPE   C1B11811  10.983   5.848   7.012 -0.1484 -0.2017  0.0060
  861POPE   C2B11812  11.022   5.937   7.372  0.1237 -0.0429  0.0133
  861POPE   C3B11813  11.099   6.023   7.825 -0.1688 -0.0961  0.0425
  861POPE   C4B11814  11.167   5.843   8.136  0.3514  0.4036  0.1379
  862POPE   NH311815  14.510   7.901   5.521  0.1083  0.1561  0.0449
  862POPE   PO411816  14.177   8.170   5.602 -0.0923 -0.0756  0.4858
  862POPE   GL111817  14.077   8.133   6.057 -0.1326  0.0952 -0.2122
  862POPE   GL211818  13.863   7.993   6.025 -0.3205  0.3348 -0.0368
  862POPE   C1A11819  14.240   8.263   6.337  0.1572  0.3001 -0.3108
  862POPE   D2A11820  14.451   8.083   6.651  0.0329 -0.0130  0.0202
  862POPE   C3A11821  14.638   7.712   6.474 -0.0159  0.2296 -0.2459
  862POPE   C4A11822  14.509   7.383   6.444 -0.0935  0.0407  0.1290
  862POPE   C1B11823  13.582   7.772   6.307 -0.2104 -0.0067  0.0327
  862POPE   C2B11824  13.583   7.433   6.739 -0.0835  0.1709  0.0826
  862POPE   C3B11825  13.577   7.171   7.125  0.0091  0.4610  0.1078
  862POPE   C4B11826  13.792   7.089   7.543 -0.3356  0.1021  0.0809
  863POPE   NH311827   8.142  16.691   6.369 -0.1056  0.0831 -0.1376
  863POPE   PO411828   8.605  16.809   6.240  0.2894 -0.0530  0.2836
  863POPE   GL111829   8.608  16.831   6.697  0.1403  0.1399 -0.1502
  863POPE   GL211830   8.446  16.568   6.781  0.0352  0.0692 -0.1343
  863POPE   C1A11831   8.722  16.873   7.095 -0.1250  0.2335  0.1032
  863POPE   D2A11832   8.900  17.075   7.410  0.2150  0.0465 -0.0410
  863POPE   C3A11833   9.143  17.053   7.765 -0.0278  0.0882 -0.2953
  863POPE   C4A11834   9.437  16.879   8.006  0.2931  0.0110  0.5158
  863POPE   C1B11835   8.422  16.386   7.239 -0.0213 -0.2428  0.0684
  863POPE   C2B11836   8.375  16.292   7.556 -0.2546  0.1181  0.1670
  863POPE   C3B11837   8.362  16.516   7.921 -0.2268 -0.0412 -0.0266
  863POPE   C4B11838   8.397  16.714   8.364 -0.2070 -0.3365 -0.1471
  864POPE   NH311839  13.244   8.728   5.596 -0.0360 -0.1628 -0.1847
  864POPE   PO411840  12.875   8.426   5.527  0.1349  0.0205 -0.2678
  864POPE   GL111841  12.920   8.237   5.890 -0.1488 -0.1227 -0.1238
  864POPE   GL211842  13.086   8.404   6.174 -0.0266  0.1226 -0.0760
  864POPE   C1A11843  12.679   8.179   6.290 -0.0122 -0.1861  0.2073
  864POPE   D2A11844  12.747   8.039   6.704  0.0547  0.0937  0.1791
  864POPE   C3A11845  12.983   8.011   7.003  0.0571 -0.0816 -0.2455
  864POPE   C4A11846  13.065   7.978   7.456 -0.1607 -0.0587  0.1311
  864POPE   C1B11847  13.080   8.473   6.636  0.0928  0.0953 -0.1611
  864POPE   C2B11848  12.974   8.654   7.025 -0.0118  0.0483 -0.0300
  864POPE   C3B11849  12.832   8.473   7.443 -0.0119  0.4185 -0.1813
  864POPE   C4B11850  12.538   8.604   7.741 -0.1365 -0.2232  0.2828
  865POPE   NH311851  12.087   1.727   6.462  0.1964 -0.2581  0.2478
  865POPE   PO411852  11.980   1.405   6.185 -0.2229 -0.1142  0.0730
  865POPE   GL111853  11.768   1.283   6.554  0.1336  0.0095 -0.0397
  865POPE   GL211854  12.076   1.203   6.744 -0.0412  0.4041 -0.1857
  865POPE   C1A11855  11.717   1.143   7.023 -0.1418 -0.2018  0.2825
  865POPE   D2A11856  11.491   0.959   7.338 -0.0283  0.3315 -0.2999
  865POPE   C3A11857  11.682   0.923   7.747  0.0352 -0.0340 -0.4011
  865POPE   C4A11858  11.755   0.922   8.199  0.0725 -0.5155 -0.0022
  865POPE   C1B11859  12.220   1.211   7.200 -0.2414 -0.0019 -0.0835
  865POPE   C2B11860  12.210   1.393   7.572 -0.1012  0.0749 -0.1051
  865POPE   C3B11861  12.086   1.688   7.870  0.4137  0.0684 -0.0508
  865POPE   C4B11862  11.887   2.034   7.914 -0.2344 -0.0319 -0.0102
  866POPE   NH311863   2.612   6.604   5.705  0.1488  0.0017 -0.0439
  866POPE   PO411864   2.937   6.946   5.586  0.0301  0.0766  0.0452
  866POPE   GL111865   3.003   6.900   5.980  0.1936  0.2603 -0.0337
  866POPE   GL211866   2.769   6.795   6.183 -0.0940 -0.1405 -0.0755
  866POPE   C1A11867   3.221   6.595   6.134 -0.2211 -0.1362 -0.2340
  866POPE   D2A11868   3.423   6.146   6.196  0.0291 -0.0267  0.0605
  866POPE   C3A11869   3.536   6.137   6.652  0.2170  0.3683  0.2794
  866POPE   C4A11870   3.661   5.840   6.922  0.0282 -0.1574  0.1322
  866POPE   C1B11871   2.729   6.669   6.538  0.1495  0.1173  0.0837
  866POPE   C2B11872   2.823   6.609   6.987  0.1423 -0.0698  0.2145
  866POPE   C3B11873   2.916   6.706   7.372  0.1293 -0.0387 -0.0333
  866POPE   C4B11874   2.758   6.754   7.812 -0.1284 -0.3085  0.0802
  867POPE   NH311875   1.195   1.022   5.902  0.1095 -0.0451  0.0672
  867POPE   PO411876   0.913   0.704   5.811 -0.2177 -0.0916 -0.2286
  867POPE   GL111877   0.979   0.650   6.273 -0.0725  0.0395  0.3522
  867POPE   GL211878   0.947   0.910   6.502 -0.1547  0.0505 -0.0681
  867POPE   C1A11879   1.191   0.499   6.558 -0.0731  0.2957  0.3263
  867POPE   D2A11880   1.338   0.343   6.936 -0.0453 -0.1143  0.1147
  867POPE   C3A11881   1.650   0.188   6.993  0.1452  0.1802  0.0069
  867POPE   C4A11882   2.073   0.065   7.165 -0.0542  0.1625 -0.0176
  867POPE   C1B11883   1.007   0.814   6.957  0.0884  0.0388  0.0246
  867POPE   C2B11884   1.191   0.676   7.395 -0.2594  0.0067  0.0442
  867POPE   C3B11885   1.304   0.501   7.736 -0.0062 -0.1216 -0.3009
  867POPE   C4B11886   1.271   0.342   8.167 -0.3563 -0.1439 -0.2525
  868POPE   NH311887   6.008   6.575   5.566 -0.1828 -0.0429  0.0113
  868POPE   PO411888   6.263   6.594   5.923 -0.0664  0.0785  0.2116
  868POPE   GL111889   5.959   6.706   6.204 -0.2544  0.2838 -0.1300
  868POPE   GL211890   5.819   7.028   6.026  0.0410  0.1040  0.1423
  868POPE   C1A11891   5.937   6.578   6.692 -0.0712  0.0485  0.4403
  868POPE   D2A11892   5.776   6.598   7.116 -0.1427  0.0199 -0.1341
  868POPE   C3A11893   6.064   6.649   7.403 -0.0785 -0.0369 -0.0768
  868POPE   C4A11894   6.194   6.518   7.687 -0.0785 -0.0367  0.0956
  868POPE   C1B11895   5.733   7.045   6.508  0.1261  0.2481  0.0729
  868POPE   C2B11896   5.768   7.076   6.889 -0.3967 -0.1364 -0.1790
  868POPE   C3B11897   5.775   7.140   7.292  0.0152 -0.0995 -0.2428
  868POPE   C4B11898   5.472   7.325   7.533  0.2397 -0.3022 -0.2989
  869POPE   NH311899  13.846   1.155   6.381 -0.1458 -0.0526  0.0847
  869POPE   PO411900  13.854   1.605   6.306 -0.2591  0.2189 -0.0199
  869POPE   GL111901  14.133   1.532   6.610  0.0723 -0.1987 -0.0908
  869POPE   GL211902  14.350   1.335   6.543 -0.3727  0.1410 -0.0190
  869POPE   C1A11903  14.622   1.621   6.809 -0.0593 -0.1961 -0.3317
  869POPE   D2A11904  14.791   1.787   7.122 -0.1810 -0.0010 -0.1256
  869POPE   C3A11905  14.541   1.703   7.458 -0.0667 -0.0793 -0.2578
  869POPE   C4A11906  14.536   1.599   7.818  0.1352 -0.3008 -0.2220
  869POPE   C1B11907  14.325   1.240   6.991  0.0909 -0.0786 -0.0285
  869POPE   C2B11908  14.249   1.324   7.478 -0.2344  0.0611 -0.0644
  869POPE   C3B11909  14.122   1.254   7.890 -0.0528  0.1706 -0.0384
  869POPE   C4B11910  14.302   1.315   8.305  0.2336  0.0989 -0.0435
  870POPE   NH311911  16.314  13.884   6.042  0.0867  0.0670  0.0648
  870POPE   PO411912  15.842  14.008   6.023 -0.2483 -0.0007 -0.1236
  870POPE   GL111913  15.956  13.959   6.411 -0.1830 -0.1820 -0.0481
  870POPE   GL211914  16.241  13.695   6.518  0.2482  0.2162  0.1570
  870POPE   C1A11915  16.060  14.143   6.821  0.1231  0.1250 -0.1476
  870POPE   D2A11916  16.092  14.072   7.325 -0.0639 -0.0225 -0.0760
  870POPE   C3A11917  15.993  14.396   7.565  0.2116 -0.1039  0.0417
  870POPE   C4A11918  15.914  14.835   7.450  0.2637 -0.0346  0.0973
  870POPE   C1B11919  16.045  13.644   6.887  0.2149 -0.1864  0.2172
  870POPE   C2B11920  16.052  13.449   7.182 -0.0126 -0.1140 -0.2664
  870POPE   C3B11921  15.979  13.539   7.725 -0.0420 -0.0695  0.1201
  870POPE   C4B11922  15.996  13.892   7.964  0.1039  0.0086 -0.0059
  871POPE   NH311923  15.176   1.437   6.080 -0.4734  0.1811  0.0385
  871POPE   PO411924  15.376   1.721   5.770  0.0673  0.0168 -0.0150
  871POPE   GL111925  15.380   1.913   6.178 -0.1741 -0.0114  0.2109
  871POPE   GL211926  15.477   1.695   6.362  0.0786  0.0686 -0.1076
  871POPE   C1A11927  15.792   2.048   6.355 -0.1506  0.1865 -0.0958
  871POPE   D2A11928  16.281   2.087   6.354 -0.1218 -0.1303 -0.1228
  871POPE   C3A11929  16.545   1.952   6.815 -0.0823 -0.0463 -0.0423
  871POPE   C4A11930  16.970   1.925   7.050  0.1694  0.0269  0.0457
  871POPE   C1B11931  15.460   1.775   6.793  0.1001  0.0731 -0.3379
  871POPE   C2B11932  15.528   2.047   7.118 -0.0900 -0.0626  0.1696
  871POPE   C3B11933  15.607   2.145   7.515  0.1651  0.0594  0.0498
  871POPE   C4B11934  15.556   1.939   7.917  0.2308  0.0778 -0.1727
  872YOPE   NH311935  16.364  12.225   5.908  0.0946  0.0419 -0.3234
  872YOPE   PO411936  15.873  12.156   6.033  0.1225 -0.0486  0.0559
  872YOPE   GL111937  16.183  12.026   6.363 -0.0285  0.0864  0.0492
  872YOPE   GL211938  16.161  11.805   6.471 -0.0068 -0.0766 -0.0558
  872YOPE   C1A11939  16.413  12.242   6.653 -0.2089  0.0512 -0.2728
  872YOPE   D2A11940  16.268  12.362   7.020 -0.2724 -0.0812 -0.1733
  872YOPE   C3A11941  16.147  11.979   7.334 -0.1792 -0.1142  0.3424
  872YOPE   C4A11942  16.098  11.624   7.422 -0.1478 -0.2678 -0.3282
  872YOPE   C1B11943  16.095  11.758   6.798 -0.2083  0.1879  0.1887
  872YOPE   C2B11944  15.794  11.580   7.060  0.1359 -0.1667 -0.1689
  872YOPE   D3B11945  15.538  11.532   7.519 -0.1675  0.3998  0.1251
  872YOPE   C4B11946  15.259  11.152   7.559 -0.2236  0.1097  0.0983
  873YOPE   NH311947   0.187   8.116   5.738  0.2858 -0.0709 -0.1582
  873YOPE   PO411948   0.415   8.531   5.666 -0.1707 -0.1055  0.0396
  873YOPE   GL111949   0.281   8.605   6.020  0.0779 -0.0509  0.1928
  873YOPE   GL211950   0.016   8.742   6.003 -0.1527 -0.0144  0.2288
  873YOPE   C1A11951   0.346   8.877   6.310 -0.1706  0.1702 -0.2610
  873YOPE   D2A11952   0.227   8.863   6.734  0.0097 -0.0260  0.1873
  873YOPE   C3A11953   0.187   9.140   7.086 -0.0073 -0.0746  0.0707
  873YOPE   C4A11954   0.429   9.184   7.512  0.3399 -0.3853 -0.1019
  873YOPE   C1B11955  -0.129   8.989   6.392 -0.0521 -0.3150 -0.0278
  873YOPE   C2B11956  -0.247   8.872   6.814  0.0695  0.1723  0.3488
  873YOPE   D3B11957  -0.245   8.720   7.250  0.1618  0.1905 -0.4135
  873YOPE   C4B11958  -0.213   8.544   7.676  0.0348  0.1647  0.1032
  874YOPE   NH311959   8.763  16.357   6.217 -0.1533  0.1492 -0.2997
  874YOPE   PO411960   8.453  16.244   6.378  0.0520 -0.3064 -0.0913
  874YOPE   GL111961   8.575  16.072   6.699 -0.1491  0.1397  0.0726
  874YOPE   GL211962   8.689  15.822   6.742  0.1871  0.0615  0.2150
  874YOPE   C1A11963   8.254  15.923   7.050 -0.1235 -0.1799 -0.0181
  874YOPE   D2A11964   8.159  15.791   7.452 -0.0368  0.0089 -0.1462
  874YOPE   C3A11965   8.445  15.774   7.689  0.0474 -0.0103 -0.1129
  874YOPE   C4A11966   8.497  15.789   8.083 -0.0563 -0.1673  0.0844
  874YOPE   C1B11967   8.903  15.830   6.983  0.0524  0.0714 -0.1553
  874YOPE   C2B11968   8.738  16.004   7.350  0.3127  0.0447 -0.1084
  874YOPE   D3B11969   8.800  16.180   7.783 -0.1788  0.3149  0.3056
  874YOPE   C4B11970   8.841  16.403   8.120  0.2128 -0.0356 -0.0907
  875YOPE   NH311971   1.529   9.626   5.648  0.2134  0.3086 -0.1175
  875YOPE   PO411972   1.282   9.952   5.628  0.3927 -0.0678 -0.1556
  875YOPE   GL111973   1.105   9.817   6.066 -0.0473 -0.2371 -0.0455
  875YOPE   GL211974   0.884   9.977   6.005 -0.3017  0.0283 -0.1205
  875YOPE   C1A11975   1.254   9.472   6.362  0.1629 -0.2953 -0.1546
  875YOPE   D2A11976   1.193   9.433   6.764  0.0563 -0.0254 -0.2763
  875YOPE   C3A11977   1.393   9.038   6.849  0.0821 -0.3181 -0.0426
  875YOPE   C4A11978   1.137   8.724   7.069 -0.1623 -0.2530 -0.1578
  875YOPE   C1B11979   0.771  10.182   6.326  0.0544 -0.0812 -0.1656
  875YOPE   C2B11980   0.737  10.292   6.783 -0.0845 -0.1554 -0.0314
  875YOPE   D3B11981   0.908  10.370   7.071 -0.0117 -0.0526 -0.1141
  875YOPE   C4B11982   1.136  10.443   7.422  0.1293 -0.0852  0.1240
  876YOPE   NH311983  17.194  17.248   6.516  0.0286 -0.1143  0.0023
  876YOPE   PO411984  17.440  16.853   6.535  0.0768  0.2466  0.0145
  876YOPE   GL111985  17.329  16.631   6.923  0.1395 -0.1073  0.0502
  876YOPE   GL211986  17.002  16.486   6.866  0.0353 -0.1750  0.0259
  876YOPE   C1A11987  17.302  16.501   7.424  0.2390 -0.1651  0.0522
  876YOPE   D2A11988  17.445  16.617   7.845 -0.1406  0.0480  0.0243
  876YOPE   C3A11989  17.312  16.815   8.185  0.1539  0.0229 -0.0998
  876YOPE   C4A11990  17.397  16.808   8.603  0.2222 -0.2097 -0.2233
  876YOPE   C1B11991  16.871  16.298   7.243 -0.1307  0.0880  0.1255
  876YOPE   C2B11992  16.909  16.265   7.702  0.2941 -0.0245 -0.0905
  876YOPE   D3B11993  17.135  16.280   8.095  0.0121 -0.1756 -0.1726
  876YOPE   C4B11994  17.534  16.217   8.317 -0.2763 -0.0027  0.1114
  877YOPE   NH311995  15.057   2.204   5.891  0.2362 -0.0644  0.1631
  877YOPE   PO411996  15.232   2.520   5.560 -0.1553  0.1116 -0.1970
  877YOPE   GL111997  15.253   2.688   6.011 -0.0654  0.1492  0.0205
  877YOPE   GL211998  15.514   2.477   6.216  0.1881 -0.0330  0.2423
  877YOPE   C1A11999  15.250   3.104   6.197  0.0529 -0.0772  0.0493
  877YOPE   D2A12000  15.136   3.462   6.336 -0.2592  0.1203  0.1206
  877YOPE   C3A12001  15.160   3.664   6.607  0.1840  0.4182 -0.2382
  877YOPE   C4A12002  15.397   3.830   6.973 -0.0688  0.0897 -0.0364
  877YOPE   C1B12003  15.462   2.294   6.621  0.0504 -0.1918  0.0731
  877YOPE   C2B12004  15.498   2.580   6.985 -0.0441  0.0458  0.0232
  877YOPE   D3B12005  15.315   2.834   7.402 -0.1439 -0.0038  0.3057
  877YOPE   C4B12006  15.064   3.084   7.462 -0.0085  0.1075  0.1779
  878YOPE   NH312007   5.372   4.133   5.855  0.0508  0.0941 -0.1244
  878YOPE   PO412008   5.727   4.356   5.610  0.0025 -0.1449  0.0200
  878YOPE   GL112009   5.805   4.360   6.034  0.1338  0.1736  0.0538
  878YOPE   GL212010   6.137   4.480   6.093  0.0840 -0.2283 -0.1456
  878YOPE   C1A12011   5.842   4.173   6.345  0.2118 -0.0932  0.1182
  878YOPE   D2A12012   5.825   3.970   6.776  0.2445 -0.0089 -0.0829
  878YOPE   C3A12013   5.737   4.148   7.217 -0.1871 -0.3449 -0.1068
  878YOPE   C4A12014   5.796   4.387   7.587  0.1204  0.2041  0.2525
  878YOPE   C1B12015   6.064   4.707   6.429 -0.4463 -0.0469  0.0384
  878YOPE   C2B12016   6.163   4.532   6.823 -0.1372 -0.2576 -0.0267
  878YOPE   D3B12017   6.156   4.602   7.328 -0.1484  0.2235 -0.1098
  878YOPE   C4B12018   6.250   4.577   7.768  0.3296 -0.0156 -0.2005
  879YOPE   NH312019   7.633  12.138   5.900  0.1115  0.0417  0.2428
  879YOPE   PO412020   7.951  12.241   6.154 -0.0699 -0.3339  0.1435
  879YOPE   GL112021   8.035  12.402   6.516 -0.0055  0.0747  0.2672
  879YOPE   GL212022   7.834  12.208   6.703 -0.2937  0.0117 -0.2075
  879YOPE   C1A12023   8.298  12.722   6.724 -0.2313 -0.1343  0.1235
  879YOPE   D2A12024   8.499  12.772   7.143  0.0270 -0.0398  0.1400
  879YOPE   C3A12025   8.592  12.553   7.546  0.2893  0.0373  0.1167
  879YOPE   C4A12026   8.641  12.530   7.989 -0.2216  0.0383  0.3093
  879YOPE   C1B12027   7.934  12.055   7.170 -0.1658 -0.2453 -0.1584
  879YOPE   C2B12028   7.935  11.905   7.655  0.0892  0.2541 -0.1169
  879YOPE   D3B12029   7.777  11.880   8.078  0.1025 -0.0790  0.3728
  879YOPE   C4B12030   7.969  12.199   8.451  0.3769  0.0253 -0.2615
  880YOPE   NH312031   2.499   8.359   5.735 -0.0673 -0.1004 -0.3175
  880YOPE   PO412032   2.373   8.810   5.574  0.1871  0.0184 -0.1245
  880YOPE   GL112033   2.530   8.832   6.066 -0.2881 -0.0260 -0.0667
  880YOPE   GL212034   2.709   8.579   6.147 -0.1028 -0.1329  0.2626
  880YOPE   C1A12035   2.502   8.755   6.550 -0.3404  0.1620 -0.0762
  880YOPE   D2A12036   2.489   8.881   7.005 -0.0020 -0.3948  0.0268
  880YOPE   C3A12037   2.666   9.036   7.514  0.0241 -0.4927 -0.2374
  880YOPE   C4A12038   2.603   9.196   7.946  0.0075 -0.0135  0.0176
  880YOPE   C1B12039   3.001   8.680   6.593  0.4418 -0.1846  0.0515
  880YOPE   C2B12040   3.057   8.855   7.008  0.1981 -0.0095  0.1534
  880YOPE   D3B12041   3.145   9.050   7.401 -0.0462 -0.3515 -0.2544
  880YOPE   C4B12042   3.088   9.135   7.860 -0.2188 -0.2114 -0.2900
  881YOPE   NH312043   6.890  13.717   6.234 -0.2076 -0.2299  0.3265
  881YOPE   PO412044   6.895  14.184   6.108  0.0939  0.0288  0.2366
  881YOPE   GL112045   7.055  14.083   6.574 -0.0943  0.1824 -0.1329
  881YOPE   GL212046   7.406  13.882   6.599 -0.0828 -0.0380  0.0576
  881YOPE   C1A12047   7.057  13.885   6.987 -0.2336  0.0987 -0.0095
  881YOPE   D2A12048   6.806  13.757   7.359 -0.0998 -0.2344  0.1431
  881YOPE   C3A12049   6.925  13.354   7.635  0.0696 -0.2515  0.5487
  881YOPE   C4A12050   7.077  13.282   8.067  0.1258 -0.2636 -0.1660
  881YOPE   C1B12051   7.508  13.787   7.069  0.0098  0.0766 -0.0405
  881YOPE   C2B12052   7.269  13.878   7.455  0.0488 -0.0338  0.2029
  881YOPE   D3B12053   7.082  13.780   7.780  0.0879 -0.1345  0.4292
  881YOPE   C4B12054   7.211  13.802   8.274 -0.3222  0.0233 -0.0713
  882YOPE   NH312055   1.748  16.849   6.343  0.3328 -0.2487 -0.0005
  882YOPE   PO412056   1.857  17.247   6.110  0.0213  0.1536 -0.1974
  882YOPE   GL112057   1.792  17.411   6.503 -0.1899  0.1013  0.1278
  882YOPE   GL212058   1.440  17.454   6.565  0.1197  0.0101  0.0642
  882YOPE   C1A12059   1.854  17.244   6.886  0.1887 -0.1104 -0.0667
  882YOPE   D2A12060   1.974  17.423   7.346 -0.1041 -0.1608 -0.3579
  882YOPE   C3A12061   1.950  17.812   7.564 -0.0618 -0.0267  0.0074
  882YOPE   C4A12062   1.797  18.227   7.501  0.1277  0.1315 -0.1243
  882YOPE   C1B12063   1.582  17.652   6.968 -0.0607  0.0210  0.0931
  882YOPE   C2B12064   1.572  17.802   7.281  0.3220  0.0245  0.0713
  882YOPE   D3B12065   1.465  17.938   7.778 -0.0989 -0.2573  0.0703
  882YOPE   C4B12066   1.824  18.119   8.102  0.1957  0.0869 -0.3307
  883YOPE   NH312067  12.177  12.918   6.056  0.0636  0.1030  0.1318
  883YOPE   PO412068  11.747  12.662   5.847 -0.5274 -0.0931  0.0470
  883YOPE   GL112069  11.734  12.804   6.342  0.0577 -0.3010 -0.0290
  883YOPE   GL212070  12.010  12.960   6.575 -0.0050  0.0365 -0.1187
  883YOPE   C1A12071  11.619  12.682   6.766 -0.2942  0.0687 -0.0536
  883YOPE   D2A12072  11.732  12.295   7.026  0.0213  0.1198  0.2240
  883YOPE   C3A12073  11.789  12.252   7.409 -0.4034 -0.0548 -0.0435
  883YOPE   C4A12074  11.643  12.097   7.717  0.1378 -0.3850 -0.1393
  883YOPE   C1B12075  12.114  12.640   6.840  0.1084 -0.0880  0.1851
  883YOPE   C2B12076  12.216  12.370   7.224 -0.1121  0.0882 -0.3422
  883YOPE   D3B12077  12.218  12.275   7.638  0.1877 -0.0900  0.0578
  883YOPE   C4B12078  12.232  12.313   8.055 -0.4237  0.1195  0.2555
  884YOPE   NH312079   9.730  15.073   6.169  0.0718 -0.0418  0.0460
  884YOPE   PO412080  10.117  14.974   6.265 -0.2664 -0.0335  0.0986
  884YOPE   GL112081  10.070  15.133   6.700 -0.0049 -0.0905 -0.1268
  884YOPE   GL212082   9.820  15.122   6.690  0.0864  0.2122  0.0244
  884YOPE   C1A12083  10.243  15.299   6.915 -0.1780 -0.1999 -0.1154
  884YOPE   D2A12084  10.411  15.342   7.339 -0.0912 -0.2956 -0.1850
  884YOPE   C3A12085  10.501  15.043   7.626 -0.2421  0.0197 -0.1608
  884YOPE   C4A12086  10.915  14.959   7.842 -0.0607  0.1831  0.3557
  884YOPE   C1B12087   9.701  14.965   7.029  0.0898 -0.1865 -0.1104
  884YOPE   C2B12088   9.781  14.615   7.363 -0.3842  0.1862 -0.0073
  884YOPE   D3B12089   9.630  14.157   7.443  0.4199  0.2214  0.3712
  884YOPE   C4B12090   9.779  13.734   7.285 -0.1125  0.0392  0.0542
  885YOPE   NH312091  13.783   6.774   5.658  0.1779  0.1098 -0.0046
  885YOPE   PO412092  13.623   7.202   5.653  0.0447  0.2009 -0.0305
  885YOPE   GL112093  13.619   7.126   6.091  0.0743 -0.0892 -0.2057
  885YOPE   GL212094  13.350   6.889   6.198 -0.0109  0.2070 -0.1534
  885YOPE   C1A12095  13.989   7.302   6.373  0.0713  0.0005  0.3019
  885YOPE   D2A12096  14.178   7.353   6.810  0.1647 -0.1298 -0.2045
  885YOPE   C3A12097  14.417   7.687   6.951 -0.1488 -0.0180 -0.1985
  885YOPE   C4A12098  14.488   7.793   7.444  0.0244  0.0629  0.3609
  885YOPE   C1B12099  13.535   6.892   6.621 -0.1907  0.1833 -0.0978
  885YOPE   C2B12100  13.555   6.635   7.001 -0.0677 -0.1533 -0.3029
  885YOPE   D3B12101  13.912   6.610   7.318  0.0843  0.3135 -0.2472
  885YOPE   C4B12102  14.184   6.802   7.644  0.2330  0.0323  0.0427
  886YOPE   NH312103  12.569   7.965   5.508 -0.0412  0.0565  0.1377
  886YOPE   PO412104  12.832   7.580   5.425 -0.1301  0.1511  0.0024
  886YOPE   GL112105  13.039   7.677   5.831 -0.0368  0.0977  0.0539
  886YOPE   GL212106  13.154   7.316   5.905 -0.2771 -0.2097  0.0193
  886YOPE   C1A12107  13.132   7.904   6.268  0.0332  0.1013  0.2872
  886YOPE   D2A12108  13.362   7.938   6.685  0.2678  0.1219 -0.0783
  886YOPE   C3A12109  13.289   7.640   7.011  0.1563  0.3187  0.2441
  886YOPE   C4A12110  13.470   7.514   7.454  0.0227 -0.1090  0.2141
  886YOPE   C1B12111  13.247   7.384   6.408  0.1261 -0.3822  0.1741
  886YOPE   C2B12112  12.867   7.557   6.725 -0.1320  0.2948  0.0064
  886YOPE   D3B12113  12.773   7.579   7.202 -0.3053 -0.2254 -0.1990
  886YOPE   C4B12114  12.540   7.674   7.577  0.2720  0.1733  0.1835
  887YOPE   NH312115  17.007   0.472   6.004  0.0386  0.2081  0.1738
  887YOPE   PO412116  16.588   0.767   6.021 -0.0165 -0.0007  0.1546
  887YOPE   GL112117  16.403   0.547   6.440  0.3480 -0.1759  0.2007
  887YOPE   GL212118  16.587   0.233   6.529 -0.2758 -0.4162  0.1475
  887YOPE   C1A12119  16.412   0.670   6.862  0.2187 -0.0815  0.1524
  887YOPE   D2A12120  16.257   0.686   7.271  0.1831  0.0095 -0.0720
  887YOPE   C3A12121  16.185   0.641   7.746  0.1647  0.0326 -0.2637
  887YOPE   C4A12122  16.208   0.800   8.154 -0.3521 -0.0490  0.1482
  887YOPE   C1B12123  16.666   0.286   7.060  0.0706 -0.2638  0.0086
  887YOPE   C2B12124  16.786   0.511   7.439 -0.0282 -0.2424  0.0132
  887YOPE   D3B12125  16.679   0.606   7.891 -0.3036  0.0249  0.0685
  887YOPE   C4B12126  16.572   0.535   8.362  0.1242  0.1681  0.1105
  888YOPE   NH312127  15.464  16.098   6.767 -0.3781  0.0011  0.0368
  888YOPE   PO412128  15.602  16.500   6.675  0.2691  0.3612  0.0233
  888YOPE   GL112129  15.957  16.479   6.868 -0.0604 -0.0947 -0.1728
  888YOPE   GL212130  16.001  16.111   6.992  0.2316  0.0453 -0.1838
  888YOPE   C1A12131  16.085  16.459   7.364  0.1960 -0.2699 -0.0292
  888YOPE   D2A12132  16.036  16.610   7.810  0.0690 -0.1635 -0.1901
  888YOPE   C3A12133  16.185  16.498   8.201 -0.0487  0.3041  0.2252
  888YOPE   C4A12134  16.247  16.239   8.510  0.0672 -0.0245 -0.0434
  888YOPE   C1B12135  16.346  16.056   7.369  0.0395  0.0017  0.0921
  888YOPE   C2B12136  16.426  16.169   7.771  0.4234 -0.0055 -0.1887
  888YOPE   D3B12137  16.429  15.899   8.090 -0.1803  0.2338  0.1018
  888YOPE   C4B12138  16.606  15.908   8.523  0.2042 -0.0629 -0.1849
  889YOPE   NH312139   3.361  14.743   6.448  0.2543  0.1266  0.3266
  889YOPE   PO412140   3.761  15.012   6.541 -0.2098  0.0989 -0.3045
  889YOPE   GL112141   3.928  14.785   6.877 -0.0589 -0.2989 -0.0685
  889YOPE   GL212142   3.702  14.514   6.812 -0.1046 -0.1583  0.0709
  889YOPE   C1A12143   4.117  14.738   7.364 -0.0996  0.3425 -0.1072
  889YOPE   D2A12144   4.336  14.651   7.663 -0.0231 -0.3508 -0.1834
  889YOPE   C3A12145   4.507  14.922   8.009 -0.0568  0.2192  0.3810
  889YOPE   C4A12146   4.689  15.316   7.876 -0.0480 -0.0921 -0.0029
  889YOPE   C1B12147   3.670  14.636   7.248  0.1129 -0.0069  0.1797
  889YOPE   C2B12148   3.547  14.756   7.602  0.2694 -0.1284  0.0190
  889YOPE   D3B12149   3.630  14.958   7.994  0.1379 -0.1247  0.0450
  889YOPE   C4B12150   3.696  14.880   8.381 -0.0470  0.0036  0.0405
  890YOPE   NH312151   2.109   0.788   6.103  0.1250 -0.1087  0.1301
  890YOPE   PO412152   1.692   1.029   5.908  0.2825  0.0085  0.0063
  890YOPE   GL112153   1.624   1.313   6.190 -0.1287 -0.0065  0.3440
  890YOPE   GL212154   1.334   1.377   6.369  0.0515 -0.2200 -0.1263
  890YOPE   C1A12155   1.827   1.488   6.479 -0.0983 -0.1889  0.3952
  890YOPE   D2A12156   1.812   1.824   6.848 -0.2965 -0.0594  0.1123
  890YOPE   C3A12157   2.027   2.176   6.899  0.1568 -0.1342  0.3253
  890YOPE   C4A12158   2.196   2.468   6.596  0.3308  0.0679  0.1671
  890YOPE   C1B12159   1.441   1.372   6.816  0.2018  0.1793 -0.1679
  890YOPE   C2B12160   1.657   1.522   7.196 -0.1966  0.2113  0.1509
  890YOPE   D3B12161   1.765   1.569   7.563  0.2802  0.0716  0.0361
  890YOPE   C4B12162   1.709   1.407   7.947 -0.1950 -0.3340 -0.1830
  891YOPE   NH312163   5.615   9.990   6.005 -0.1141  0.0610 -0.2468
  891YOPE   PO412164   5.570   9.472   6.296 -0.1682  0.0612 -0.0025
  891YOPE   GL112165   5.333   9.883   6.409 -0.2508 -0.0097 -0.2362
  891YOPE   GL212166   5.526  10.070   6.577 -0.1370 -0.3531 -0.1299
  891YOPE   C1A12167   5.013  10.082   6.499 -0.1071  0.1777 -0.0785
  891YOPE   D2A12168   4.946  10.062   6.911 -0.3256 -0.0490 -0.0785
  891YOPE   C3A12169   5.137  10.348   7.237  0.1005  0.1167 -0.0478
  891YOPE   C4A12170   5.454  10.416   7.629  0.0394 -0.1243  0.1931
  891YOPE   C1B12171   5.517  10.124   7.024  0.1494 -0.1655  0.1619
  891YOPE   C2B12172   5.547   9.975   7.486  0.1242  0.2814  0.0087
  891YOPE   D3B12173   5.859  10.086   7.839  0.0661  0.1254  0.2454
  891YOPE   C4B12174   6.009  10.083   8.282  0.1069  0.2816 -0.0148
  892YOPE   NH312175  14.853  16.011   6.597 -0.0477  0.0861 -0.3018
  892YOPE   PO412176  15.063  15.880   6.940 -0.0721 -0.0908  0.1926
  892YOPE   GL112177  15.346  16.110   7.267 -0.0073  0.2419  0.2415
  892YOPE   GL212178  15.591  16.286   7.225  0.0060  0.0917 -0.1073
  892YOPE   C1A12179  15.446  15.963   7.677  0.0165 -0.0604 -0.0167
  892YOPE   D2A12180  15.435  15.829   8.124  0.1384  0.1791  0.2142
  892YOPE   C3A12181  15.236  15.431   8.365  0.1105 -0.1020 -0.2562
  892YOPE   C4A12182  15.195  15.056   8.501 -0.0268  0.1588 -0.0361
  892YOPE   C1B12183  15.542  16.433   7.573  0.1865 -0.2110  0.0914
  892YOPE   C2B12184  15.662  16.444   8.044 -0.0264 -0.2055 -0.0839
  892YOPE   D3B12185  15.616  16.767   8.372  0.0453 -0.0123 -0.3254
  892YOPE   C4B12186  15.734  17.184   8.602  0.1339 -0.1325  0.0175
  893YOPE   NH312187   8.128  17.692   6.091  0.2204  0.2612  0.1301
  893YOPE   PO412188   8.486  17.686   6.365 -0.1425 -0.2043 -0.1617
  893YOPE   GL112189   8.336  17.763   6.748  0.0021  0.0922  0.0775
  893YOPE   GL212190   8.128  17.530   6.804 -0.1664  0.1163 -0.2197
  893YOPE   C1A12191   8.347  17.836   7.127 -0.0021 -0.1595 -0.1626
  893YOPE   D2A12192   8.565  17.910   7.472  0.1549  0.0654  0.1724
  893YOPE   C3A12193   8.322  18.065   7.757  0.2381 -0.1415 -0.2229
  893YOPE   C4A12194   8.183  18.161   8.154  0.1981  0.0881  0.0738
  893YOPE   C1B12195   7.842  17.668   7.132  0.2702  0.1336  0.2292
  893YOPE   C2B12196   7.829  17.866   7.516  0.0028 -0.0412 -0.1060
  893YOPE   D3B12197   7.664  18.011   7.913 -0.0025 -0.0255 -0.0938
  893YOPE   C4B12198   7.706  18.192   8.335 -0.4354 -0.0252  0.0542
  894YOPE   NH312199   3.564  13.323   5.710 -0.0272 -0.1559 -0.0693
  894YOPE   PO412200   3.993  13.288   5.936 -0.2957  0.0310 -0.1651
  894YOPE   GL112201   3.977  12.991   6.279 -0.4890  0.1128  0.0699
  894YOPE   GL212202   4.046  12.647   6.237 -0.1142  0.2109  0.3912
  894YOPE   C1A12203   3.835  12.944   6.712 -0.0025 -0.0200  0.0835
  894YOPE   D2A12204   3.738  12.657   6.986 -0.3155  0.0963  0.0297
  894YOPE   C3A12205   3.713  12.611   7.348 -0.2359  0.0333  0.0549
  894YOPE   C4A12206   3.795  12.292   7.739 -0.0826 -0.0040  0.1292
  894YOPE   C1B12207   4.113  12.463   6.662  0.2977  0.0141 -0.0165
  894YOPE   C2B12208   4.187  12.447   7.181 -0.0704 -0.0579  0.0525
  894YOPE   D3B12209   4.392  12.473   7.581 -0.0083 -0.1664  0.0149
  894YOPE   C4B12210   4.566  12.317   7.918  0.2650 -0.2845  0.1228
  895YOPE   NH312211  10.706  13.117   6.217 -0.1970 -0.2412 -0.3237
  895YOPE   PO412212  10.282  13.187   6.075 -0.0039  0.1671 -0.3280
  895YOPE   GL112213  10.254  13.144   6.477  0.1226  0.0636  0.3138
  895YOPE   GL212214  10.129  13.358   6.532 -0.0280  0.1803  0.4368
  895YOPE   C1A12215  10.238  12.937   6.864 -0.4544 -0.0818 -0.0932
  895YOPE   D2A12216  10.165  12.699   7.285 -0.0354 -0.2779  0.2109
  895YOPE   C3A12217  10.444  12.724   7.703  0.2273 -0.0697 -0.2938
  895YOPE   C4A12218  10.924  12.763   7.681 -0.2665  0.3051 -0.2301
  895YOPE   C1B12219   9.997  13.336   6.962 -0.3003 -0.0692 -0.0558
  895YOPE   C2B12220  10.002  13.187   7.382 -0.4753 -0.4677 -0.3505
  895YOPE   D3B12221   9.931  12.870   7.743  0.0883 -0.1653  0.0705
  895YOPE   C4B12222   9.773  12.935   8.136  0.0030 -0.1467  0.1603
  896YOPE   NH312223   0.223  14.148   6.298  0.0100  0.2794  0.1128
  896YOPE   PO412224   0.192  13.898   6.066 -0.1428  0.1291  0.1623
  896YOPE   GL112225   0.311  13.698   6.406  0.2826  0.1709 -0.1396
  896YOPE   GL212226   0.003  13.725   6.605 -0.2516  0.5723 -0.1690
  896YOPE   C1A12227   0.420  13.758   6.903  0.2672 -0.2133  0.1785
  896YOPE   D2A12228   0.152  13.995   7.106 -0.1877 -0.0232 -0.0798
  896YOPE   C3A12229   0.104  14.150   7.520 -0.0879 -0.0870  0.0022
  896YOPE   C4A12230   0.248  14.042   7.933 -0.0141  0.0616 -0.0328
  896YOPE   C1B12231  -0.279  13.779   6.978 -0.1790  0.1083 -0.0804
  896YOPE   C2B12232  -0.529  13.575   7.293  0.0292  0.2651  0.0796
  896YOPE   D3B12233  -0.588  13.274   7.680 -0.3964  0.1285  0.4507
  896YOPE   C4B12234  -0.731  13.174   8.039  0.0707 -0.2485 -0.3330
  897YOPE   NH312235   8.647   1.739   6.279 -0.0300  0.0351 -0.2769
  897YOPE   PO412236   8.963   2.089   6.288  0.0455  0.1284  0.3120
  897YOPE   GL112237   8.635   2.130   6.581  0.0650  0.0957  0.0096
  897YOPE   GL212238   8.815   2.443   6.765  0.3121 -0.2529  0.0078
  897YOPE   C1A12239   8.592   2.025   7.009 -0.0957  0.0363 -0.0675
  897YOPE   D2A12240   8.512   1.963   7.323  0.0314 -0.0257 -0.1908
  897YOPE   C3A12241   8.670   1.824   7.600 -0.0766  0.0787  0.3944
  897YOPE   C4A12242   8.685   1.763   7.987  0.0917 -0.1499 -0.1508
  897YOPE   C1B12243   8.374   2.453   6.989 -0.0339 -0.1406  0.1825
  897YOPE   C2B12244   8.275   2.777   7.299  0.0019  0.0486 -0.0428
  897YOPE   D3B12245   8.553   2.825   7.698 -0.0257 -0.0628  0.2137
  897YOPE   C4B12246   8.519   2.720   8.133 -0.0552  0.1474 -0.2308
  898YOPE   NH312247  10.118  11.460   6.120  0.3109  0.0142  0.0172
  898YOPE   PO412248   9.732  11.360   6.349  0.0004 -0.0213 -0.2418
  898YOPE   GL112249   9.869  11.553   6.612 -0.1926 -0.1193  0.0921
  898YOPE   GL212250  10.141  11.737   6.619 -0.1668 -0.0059  0.0424
  898YOPE   C1A12251   9.881  11.727   7.109  0.0529  0.0383  0.0191
  898YOPE   D2A12252   9.746  11.826   7.595  0.0837 -0.1598 -0.1913
  898YOPE   C3A12253   9.375  11.959   7.730 -0.0760  0.0828 -0.2059
  898YOPE   C4A12254   8.998  12.257   7.804  0.0595 -0.2834 -0.1268
  898YOPE   C1B12255  10.403  11.932   6.952  0.0927 -0.0437 -0.1636
  898YOPE   C2B12256  10.364  12.024   7.364  0.1231 -0.0918 -0.2815
  898YOPE   D3B12257  10.317  12.272   7.694  0.3767 -0.1347 -0.1154
  898YOPE   C4B12258  10.518  12.230   8.080  0.2680  0.0346 -0.4139
  899YOPE   NH312259  14.295   1.689   6.048 -0.2399 -0.1737 -0.2806
  899YOPE   PO412260  14.688   1.464   6.193  0.0981  0.0056 -0.1821
  899YOPE   GL112261  14.893   1.841   6.252 -0.0020 -0.1283 -0.0733
  899YOPE   GL212262  14.556   2.014   6.411  0.3549  0.4186 -0.0673
  899YOPE   C1A12263  15.043   1.978   6.587  0.1964 -0.0292  0.1035
  899YOPE   D2A12264  15.052   2.277   6.943  0.3040  0.0126  0.1015
  899YOPE   C3A12265  15.196   2.362   7.358 -0.1695  0.0507  0.0254
  899YOPE   C4A12266  15.192   2.267   7.811 -0.3663 -0.0602 -0.1849
  899YOPE   C1B12267  14.597   2.120   6.782  0.2973  0.2874 -0.2397
  899YOPE   C2B12268  14.489   2.248   7.153 -0.1830  0.0965  0.0843
  899YOPE   D3B12269  14.407   2.543   7.490  0.0684  0.2320 -0.2002
  899YOPE   C4B12270  14.287   2.828   7.917  0.0799 -0.0472  0.2179
  900YOPE   NH312271   7.131  13.276   5.703  0.0482  0.1071 -0.2501
  900YOPE   PO412272   7.425  13.510   5.953  0.0403 -0.2183  0.1362
  900YOPE   GL112273   7.644  13.415   6.283 -0.1199 -0.0064 -0.0197
  900YOPE   GL212274   7.469  13.295   6.467  0.0223  0.0484 -0.0318
  900YOPE   C1A12275   7.790  13.580   6.709 -0.2626  0.0734 -0.2309
  900YOPE   D2A12276   8.006  13.857   7.052  0.0688  0.0114 -0.3269
  900YOPE   C3A12277   8.302  13.824   7.333  0.1625 -0.3222 -0.2040
  900YOPE   C4A12278   8.324  13.931   7.790 -0.1072  0.3722  0.2098
  900YOPE   C1B12279   7.554  13.244   6.923  0.2884 -0.0465  0.2092
  900YOPE   C2B12280   7.818  13.461   7.274  0.1699  0.1595  0.0278
  900YOPE   D3B12281   7.721  13.839   7.576  0.1958  0.2616  0.2027
  900YOPE   C4B12282   7.589  14.077   7.841  0.1701 -0.0354  0.1674
  901YOPE   NH312283   3.096   4.314   5.895  0.3459  0.0448  0.3014
  901YOPE   PO412284   3.537   4.393   5.786 -0.3697 -0.2292  0.1400
  901YOPE   GL112285   3.505   4.384   6.263 -0.0052 -0.1551 -0.0875
  901YOPE   GL212286   3.210   4.605   6.340 -0.1237 -0.1871  0.0777
  901YOPE   C1A12287   3.625   4.284   6.708  0.2427  0.0470  0.1954
  901YOPE   D2A12288   3.767   4.434   7.074 -0.2232 -0.0250 -0.0915
  901YOPE   C3A12289   3.884   4.669   7.303 -0.1181 -0.1097  0.2247
  901YOPE   C4A12290   4.350   4.853   7.485  0.1289 -0.1410  0.2494
  901YOPE   C1B12291   3.287   4.639   6.770 -0.0694 -0.2552 -0.0762
  901YOPE   C2B12292   3.262   4.636   7.206  0.2868  0.1516  0.2189
  901YOPE   D3B12293   3.084   4.608   7.609 -0.0548  0.1945  0.1314
  901YOPE   C4B12294   2.933   4.413   7.979  0.1793 -0.2056  0.0412
  902YOPE   NH312295   2.489   2.968   5.839 -0.1277 -0.3096 -0.2159
  902YOPE   PO412296   2.095   3.271   5.918  0.0519  0.1171 -0.0419
  902YOPE   GL112297   2.177   3.600   6.221 -0.1260 -0.0778  0.0312
  902YOPE   GL212298   2.428   3.812   6.243  0.1892  0.0625  0.2795
  902YOPE   C1A12299   2.304   3.526   6.588  0.0850  0.0617 -0.3767
  902YOPE   D2A12300   2.517   3.513   6.997 -0.0072 -0.0564 -0.1665
  902YOPE   C3A12301   2.416   3.338   7.384 -0.2753 -0.0250 -0.0415
  902YOPE   C4A12302   2.394   3.211   7.805  0.2939  0.0574 -0.2642
  902YOPE   C1B12303   2.220   4.018   6.577  0.1258 -0.0832  0.1395
  902YOPE   C2B12304   2.123   3.869   6.891 -0.1177 -0.0263 -0.0263
  902YOPE   D3B12305   2.232   3.809   7.291 -0.0823  0.0794  0.0256
  902YOPE   C4B12306   2.257   3.685   7.731 -0.2720 -0.1038 -0.2137
  903YOPE   NH312307  10.127   4.831   5.920 -0.2784  0.1917  0.4743
  903YOPE   PO412308   9.655   4.815   5.932  0.0367  0.0248  0.3994
  903YOPE   GL112309   9.742   4.861   6.364 -0.2363 -0.1108  0.1065
  903YOPE   GL212310  10.058   5.090   6.351 -0.3538  0.2777  0.0151
  903YOPE   C1A12311   9.964   4.827   6.781  0.1634  0.2267  0.1434
  903YOPE   D2A12312  10.211   4.971   7.155 -0.0153  0.2727  0.2221
  903YOPE   C3A12313  10.349   4.683   7.455 -0.0701  0.2298 -0.0169
  903YOPE   C4A12314  10.475   4.592   7.950 -0.1329 -0.2586 -0.1041
  903YOPE   C1B12315  10.437   5.045   6.686 -0.0058  0.1696  0.1623
  903YOPE   C2B12316  10.548   5.292   7.050 -0.2563  0.4040 -0.0560
  903YOPE   D3B12317  10.920   5.393   7.310 -0.2153 -0.1882 -0.1810
  903YOPE   C4B12318  11.306   5.131   7.310  0.0583  0.1216  0.1728
  904YOPE   NH312319  12.842   9.626   5.729  0.0630  0.1440 -0.1381
  904YOPE   PO412320  12.666   9.999   5.860 -0.1030  0.0874  0.2168
  904YOPE   GL112321  12.450  10.053   6.207  0.2931  0.0259  0.2455
  904YOPE   GL212322  12.452  10.299   6.240  0.2405 -0.1199  0.0009
  904YOPE   C1A12323  12.502   9.954   6.697  0.0750 -0.1918  0.0785
  904YOPE   D2A12324  12.830   9.918   6.962 -0.1483  0.0120 -0.2502
  904YOPE   C3A12325  12.797  10.070   7.390  0.0329 -0.2802 -0.5368
  904YOPE   C4A12326  12.880  10.214   7.962  0.1662 -0.1994  0.0609
  904YOPE   C1B12327  12.769  10.356   6.599 -0.2355  0.1915 -0.1684
  904YOPE   C2B12328  12.892  10.419   7.056  0.0499 -0.3500  0.0829
  904YOPE   D3B12329  13.092  10.498   7.484 -0.1232 -0.3290  0.0286
  904YOPE   C4B12330  13.148  10.791   7.829 -0.0086 -0.3655 -0.0145
  905YOPE   NH312331   5.518   1.574   5.966  0.2450  0.2798  0.1673
  905YOPE   PO412332   5.672   1.978   5.980 -0.0522  0.0401 -0.1719
  905YOPE   GL112333   5.533   1.879   6.387 -0.1250  0.0567 -0.1301
  905YOPE   GL212334   5.456   1.624   6.509  0.2670 -0.2140  0.3320
  905YOPE   C1A12335   5.580   2.091   6.688 -0.1252 -0.1082 -0.1395
  905YOPE   D2A12336   6.014   2.215   6.845 -0.3708  0.2388 -0.1659
  905YOPE   C3A12337   6.058   1.928   7.246 -0.0576  0.0169 -0.2034
  905YOPE   C4A12338   6.051   1.603   7.567  0.0089 -0.0599 -0.1873
  905YOPE   C1B12339   5.279   1.709   6.910 -0.0680  0.1416 -0.1196
  905YOPE   C2B12340   5.147   1.642   7.340 -0.0261  0.0236  0.1186
  905YOPE   D3B12341   5.030   1.795   7.733 -0.0770  0.3950  0.1400
  905YOPE   C4B12342   4.774   1.866   8.098 -0.1733 -0.0110 -0.1448
  906YOPE   NH312343   9.609  17.733   6.248 -0.2525  0.0476  0.1215
  906YOPE   PO412344   9.919  17.770   6.458 -0.0596  0.2238 -0.0152
  906YOPE   GL112345   9.697  17.484   6.678  0.0774  0.2040  0.0925
  906YOPE   GL212346   9.447  17.714   6.749  0.1170 -0.2503 -0.1076
  906YOPE   C1A12347   9.584  17.191   6.915  0.1110  0.1332  0.1952
  906YOPE   D2A12348   9.444  17.129   7.328  0.3466 -0.1244 -0.1409
  906YOPE   C3A12349   9.523  16.784   7.503  0.1948 -0.1782 -0.0579
  906YOPE   C4A12350   9.568  16.308   7.398  0.0977 -0.0239 -0.1960
  906YOPE   C1B12351   9.346  17.665   7.131 -0.2663 -0.2791 -0.0239
  906YOPE   C2B12352   9.136  17.513   7.444  0.0563 -0.0680  0.2242
  906YOPE   D3B12353   8.833  17.598   7.675 -0.2753  0.0403 -0.2737
  906YOPE   C4B12354   8.714  17.272   7.869 -0.1418 -0.1685  0.2722
  907YOPE   NH312355  11.653   8.871   6.073  0.0248 -0.0199 -0.4822
  907YOPE   PO412356  12.047   8.565   5.926  0.2398 -0.1823  0.1243
  907YOPE   GL112357  11.979   8.664   6.434 -0.1011  0.0044 -0.2938
  907YOPE   GL212358  11.733   8.454   6.501  0.2444  0.2125 -0.1348
  907YOPE   C1A12359  12.013   8.663   6.912  0.0800 -0.0260 -0.3515
  907YOPE   D2A12360  12.223   8.539   7.380  0.0275  0.0192 -0.1895
  907YOPE   C3A12361  12.044   8.772   7.743  0.1784  0.0978 -0.0652
  907YOPE   C4A12362  11.929   8.796   8.187  0.0486 -0.0235 -0.0270
  907YOPE   C1B12363  11.497   8.733   6.855  0.2646 -0.0300 -0.1067
  907YOPE   C2B12364  11.284   8.648   7.234 -0.0379 -0.2935 -0.1679
  907YOPE   D3B12365  11.235   8.349   7.629 -0.0310 -0.1188 -0.0226
  907YOPE   C4B12366  10.941   8.337   7.975  0.0768 -0.3460 -0.0391
  908YOPE   NH312367   7.891   0.421   6.443 -0.0100 -0.3243  0.3322
  908YOPE   PO412368   7.412   0.502   6.541  0.3364  0.2683  0.2760
  908YOPE   GL112369   7.182   0.602   6.861 -0.1169 -0.0935  0.0099
  908YOPE   GL212370   6.845   0.468   6.910  0.1454 -0.0434  0.0790
  908YOPE   C1A12371   7.112   0.751   7.294 -0.4480 -0.0335  0.1584
  908YOPE   D2A12372   7.018   0.755   7.709  0.1100 -0.0169 -0.1338
  908YOPE   C3A12373   6.631   0.945   7.701 -0.2690 -0.0425  0.3532
  908YOPE   C4A12374   6.352   1.112   7.475  0.1377  0.3863 -0.2079
  908YOPE   C1B12375   7.051   0.223   7.234 -0.1218  0.1963 -0.2320
  908YOPE   C2B12376   7.277   0.361   7.584 -0.2049  0.4455 -0.0558
  908YOPE   D3B12377   7.387   0.531   7.941  0.2012  0.1512 -0.0906
  908YOPE   C4B12378   7.485   0.702   8.414 -0.3226  0.1018  0.2317
  909YOPE   NH312379   1.908  15.395   6.620  0.1704 -0.0973  0.1484
  909YOPE   PO412380   1.468  15.398   6.606 -0.1444 -0.0169  0.1625
  909YOPE   GL112381   1.389  15.392   7.011 -0.0000  0.1007 -0.4441
  909YOPE   GL212382   1.481  15.693   7.226  0.0617  0.1068  0.2996
  909YOPE   C1A12383   1.097  15.208   7.295  0.0413 -0.0703  0.2402
  909YOPE   D2A12384   0.679  14.914   7.196  0.0556 -0.1361 -0.0876
  909YOPE   C3A12385   0.450  14.796   7.573 -0.1223  0.1463  0.3124
  909YOPE   C4A12386   0.217  14.572   7.857 -0.0290  0.1108  0.0626
  909YOPE   C1B12387   1.607  15.370   7.530  0.0200  0.0675 -0.0059
  909YOPE   C2B12388   1.848  15.336   7.863  0.1386  0.1410  0.2459
  909YOPE   D3B12389   1.988  15.410   8.268 -0.3373 -0.2322  0.0109
  909YOPE   C4B12390   2.057  15.579   8.649 -0.0839 -0.2628  0.1686
  910YOPE   NH312391  17.081  15.333   6.473  0.0848 -0.3314 -0.3356
  910YOPE   PO412392  17.529  15.170   6.521  0.2775 -0.1261  0.0382
  910YOPE   GL112393  17.768  14.853   6.634  0.0080 -0.1417 -0.1576
  910YOPE   GL212394  17.894  14.608   6.564 -0.0018 -0.1540 -0.0822
  910YOPE   C1A12395  17.740  14.968   7.072 -0.2164  0.1400  0.0437
  910YOPE   D2A12396  17.521  14.961   7.509  0.1168 -0.1544 -0.1056
  910YOPE   C3A12397  17.793  14.952   7.826  0.0201 -0.0662  0.0227
  910YOPE   C4A12398  17.998  14.881   8.158 -0.3604  0.0830  0.2489
  910YOPE   C1B12399  17.901  14.375   6.977 -0.1675 -0.2709 -0.0651
  910YOPE   C2B12400  17.647  14.133   7.361  0.0670  0.1439 -0.1434
  910YOPE   D3B12401  17.545  13.826   7.745  0.0469  0.2138  0.4958
  910YOPE   C4B12402  17.344  13.720   8.021  0.1455 -0.3289  0.0567
  911YOPE   NH312403   0.069  17.161   6.489  0.0481 -0.0180  0.3534
  911YOPE   PO412404  -0.314  17.386   6.387  0.3391  0.0403  0.2307
  911YOPE   GL112405  -0.321  17.329   6.810  0.1404 -0.3617 -0.2083
  911YOPE   GL212406  -0.617  17.138   7.014  0.0741  0.0325 -0.2879
  911YOPE   C1A12407  -0.356  17.458   7.225  0.0486 -0.0114  0.2720
  911YOPE   D2A12408  -0.348  17.700   7.638 -0.3609  0.1683  0.0273
  911YOPE   C3A12409  -0.133  18.053   7.903  0.1493 -0.0243 -0.0424
  911YOPE   C4A12410   0.128  18.289   8.329  0.3990 -0.0666  0.1061
  911YOPE   C1B12411  -0.558  17.047   7.505 -0.1334 -0.1878 -0.0487
  911YOPE   C2B12412  -0.606  17.176   7.857  0.0178  0.0700  0.3174
  911YOPE   D3B12413  -0.607  17.614   8.070  0.0047  0.2521 -0.0442
  911YOPE   C4B12414  -0.805  17.953   8.336  0.4158  0.0879  0.0264
  912YOPE   NH312415   0.490   3.466   5.676 -0.1612 -0.0799 -0.0296
  912YOPE   PO412416   0.589   3.093   5.824 -0.0216  0.0361 -0.2095
  912YOPE   GL112417   0.519   3.357   6.163  0.1709  0.1299 -0.1780
  912YOPE   GL212418   0.174   3.537   6.177  0.0011  0.2648 -0.0002
  912YOPE   C1A12419   0.617   3.504   6.594  0.1084 -0.4733  0.1446
  912YOPE   D2A12420   0.377   3.564   7.006  0.0529  0.2405  0.4416
  912YOPE   C3A12421   0.521   3.546   7.380  0.2029  0.1816  0.1876
  912YOPE   C4A12422   0.402   3.801   7.740  0.1427  0.0190 -0.0420
  912YOPE   C1B12423   0.078   3.508   6.605  0.0639  0.3312 -0.0691
  912YOPE   C2B12424  -0.219   3.570   6.961 -0.2353  0.1732  0.1139
  912YOPE   D3B12425  -0.393   3.523   7.399  0.0186  0.1274  0.2613
  912YOPE   C4B12426  -0.282   3.013   7.519  0.0769  0.1184 -0.0520
  913YOPE   NH312427   4.867   1.050   6.232 -0.3209  0.1364  0.2425
  913YOPE   PO412428   5.051   1.544   6.188  0.3829  0.0301  0.0804
  913YOPE   GL112429   4.888   1.480   6.522 -0.1256  0.1262  0.1133
  913YOPE   GL212430   5.056   1.336   6.703  0.1745 -0.0582  0.2467
  913YOPE   C1A12431   4.739   1.699   6.855  0.0074 -0.1512  0.1239
  913YOPE   D2A12432   4.733   1.890   7.315 -0.3676  0.0115  0.0565
  913YOPE   C3A12433   4.361   2.100   7.442 -0.1324  0.3317  0.2365
  913YOPE   C4A12434   4.088   2.329   7.170 -0.2134  0.1679  0.2490
  913YOPE   C1B12435   4.826   1.242   7.114 -0.0220  0.1024  0.2076
  913YOPE   C2B12436   4.586   1.468   7.321 -0.0300  0.1739  0.0851
  913YOPE   D3B12437   4.420   1.606   7.711 -0.0139 -0.0588 -0.0540
  913YOPE   C4B12438   4.296   1.996   7.924 -0.2163 -0.2511 -0.1089
  914YOPE   NH312439   8.757   9.942   5.957 -0.0366  0.0687  0.2664
  914YOPE   PO412440   9.088  10.318   5.883 -0.0708  0.2250  0.2094
  914YOPE   GL112441   8.815  10.393   6.255  0.2506  0.0816  0.1046
  914YOPE   GL212442   8.898  10.659   6.623 -0.1661  0.0973  0.3288
  914YOPE   C1A12443   8.534  10.249   6.510  0.1150 -0.1578 -0.0710
  914YOPE   D2A12444   8.073  10.374   6.600  0.1370 -0.1849 -0.0745
  914YOPE   C3A12445   7.717  10.076   6.720 -0.0870  0.1369 -0.0196
  914YOPE   C4A12446   7.419   9.766   6.850 -0.1321 -0.0877 -0.0612
  914YOPE   C1B12447   9.000  10.910   6.958  0.0406 -0.0037  0.0242
  914YOPE   C2B12448   8.786  10.717   7.396 -0.0424 -0.1647  0.0342
  914YOPE   D3B12449   8.680  11.041   7.730 -0.3239  0.1447 -0.1003
  914YOPE   C4B12450   8.866  11.297   7.970 -0.0939  0.1829 -0.2699
  915YOPE   NH312451   8.611   6.813   5.649 -0.0296 -0.3546 -0.1489
  915YOPE   PO412452   9.009   6.908   5.814 -0.0776 -0.2615 -0.1165
  915YOPE   GL112453   8.923   6.846   6.204  0.2451 -0.2296  0.0676
  915YOPE   GL212454   8.864   6.509   6.394  0.0372 -0.2665  0.1914
  915YOPE   C1A12455   9.099   7.033   6.566 -0.1033 -0.1063  0.1513
  915YOPE   D2A12456   9.091   6.891   6.953  0.0342  0.0592 -0.1460
  915YOPE   C3A12457   9.264   6.536   7.168 -0.0158 -0.3543 -0.2284
  915YOPE   C4A12458   9.405   6.146   7.462  0.0277 -0.2207 -0.2056
  915YOPE   C1B12459   8.851   6.476   6.814  0.1456 -0.2710  0.0515
  915YOPE   C2B12460   8.790   6.598   7.200  0.0849 -0.0225 -0.1107
  915YOPE   D3B12461   8.598   6.698   7.581 -0.1124  0.0295  0.1602
  915YOPE   C4B12462   8.158   6.569   7.769 -0.0967  0.0535 -0.0184
  916YOPE   NH312463   4.012   8.888   5.293  0.0081  0.0360  0.0594
  916YOPE   PO412464   3.877   9.174   5.617 -0.0054 -0.0312  0.1927
  916YOPE   GL112465   3.951   9.460   5.885  0.0254 -0.0526 -0.0832
  916YOPE   GL212466   4.154   9.455   6.043  0.0498 -0.1513 -0.2358
  916YOPE   C1A12467   3.813   9.890   6.104 -0.1920  0.1533 -0.2407
  916YOPE   D2A12468   3.475  10.083   6.558  0.1701 -0.0192  0.1085
  916YOPE   C3A12469   3.596  10.134   6.969 -0.0080 -0.0295 -0.0731
  916YOPE   C4A12470   3.288  10.341   7.222 -0.2052  0.0733  0.0930
  916YOPE   C1B12471   4.099   9.652   6.476  0.0479  0.0623 -0.1943
  916YOPE   C2B12472   3.767   9.673   6.748 -0.0599 -0.0017 -0.1297
  916YOPE   D3B12473   3.304   9.730   6.895 -0.0134  0.0902  0.1305
  916YOPE   C4B12474   3.017   9.924   7.121  0.1227  0.3609 -0.0677
  917YOPE   NH312475   8.055   5.987   6.087  0.1273 -0.2813  0.1469
  917YOPE   PO412476   8.021   6.474   6.160 -0.1246  0.1616  0.0657
  917YOPE   GL112477   7.855   6.392   6.532  0.1100 -0.0265  0.0191
  917YOPE   GL212478   7.710   6.156   6.438 -0.0017  0.0354 -0.1691
  917YOPE   C1A12479   7.902   6.369   6.982  0.1605 -0.0944  0.2228
  917YOPE   D2A12480   7.798   6.333   7.363  0.2735  0.3651 -0.2516
  917YOPE   C3A12481   7.648   5.933   7.614  0.2699 -0.1023 -0.1219
  917YOPE   C4A12482   7.654   5.797   8.021 -0.1155  0.0988  0.0055
  917YOPE   C1B12483   7.554   6.015   6.790  0.3427 -0.0451  0.5072
  917YOPE   C2B12484   7.371   6.070   7.212  0.2983  0.1921  0.0712
  917YOPE   D3B12485   7.110   6.056   7.492  0.1925 -0.0779 -0.0441
  917YOPE   C4B12486   7.234   6.103   7.941 -0.1275 -0.0440 -0.0847
  918YOPE   NH312487  17.759  16.476   6.449 -0.0305 -0.0230 -0.2276
  918YOPE   PO412488  18.223  16.554   6.409 -0.3502 -0.0121 -0.0007
  918YOPE   GL112489  18.143  16.713   6.838  0.0549  0.0596  0.1422
  918YOPE   GL212490  17.872  16.842   6.845 -0.2274  0.1753  0.2564
  918YOPE   C1A12491  18.160  16.591   7.169  0.2260  0.2015 -0.1468
  918YOPE   D2A12492  18.182  16.229   7.375  0.0995  0.2915  0.0992
  918YOPE   C3A12493  18.349  16.236   7.770 -0.0850 -0.2202  0.0779
  918YOPE   C4A12494  18.610  16.196   8.077 -0.0814 -0.0559  0.2777
  918YOPE   C1B12495  17.735  16.827   7.234  0.1754 -0.3398 -0.2256
  918YOPE   C2B12496  17.923  16.683   7.607 -0.0067 -0.0114  0.0647
  918YOPE   D3B12497  17.884  16.702   8.061 -0.0036 -0.1020  0.0436
  918YOPE   C4B12498  17.751  17.084   8.357 -0.1138  0.1829 -0.0440
  919YOPE   NH312499   1.990   1.422   5.868  0.1517 -0.2705  0.2387
  919YOPE   PO412500   2.283   1.730   5.828  0.1244  0.2771  0.0982
  919YOPE   GL112501   2.262   1.552   6.303  0.2255 -0.2097  0.1035
  919YOPE   GL212502   2.303   1.252   6.240  0.1474  0.0812 -0.1333
  919YOPE   C1A12503   2.261   1.582   6.720  0.1380 -0.1223  0.0373
  919YOPE   D2A12504   2.232   1.728   7.146 -0.1827 -0.0017 -0.2800
  919YOPE   C3A12505   2.003   2.003   7.467  0.2985 -0.1587 -0.0021
  919YOPE   C4A12506   1.813   1.955   7.826  0.1230  0.2802  0.0066
  919YOPE   C1B12507   2.580   1.062   6.559  0.0671 -0.5433 -0.4068
  919YOPE   C2B12508   2.575   1.221   6.944 -0.0995  0.0787  0.1852
  919YOPE   D3B12509   2.654   1.440   7.320  0.1868  0.1686  0.0308
  919YOPE   C4B12510   2.701   1.430   7.810 -0.2691  0.1367 -0.2277
  920YOPE   NH312511   7.066   4.575   5.690 -0.1710 -0.4099 -0.0239
  920YOPE   PO412512   7.362   4.660   5.985 -0.0548 -0.0293 -0.1321
  920YOPE   GL112513   7.307   4.656   6.373 -0.1515  0.0463 -0.1833
  920YOPE   GL212514   7.638   4.653   6.444 -0.0583 -0.3485  0.0165
  920YOPE   C1A12515   7.139   4.638   6.831 -0.3514  0.1680  0.0266
  920YOPE   D2A12516   7.289   4.654   7.233 -0.0618 -0.4719 -0.4751
  920YOPE   C3A12517   7.122   4.899   7.557  0.2094  0.0796 -0.2632
  920YOPE   C4A12518   6.687   4.837   7.667 -0.0189  0.4586  0.0184
  920YOPE   C1B12519   7.625   4.535   6.878  0.4547  0.1783 -0.0663
  920YOPE   C2B12520   7.773   4.342   7.178  0.3398 -0.2630  0.2252
  920YOPE   D3B12521   8.030   4.349   7.609  0.0479  0.0541 -0.0216
  920YOPE   C4B12522   8.103   4.035   7.949  0.2378  0.2016 -0.0869
  921YOPE   NH312523   5.213   5.077   6.022 -0.4848 -0.1555  0.3655
  921YOPE   PO412524   4.921   5.403   5.880  0.0422  0.1158 -0.1845
  921YOPE   GL112525   4.744   5.536   6.296 -0.2100 -0.2508  0.1830
  921YOPE   GL212526   4.515   5.349   6.350  0.2773  0.3218 -0.3585
  921YOPE   C1A12527   4.914   5.629   6.724 -0.1441 -0.0691 -0.2781
  921YOPE   D2A12528   5.142   5.523   7.172  0.0423  0.0723  0.2921
  921YOPE   C3A12529   4.866   5.607   7.503 -0.0217  0.0289 -0.1099
  921YOPE   C4A12530   4.635   5.183   7.767  0.1884 -0.0342  0.0872
  921YOPE   C1B12531   4.281   5.448   6.703 -0.0462 -0.2042 -0.2715
  921YOPE   C2B12532   4.104   5.588   7.065  0.0100  0.0531  0.1516
  921YOPE   D3B12533   3.892   5.867   7.353 -0.2502 -0.2328 -0.2982
  921YOPE   C4B12534   4.129   6.167   7.617 -0.1440  0.0476 -0.0351
  922YOPE   NH312535  13.909  16.261   6.624  0.1345 -0.3630  0.3695
  922YOPE   PO412536  13.780  16.754   6.594  0.1177 -0.1555  0.0931
  922YOPE   GL112537  13.847  16.684   6.967  0.0810 -0.1822  0.2738
  922YOPE   GL212538  13.641  16.982   7.042 -0.0122 -0.3363 -0.0724
  922YOPE   C1A12539  14.178  16.413   7.217 -0.1085 -0.0404 -0.1735
  922YOPE   D2A12540  14.438  16.423   7.633 -0.2216 -0.0501 -0.0348
  922YOPE   C3A12541  14.245  16.414   8.014  0.0016 -0.2568 -0.2700
  922YOPE   C4A12542  14.190  16.343   8.441  0.0248 -0.1204  0.1389
  922YOPE   C1B12543  13.550  16.794   7.371  0.0347  0.1992 -0.2526
  922YOPE   C2B12544  13.666  16.789   7.691 -0.1528  0.2854  0.3109
  922YOPE   D3B12545  13.431  16.671   8.000 -0.1429  0.0539 -0.0564
  922YOPE   C4B12546  13.335  16.534   8.286  0.3373  0.3252  0.1941
  923YOPE   NH312547  15.714  15.269   6.499  0.2342  0.0744 -0.2252
  923YOPE   PO412548  15.810  15.718   6.664 -0.1033  0.2481 -0.0726
  923YOPE   GL112549  15.627  15.706   7.120 -0.2779  0.0633 -0.0669
  923YOPE   GL212550  15.356  15.481   7.176 -0.1117 -0.0409 -0.1636
  923YOPE   C1A12551  15.841  15.888   7.450 -0.2043 -0.0607  0.0058
  923YOPE   D2A12552  15.920  16.107   7.740  0.1936 -0.0655 -0.0881
  923YOPE   C3A12553  15.929  15.983   8.171 -0.3770 -0.1385 -0.0185
  923YOPE   C4A12554  16.171  15.664   8.490  0.0806  0.2011  0.2290
  923YOPE   C1B12555  15.279  15.430   7.632 -0.0443  0.0120  0.0103
  923YOPE   C2B12556  15.523  15.117   7.749  0.0402  0.1300  0.1848
  923YOPE   D3B12557  15.923  15.070   7.886  0.1732 -0.3797  0.2143
  923YOPE   C4B12558  16.331  14.864   7.695 -0.2393  0.0139  0.0822
  924YOPE   NH312559   4.243   1.605   6.206  0.0045  0.5064 -0.1095
  924YOPE   PO412560   4.305   1.146   6.152 -0.1655 -0.2821 -0.2622
  924YOPE   GL112561   4.479   1.259   6.503  0.0094  0.0177  0.0593
  924YOPE   GL212562   4.675   1.000   6.671  0.0844  0.0068  0.1389
  924YOPE   C1A12563   4.337   1.470   6.829 -0.1607 -0.0436  0.0407
  924YOPE   D2A12564   4.262   1.779   7.039 -0.2283 -0.3150 -0.0787
  924YOPE   C3A12565   3.885   1.986   6.869  0.2024 -0.0153  0.0597
  924YOPE   C4A12566   3.410   1.822   6.752  0.0915  0.1425 -0.0720
  924YOPE   C1B12567   4.476   0.902   7.096 -0.1119  0.0926 -0.1506
  924YOPE   C2B12568   4.508   1.005   7.505 -0.0499  0.0636  0.0158
  924YOPE   D3B12569   4.772   1.220   7.750 -0.0735 -0.2646  0.3069
  924YOPE   C4B12570   5.027   1.263   8.121  0.0073  0.1476 -0.0891
  925YOPE   NH312571  15.145  12.872   6.206  0.0567  0.1318 -0.2583
  925YOPE   PO412572  14.783  12.953   6.499 -0.1105  0.0983  0.0023
  925YOPE   GL112573  15.157  13.152   6.662  0.1614  0.1324  0.3923
  925YOPE   GL212574  15.106  13.479   6.748  0.0957  0.0713  0.0722
  925YOPE   C1A12575  15.423  12.843   6.976 -0.0720  0.4136  0.3030
  925YOPE   D2A12576  15.587  12.683   7.407 -0.1171  0.2136 -0.0756
  925YOPE   C3A12577  16.089  12.579   7.408  0.2370 -0.1400  0.0290
  925YOPE   C4A12578  16.321  12.272   7.796 -0.0181 -0.1249 -0.0306
  925YOPE   C1B12579  15.303  13.665   7.092 -0.1279 -0.0812 -0.0877
  925YOPE   C2B12580  15.564  13.822   7.477 -0.1368 -0.0619 -0.0222
  925YOPE   D3B12581  15.584  14.187   7.688 -0.2327  0.1840 -0.1492
  925YOPE   C4B12582  15.516  14.610   7.846 -0.2492  0.1330  0.0147
  926YOPE   NH312583  12.578  15.157   6.215 -0.2729 -0.1301 -0.2246
  926YOPE   PO412584  12.262  15.445   6.345 -0.1642 -0.2930  0.2346
  926YOPE   GL112585  12.222  15.598   6.689  0.2257 -0.2388 -0.0241
  926YOPE   GL212586  12.553  15.553   6.798  0.1682 -0.2214 -0.0281
  926YOPE   C1A12587  12.413  16.021   6.889 -0.1510 -0.0923 -0.0268
  926YOPE   D2A12588  12.453  16.049   7.326  0.1320  0.2425 -0.2227
  926YOPE   C3A12589  12.517  16.058   7.860  0.1813  0.0275  0.1087
  926YOPE   C4A12590  12.476  15.857   8.280 -0.1779 -0.1831  0.1810
  926YOPE   C1B12591  12.353  15.575   7.212 -0.1502 -0.1264  0.0087
  926YOPE   C2B12592  12.480  15.595   7.602  0.0452 -0.2305 -0.3641
  926YOPE   D3B12593  12.509  15.426   8.064 -0.0587  0.1872 -0.3117
  926YOPE   C4B12594  12.645  15.337   8.523  0.1587  0.0854  0.0159
  927YOPE   NH312595  11.720   2.048   6.597  0.1333 -0.0010  0.0782
  927YOPE   PO412596  11.494   1.807   6.771  0.0407  0.0471  0.3288
  927YOPE   GL112597  11.587   2.075   7.115 -0.2068 -0.2075  0.1235
  927YOPE   GL212598  11.833   2.226   7.066  0.1700 -0.2548 -0.0299
  927YOPE   C1A12599  11.559   2.129   7.496  0.0035 -0.1444 -0.1470
  927YOPE   D2A12600  11.787   2.517   7.705 -0.0444 -0.0815 -0.2061
  927YOPE   C3A12601  11.416   2.718   7.889 -0.0265 -0.1373  0.2743
  927YOPE   C4A12602  11.162   2.925   7.817 -0.0839 -0.0603  0.0262
  927YOPE   C1B12603  12.037   2.206   7.444  0.0047 -0.1710 -0.0706
  927YOPE   C2B12604  12.244   2.453   7.825  0.4564 -0.1915 -0.0823
  927YOPE   D3B12605  12.508   2.624   8.086  0.3229 -0.4714 -0.1057
  927YOPE   C4B12606  12.800   2.894   8.304 -0.0552  0.2547  0.5054
  928YOPE   NH312607  14.293  12.186   6.002 -0.2640  0.1033  0.3263
  928YOPE   PO412608  14.566  12.620   6.175  0.1293 -0.1604  0.1010
  928YOPE   GL112609  14.434  12.499   6.590 -0.0968  0.0477  0.1399
  928YOPE   GL212610  14.398  12.142   6.493 -0.1678 -0.5201  0.2140
  928YOPE   C1A12611  14.426  12.563   7.036 -0.0020 -0.1990 -0.0396
  928YOPE   D2A12612  14.572  12.807   7.441  0.0474  0.1701 -0.1128
  928YOPE   C3A12613  14.278  13.034   7.646  0.1855 -0.0818  0.0960
  928YOPE   C4A12614  13.932  13.301   7.600  0.4106 -0.1182  0.1396
  928YOPE   C1B12615  14.379  12.068   6.874 -0.1890 -0.0496 -0.1982
  928YOPE   C2B12616  14.472  12.151   7.290  0.0701 -0.1206 -0.1494
  928YOPE   D3B12617  14.353  12.077   7.726  0.0818 -0.1531  0.0871
  928YOPE   C4B12618  14.034  12.075   8.055 -0.1697 -0.0176  0.1189
  929YOPE   NH312619   5.512  13.686   5.963  0.1701 -0.0657  0.0867
  929YOPE   PO412620   5.722  13.293   5.792  0.0660 -0.0587 -0.3885
  929YOPE   GL112621   5.471  13.105   6.109 -0.1718 -0.0465 -0.0969
  929YOPE   GL212622   5.469  13.282   6.305  0.0851  0.0204 -0.1376
  929YOPE   C1A12623   5.143  12.939   6.345 -0.3422 -0.1991  0.1247
  929YOPE   D2A12624   4.961  12.864   6.659  0.1447  0.3376 -0.2558
  929YOPE   C3A12625   4.893  13.072   6.937  0.0856  0.3337  0.0194
  929YOPE   C4A12626   4.891  13.150   7.408  0.2135 -0.0361 -0.0628
  929YOPE   C1B12627   5.390  13.266   6.719  0.0253 -0.0980  0.0641
  929YOPE   C2B12628   5.355  13.230   7.175  0.1568 -0.1643 -0.2593
  929YOPE   D3B12629   5.354  13.454   7.686  0.1137  0.0193 -0.2434
  929YOPE   C4B12630   5.571  13.619   8.026  0.2472  0.1581 -0.1925
  930YOPE   NH312631   2.278   6.145   5.911  0.0244  0.1195  0.2804
  930YOPE   PO412632   2.163   6.555   5.934  0.2183 -0.0854 -0.3289
  930YOPE   GL112633   1.815   6.332   6.164  0.0063  0.0383  0.0126
  930YOPE   GL212634   1.541   5.983   6.097 -0.1304  0.5184  0.2944
  930YOPE   C1A12635   1.919   6.304   6.649  0.4817 -0.0556 -0.0290
  930YOPE   D2A12636   1.876   6.217   7.087 -0.1714  0.0572 -0.0903
  930YOPE   C3A12637   2.122   6.400   7.361  0.0248  0.1039  0.2436
  930YOPE   C4A12638   2.439   6.453   7.487  0.0585  0.3385  0.0377
  930YOPE   C1B12639   1.674   5.816   6.456 -0.3092  0.1418  0.1848
  930YOPE   C2B12640   1.801   5.558   6.636 -0.0133 -0.1314 -0.1838
  930YOPE   D3B12641   1.453   5.417   6.925 -0.1696  0.1195 -0.1968
  930YOPE   C4B12642   0.995   5.313   6.881 -0.1090  0.4013  0.0276
  931YOPE   NH312643   3.866   4.771   5.807  0.1975 -0.1911  0.0295
  931YOPE   PO412644   3.811   5.340   5.784  0.1076  0.1197 -0.0188
  931YOPE   GL112645   3.902   5.251   6.149  0.2527 -0.1920 -0.2123
  931YOPE   GL212646   4.126   5.044   6.359 -0.0533 -0.4298 -0.0212
  931YOPE   C1A12647   3.859   5.328   6.633  0.1574  0.0122 -0.3062
  931YOPE   D2A12648   4.081   5.103   7.047  0.1420 -0.1339 -0.1079
  931YOPE   C3A12649   3.887   5.213   7.431 -0.1842 -0.0110 -0.1132
  931YOPE   C4A12650   3.795   5.514   7.712 -0.1009 -0.0692 -0.3605
  931YOPE   C1B12651   4.352   4.905   6.632  0.0052  0.1292 -0.0291
  931YOPE   C2B12652   4.362   4.709   7.000 -0.1405  0.4300 -0.2831
  931YOPE   D3B12653   4.346   4.300   7.219  0.0116 -0.0932  0.2905
  931YOPE   C4B12654   4.008   4.164   7.423  0.0549 -0.1047  0.1392
  932YOPE   NH312655  17.870   7.362   5.503  0.0167  0.1230  0.0486
  932YOPE   PO412656  17.833   7.790   5.656  0.1359 -0.0765 -0.0014
  932YOPE   GL112657  18.086   7.725   6.012  0.1000  0.0492 -0.1158
  932YOPE   GL212658  18.455   7.872   6.102  0.2109 -0.2438 -0.2154
  932YOPE   C1A12659  18.097   7.670   6.453 -0.0519  0.3611  0.3034
  932YOPE   D2A12660  18.046   7.786   6.883 -0.1099  0.2263  0.0105
  932YOPE   C3A12661  18.095   7.435   7.205 -0.0548 -0.3412 -0.2882
  932YOPE   C4A12662  18.279   7.060   7.159  0.0164 -0.2282  0.0742
  932YOPE   C1B12663  18.544   7.947   6.490  0.4759  0.0537 -0.2323
  932YOPE   C2B12664  18.742   8.035   6.772 -0.1556  0.1282 -0.2327
  932YOPE   D3B12665  18.749   8.270   7.128 -0.0795  0.1322  0.0397
  932YOPE   C4B12666  18.538   8.308   7.473 -0.2052 -0.1033  0.2652
  933YOPE   NH312667  10.576  10.881   6.300  0.2451 -0.1428 -0.2444
  933YOPE   PO412668  10.346  10.498   6.300 -0.0850  0.0510 -0.0871
  933YOPE   GL112669  10.300  10.677   6.659 -0.1916 -0.0173  0.1620
  933YOPE   GL212670  10.240  10.394   6.887  0.2894 -0.0413  0.0456
  933YOPE   C1A12671  10.352  10.969   7.087  0.2183  0.1821  0.0717
  933YOPE   D2A12672  10.280  10.961   7.503 -0.1946 -0.2524 -0.3425
  933YOPE   C3A12673  10.601  11.276   7.756  0.2292  0.0483  0.1764
  933YOPE   C4A12674  10.672  11.707   7.959 -0.2213  0.3378  0.1663
  933YOPE   C1B12675   9.998  10.647   7.268  0.4600 -0.1547 -0.0280
  933YOPE   C2B12676   9.926  10.488   7.649  0.0422  0.0613  0.1225
  933YOPE   D3B12677   9.640  10.433   7.991  0.0801 -0.0610  0.1182
  933YOPE   C4B12678   9.405  10.491   8.269  0.2101 -0.1631 -0.1247
  934YOPE   NH312679   1.660  14.965   6.412 -0.2154  0.4310  0.0011
  934YOPE   PO412680   1.882  14.740   5.964  0.0115 -0.1127  0.0105
  934YOPE   GL112681   1.929  14.534   6.398 -0.0526  0.1487 -0.2273
  934YOPE   GL212682   1.901  14.141   6.354  0.0407 -0.0596 -0.2407
  934YOPE   C1A12683   1.759  14.449   6.853 -0.2787 -0.0093  0.0633
  934YOPE   D2A12684   1.622  14.410   7.294 -0.0742 -0.1424  0.2970
  934YOPE   C3A12685   1.639  14.459   7.689  0.1491  0.1268  0.1219
  934YOPE   C4A12686   1.621  14.466   8.163  0.1943  0.2219 -0.1070
  934YOPE   C1B12687   1.695  13.961   6.695 -0.2561  0.1601 -0.0169
  934YOPE   C2B12688   1.829  14.000   7.144  0.3666 -0.0332  0.0951
  934YOPE   D3B12689   1.768  13.965   7.563  0.0877 -0.0162 -0.0338
  934YOPE   C4B12690   1.876  14.061   7.937  0.1477 -0.1043 -0.0638
  935YOPE   NH312691   7.838   3.694   6.262  0.2863 -0.0067  0.0938
  935YOPE   PO412692   7.912   4.202   6.363 -0.3004  0.2438  0.0252
  935YOPE   GL112693   7.981   3.992   6.691 -0.0036 -0.1010 -0.1120
  935YOPE   GL212694   7.622   3.922   6.684 -0.1343 -0.0898 -0.0410
  935YOPE   C1A12695   8.203   3.914   6.964 -0.0497  0.0165  0.3679
  935YOPE   D2A12696   8.140   3.906   7.445  0.1788 -0.0777 -0.1496
  935YOPE   C3A12697   7.914   3.551   7.573 -0.0101 -0.0805 -0.0280
  935YOPE   C4A12698   7.482   3.425   7.482 -0.3093  0.0660  0.0431
  935YOPE   C1B12699   7.300   3.715   6.925 -0.1386  0.4700 -0.0648
  935YOPE   C2B12700   7.027   3.679   7.195 -0.0007  0.1641 -0.0437
  935YOPE   D3B12701   7.016   3.516   7.667 -0.4682 -0.0052  0.1291
  935YOPE   C4B12702   7.276   3.585   7.911  0.2667 -0.0461  0.1820
  936YOPE   NH312703  13.994   4.596   5.766 -0.0369 -0.2714  0.0226
  936YOPE   PO412704  13.933   5.023   6.073  0.0456 -0.1662  0.0983
  936YOPE   GL112705  14.092   4.812   6.439 -0.2891  0.1064 -0.1738
  936YOPE   GL212706  13.915   4.579   6.531 -0.0631 -0.0235 -0.0555
  936YOPE   C1A12707  14.446   4.841   6.728 -0.4231  0.2637  0.1660
  936YOPE   D2A12708  14.640   4.822   7.102  0.0107  0.0846  0.0412
  936YOPE   C3A12709  14.665   4.828   7.532 -0.0807  0.1828 -0.2095
  936YOPE   C4A12710  14.575   4.497   7.822 -0.0335 -0.3545 -0.1731
  936YOPE   C1B12711  13.944   4.771   6.906 -0.0079  0.5597 -0.4744
  936YOPE   C2B12712  14.155   5.030   7.212 -0.2641 -0.0067  0.0929
  936YOPE   D3B12713  14.340   5.189   7.589 -0.2762 -0.3393 -0.1115
  936YOPE   C4B12714  14.368   5.502   7.897 -0.0838 -0.2808  0.0169
  937YOPE   NH312715  16.948  13.361   6.035 -0.1086 -0.0392 -0.2711
  937YOPE   PO412716  16.780  13.658   5.839 -0.1712 -0.0848 -0.3722
  937YOPE   GL112717  16.724  13.784   6.272  0.2153 -0.0886  0.0240
  937YOPE   GL212718  17.106  13.752   6.380  0.1989  0.2164  0.0269
  937YOPE   C1A12719  16.740  13.834   6.674  0.2682  0.2083 -0.0155
  937YOPE   D2A12720  16.586  14.064   7.090  0.1618 -0.5076  0.1094
  937YOPE   C3A12721  16.527  13.857   7.391  0.1174  0.2384 -0.0710
  937YOPE   C4A12722  16.461  13.712   7.834  0.2739  0.1687  0.2559
  937YOPE   C1B12723  17.285  13.864   6.692 -0.0819  0.0818  0.0680
  937YOPE   C2B12724  17.109  14.012   7.113 -0.0445 -0.0284 -0.0032
  937YOPE   D3B12725  16.945  14.143   7.426 -0.0621  0.0069  0.0474
  937YOPE   C4B12726  16.841  14.063   7.811 -0.1204 -0.0996  0.3250
  938YOPE   NH312727   9.381   1.820   6.361 -0.1483 -0.0224 -0.0514
  938YOPE   PO412728   9.868   1.738   6.570  0.0146  0.0050  0.2296
  938YOPE   GL112729   9.595   2.013   6.821  0.2855  0.1156 -0.1203
  938YOPE   GL212730   9.714   2.261   6.820  0.0446  0.2786 -0.0546
  938YOPE   C1A12731   9.742   2.266   7.266  0.0593 -0.0309  0.0561
  938YOPE   D2A12732   9.723   2.386   7.669  0.1596 -0.0627  0.1022
  938YOPE   C3A12733   9.359   2.332   7.919 -0.0379 -0.1307  0.2106
  938YOPE   C4A12734   9.345   2.230   8.320 -0.2857 -0.2103 -0.0381
  938YOPE   C1B12735   9.306   2.473   7.005 -0.1739 -0.0220  0.0305
  938YOPE   C2B12736   8.935   2.434   7.252  0.2311  0.0622 -0.3065
  938YOPE   D3B12737   8.858   2.317   7.699 -0.0561  0.0099 -0.0248
  938YOPE   C4B12738   8.777   2.250   8.127  0.2136 -0.0188 -0.0351
  939YOPE   NH312739  11.580  11.567   6.152  0.1325 -0.0448 -0.0150
  939YOPE   PO412740  11.324  11.186   6.111 -0.1568 -0.0652 -0.2953
  939YOPE   GL112741  11.525  11.037   6.526 -0.1142  0.0138 -0.0098
  939YOPE   GL212742  11.771  10.782   6.555  0.4476 -0.1525 -0.1020
  939YOPE   C1A12743  11.487  11.000   6.927  0.0395  0.1827  0.3126
  939YOPE   D2A12744  11.514  10.723   7.295  0.0056 -0.3385 -0.0949
  939YOPE   C3A12745  11.768  10.932   7.586 -0.1198 -0.0220 -0.1638
  939YOPE   C4A12746  12.188  10.955   7.756 -0.0702  0.0350 -0.1521
  939YOPE   C1B12747  11.938  10.794   7.000 -0.0779 -0.0486  0.3211
  939YOPE   C2B12748  12.150  10.645   7.303  0.0186 -0.4012  0.1563
  939YOPE   D3B12749  12.405  10.439   7.565  0.2157 -0.1672  0.0536
  939YOPE   C4B12750  12.661  10.604   7.816  0.0528  0.2703  0.2910
  940YOPE   NH312751  12.869   6.748   5.962 -0.0245 -0.0222  0.4270
  940YOPE   PO412752  12.549   6.721   5.682  0.0526  0.1870  0.0459
  940YOPE   GL112753  12.312   6.782   6.075  0.2758  0.2246  0.1098
  940YOPE   GL212754  12.054   6.915   6.211 -0.0240 -0.5355  0.1116
  940YOPE   C1A12755  12.442   6.787   6.533  0.2246  0.0246 -0.1590
  940YOPE   D2A12756  12.278   6.693   7.007 -0.2254  0.2253 -0.0275
  940YOPE   C3A12757  12.511   6.581   7.514  0.1160  0.0837  0.1515
  940YOPE   C4A12758  12.603   6.209   7.747  0.5508 -0.4499 -0.2644
  940YOPE   C1B12759  12.029   7.012   6.679 -0.4732  0.2028  0.0057
  940YOPE   C2B12760  12.083   7.147   7.123 -0.2180  0.0123 -0.1565
  940YOPE   D3B12761  12.090   7.404   7.474 -0.0211 -0.0242  0.1489
  940YOPE   C4B12762  11.985   7.537   7.816  0.1438 -0.0310  0.1818
  941YOPE   NH312763   0.378  11.544   5.799  0.0727  0.1701 -0.0894
  941YOPE   PO412764   0.114  11.797   6.134  0.5380 -0.0448  0.2416
  941YOPE   GL112765   0.487  11.633   6.469  0.0333  0.1131 -0.1453
  941YOPE   GL212766   0.487  11.939   6.570  0.1344  0.1646  0.0335
  941YOPE   C1A12767   0.508  11.485   6.834  0.1082 -0.0388  0.1954
  941YOPE   D2A12768   0.576  11.439   7.353  0.0171 -0.0554 -0.0375
  941YOPE   C3A12769   0.354  11.115   7.571  0.0540 -0.1795  0.1767
  941YOPE   C4A12770   0.261  10.797   7.651  0.3881 -0.1986  0.3260
  941YOPE   C1B12771   0.375  12.130   7.058 -0.1112 -0.1902  0.0555
  941YOPE   C2B12772   0.251  12.277   7.453 -0.0479 -0.0496  0.0627
  941YOPE   D3B12773   0.108  12.118   7.778 -0.1534 -0.0932 -0.0548
  941YOPE   C4B12774  -0.110  11.841   7.925 -0.1064 -0.4514  0.1304
  942POPC   NC312775   2.875  16.337   6.317  0.2164 -0.1721 -0.0185
  942POPC   PO412776   2.737  15.939   6.400  0.3032  0.0152 -0.2603
  942POPC   GL112777   2.727  16.047   6.719 -0.1674 -0.1271  0.0064
  942POPC   GL212778   3.067  16.131   6.730 -0.1874  0.1301 -0.0242
  942POPC   C1A12779   2.620  16.156   7.160  0.0078  0.2334 -0.0006
  942POPC   D2A12780   2.379  16.069   7.565 -0.1937  0.0466 -0.0562
  942POPC   C3A12781   2.295  15.743   7.977  0.1825 -0.3643  0.0938
  942POPC   C4A12782   2.448  15.658   8.346 -0.0683 -0.0682 -0.1694
  942POPC   C1B12783   3.095  15.951   7.132  0.6192 -0.1158  0.2399
  942POPC   C2B12784   3.142  15.409   7.266  0.0428 -0.0536  0.3441
  942POPC   C3B12785   3.122  15.137   7.609  0.1353 -0.0804  0.1159
  942POPC   C4B12786   2.951  15.053   8.006 -0.2071  0.4603 -0.0925
  943POPC   NC312787  11.844  17.147   6.205 -0.0613 -0.2943  0.1098
  943POPC   PO412788  11.524  17.029   6.208  0.1118  0.1442 -0.1494
  943POPC   GL112789  11.596  17.146   6.687 -0.1988  0.2876  0.2958
  943POPC   GL212790  11.979  17.233   6.792  0.2591 -0.1226  0.1812
  943POPC   C1A12791  11.554  17.092   7.159  0.2191  0.0392  0.0143
  943POPC   D2A12792  11.400  17.014   7.591 -0.0581 -0.0175 -0.0542
  943POPC   C3A12793  11.711  17.071   7.994  0.1138 -0.0959 -0.2026
  943POPC   C4A12794  11.914  17.223   8.350  0.1660  0.0133  0.1167
  943POPC   C1B12795  12.095  17.068   7.130  0.1187 -0.0664  0.0888
  943POPC   C2B12796  12.049  16.969   7.526 -0.0299 -0.4050 -0.3757
  943POPC   C3B12797  12.180  17.220   7.857 -0.0261  0.0476  0.0420
  943POPC   C4B12798  12.488  17.170   8.118 -0.2270  0.2406  0.0168
  944POPC   NC312799  14.793  17.440   6.124 -0.0443 -0.0877  0.3041
  944POPC   PO412800  14.459  17.304   6.496 -0.1711  0.1337  0.1681
  944POPC   GL112801  14.534  17.426   6.859 -0.0260 -0.0567  0.1759
  944POPC   GL212802  14.533  17.751   7.160 -0.4876  0.2386  0.2178
  944POPC   C1A12803  14.590  17.270   7.287  0.3858  0.0687 -0.0473
  944POPC   D2A12804  14.638  17.401   7.660 -0.0090  0.0251  0.0820
  944POPC   C3A12805  14.455  17.238   7.958 -0.0534  0.0124 -0.1533
  944POPC   C4A12806  14.322  16.993   8.349 -0.0058  0.0894  0.0233
  944POPC   C1B12807  14.380  17.998   7.460  0.3323  0.0717  0.0327
  944POPC   C2B12808  14.145  18.027   7.832  0.1340 -0.0566 -0.1216
  944POPC   C3B12809  14.113  18.128   8.258  0.0437  0.0283 -0.1978
  944POPC   C4B12810  14.210  17.997   8.674  0.2015 -0.5867  0.0393
  945POPC   NC312811  11.331  14.964   5.816  0.0117  0.0511  0.0798
  945POPC   PO412812  11.538  14.850   6.278 -0.0251 -0.1402  0.2395
  945POPC   GL112813  11.724  14.808   6.668 -0.0347  0.0464 -0.0234
  945POPC   GL212814  11.491  14.615   6.770 -0.0361  0.0574  0.0446
  945POPC   C1A12815  11.858  14.495   7.088 -0.3290 -0.1468 -0.1953
  945POPC   D2A12816  11.839  14.588   7.477 -0.0153  0.2033  0.0399
  945POPC   C3A12817  11.945  14.289   7.814 -0.0966  0.2414  0.0854
  945POPC   C4A12818  11.993  14.004   8.070 -0.0292 -0.2607 -0.3180
  945POPC   C1B12819  11.423  14.548   7.243  0.2340 -0.0961  0.0768
  945POPC   C2B12820  11.334  14.578   7.714 -0.1384  0.0255 -0.1088
  945POPC   C3B12821  11.206  14.573   8.050  0.0477 -0.0796  0.3711
  945POPC   C4B12822  11.221  14.932   8.267  0.1581 -0.1377 -0.0481
  946POPC   NC312823  11.781   6.212   5.474 -0.1378  0.2217 -0.0836
  946POPC   PO412824  11.841   6.090   5.934  0.1211 -0.0709 -0.0919
  946POPC   GL112825  11.932   5.709   6.123 -0.2972  0.2078 -0.1690
  946POPC   GL212826  11.961   5.933   6.380  0.0493  0.2133  0.1188
  946POPC   C1A12827  12.248   5.361   6.199  0.1609  0.1300 -0.1132
  946POPC   D2A12828  12.605   5.271   6.273  0.0008  0.1865 -0.0123
  946POPC   C3A12829  12.875   5.456   6.448  0.0668 -0.1305  0.1862
  946POPC   C4A12830  13.085   5.392   6.812  0.0465 -0.0243 -0.1530
  946POPC   C1B12831  11.922   5.762   6.791 -0.2122  0.2237 -0.0550
  946POPC   C2B12832  11.787   5.786   7.221 -0.3261 -0.0915  0.1139
  946POPC   C3B12833  11.933   5.779   7.579  0.5918  0.0149 -0.1478
  946POPC   C4B12834  12.080   5.510   7.872 -0.0759 -0.1622  0.1961
  947POPC   NC312835   6.765   4.148   5.570  0.1061 -0.1611  0.0768
  947POPC   PO412836   7.135   4.041   5.727 -0.3646 -0.0444 -0.1166
  947POPC   GL112837   6.971   4.198   6.038  0.1527 -0.1097  0.1405
  947POPC   GL212838   6.707   4.344   6.011  0.2219 -0.1784  0.1154
  947POPC   C1A12839   6.758   3.913   6.331  0.1055 -0.1050  0.0942
  947POPC   D2A12840   6.841   3.878   6.740 -0.1768 -0.1291 -0.0615
  947POPC   C3A12841   6.689   4.029   7.186 -0.3443  0.2553 -0.0957
  947POPC   C4A12842   6.413   4.187   7.523 -0.0349 -0.3315  0.1119
  947POPC   C1B12843   6.580   4.470   6.432 -0.0167  0.1535 -0.0848
  947POPC   C2B12844   6.690   4.341   6.839 -0.3581  0.2603  0.2841
  947POPC   C3B12845   6.738   4.481   7.155  0.1110 -0.0227  0.0510
  947POPC   C4B12846   6.924   4.439   7.521  0.0541  0.1791 -0.0315
  948POPC   NC312847  13.088   6.154   5.515  0.1133 -0.1467  0.0038
  948POPC   PO412848  13.312   5.722   5.621 -0.0647 -0.1500 -0.3581
  948POPC   GL112849  13.382   5.803   6.049  0.1834 -0.0059  0.0844
  948POPC   GL212850  13.623   6.035   6.202  0.2915  0.0693  0.1237
  948POPC   C1A12851  13.411   5.773   6.585  0.1442 -0.0133  0.2933
  948POPC   D2A12852  13.396   5.815   6.989  0.0392 -0.1906  0.0615
  948POPC   C3A12853  13.402   5.535   7.217 -0.1825 -0.1218  0.2231
  948POPC   C4A12854  13.491   5.414   7.627  0.3398 -0.1055  0.0817
  948POPC   C1B12855  13.890   6.079   6.543  0.0066 -0.0679 -0.1249
  948POPC   C2B12856  13.791   6.152   6.984 -0.2519  0.0777  0.0602
  948POPC   C3B12857  13.741   6.006   7.437 -0.0790 -0.1712  0.0050
  948POPC   C4B12858  13.691   5.877   7.824 -0.1155  0.1038  0.0491
  949POPC   NC312859   4.129   3.277   5.984  0.2540 -0.0471  0.0049
  949POPC   PO412860   4.691   3.324   6.032 -0.0189  0.0328 -0.0398
  949POPC   GL112861   4.421   3.521   6.326 -0.0113 -0.0066 -0.0245
  949POPC   GL212862   4.100   3.559   6.383  0.1851  0.0053  0.1109
  949POPC   C1A12863   4.447   3.570   6.719 -0.0534 -0.2374  0.1574
  949POPC   D2A12864   4.445   3.361   7.104  0.5009  0.0141 -0.1781
  949POPC   C3A12865   4.051   2.973   7.138  0.0995  0.1199  0.1512
  949POPC   C4A12866   3.760   2.858   6.889 -0.0497  0.0701 -0.0391
  949POPC   C1B12867   3.763   3.762   6.711  0.0461 -0.0755 -0.1611
  949POPC   C2B12868   3.557   3.939   7.054 -0.0474 -0.2694  0.2384
  949POPC   C3B12869   3.448   3.784   7.529 -0.1683  0.1458  0.1419
  949POPC   C4B12870   3.156   3.805   7.810 -0.0547 -0.2347  0.0153
  950POPC   NC312871   8.819  14.878   6.080 -0.0645 -0.2131 -0.2569
  950POPC   PO412872   8.455  14.522   5.885  0.1209 -0.0098  0.1186
  950POPC   GL112873   8.461  14.582   6.364 -0.0786  0.1823  0.1352
  950POPC   GL212874   8.324  14.261   6.461 -0.1002 -0.5496 -0.1520
  950POPC   C1A12875   8.687  14.603   6.791  0.0821  0.0050 -0.0609
  950POPC   D2A12876   8.781  14.630   7.182 -0.0620 -0.3963  0.0297
  950POPC   C3A12877   8.572  14.840   7.512  0.1180 -0.0551 -0.0245
  950POPC   C4A12878   8.822  14.994   7.854 -0.3001  0.2285 -0.2399
  950POPC   C1B12879   8.362  13.920   6.704  0.0005  0.0895  0.0058
  950POPC   C2B12880   8.501  13.559   6.970 -0.0671 -0.2873  0.0237
  950POPC   C3B12881   8.681  13.490   7.401 -0.0630  0.0081 -0.2121
  950POPC   C4B12882   8.605  13.511   7.851  0.0563  0.2862 -0.1477
  951POPC   NC312883  16.127   8.622   5.230  0.0165  0.0351  0.1226
  951POPC   PO412884  16.370   8.306   5.530  0.1727  0.0841  0.1050
  951POPC   GL112885  16.129   8.092   5.782  0.3574  0.2225  0.1480
  951POPC   GL212886  15.895   8.266   5.873  0.3981  0.0374  0.1393
  951POPC   C1A12887  16.213   7.902   6.163 -0.1328  0.1911 -0.0537
  951POPC   D2A12888  16.376   7.479   6.462 -0.0766 -0.0074  0.0951
  951POPC   C3A12889  16.329   7.326   6.888 -0.3134 -0.0683 -0.1056
  951POPC   C4A12890  16.201   7.365   7.311  0.1082  0.1006 -0.2940
  951POPC   C1B12891  15.663   8.375   6.217  0.0947  0.0540  0.2298
  951POPC   C2B12892  15.480   8.565   6.545 -0.0149 -0.2468  0.0738
  951POPC   C3B12893  15.514   8.533   6.963 -0.0254  0.1482  0.1944
  951POPC   C4B12894  15.803   8.611   7.271 -0.2883  0.2897 -0.2135
  952POPC   NC312895  17.153   4.639   5.710  0.1296 -0.1790 -0.2860
  952POPC   PO412896  17.420   4.993   5.722 -0.1688  0.2617 -0.0909
  952POPC   GL112897  17.538   5.142   6.086  0.2392 -0.0857  0.0009
  952POPC   GL212898  17.760   5.042   6.327  0.0210  0.0460  0.1690
  952POPC   C1A12899  17.552   5.419   6.538  0.0710 -0.0524 -0.1527
  952POPC   D2A12900  17.515   5.567   7.007 -0.1285 -0.0109  0.3381
  952POPC   C3A12901  17.604   5.301   7.346 -0.0337  0.1016  0.1794
  952POPC   C4A12902  17.526   5.212   7.746  0.0612  0.1958  0.1039
  952POPC   C1B12903  17.828   4.685   6.545  0.0178  0.0127 -0.2693
  952POPC   C2B12904  17.862   4.389   6.868 -0.0746  0.1057  0.0012
  952POPC   C3B12905  17.867   4.348   7.324  0.0273 -0.3062  0.4073
  952POPC   C4B12906  18.216   4.448   7.566 -0.2337 -0.4633 -0.0343
  953POPC   NC312907   0.254   4.751   5.470  0.0770 -0.1391 -0.2173
  953POPC   PO412908   0.551   5.126   5.687  0.1258 -0.3553  0.1367
  953POPC   GL112909   0.442   5.221   6.115 -0.2207 -0.2175  0.2860
  953POPC   GL212910   0.306   5.384   6.321 -0.3566  0.0886  0.0703
  953POPC   C1A12911   0.736   5.109   6.327 -0.2805 -0.2883 -0.0201
  953POPC   D2A12912   0.803   4.870   6.691  0.3243  0.1835  0.0183
  953POPC   C3A12913   0.828   4.927   7.121  0.1393  0.1898 -0.1989
  953POPC   C4A12914   0.562   4.771   7.398  0.1736  0.3096  0.0272
  953POPC   C1B12915   0.510   5.277   6.754  0.1606  0.0296 -0.0616
  953POPC   C2B12916   0.549   5.463   7.147 -0.0157  0.0960  0.0680
  953POPC   C3B12917   0.498   5.699   7.350  0.2109 -0.0808  0.1262
  953POPC   C4B12918   0.489   5.785   7.756  0.1467 -0.0736  0.0399
  954POPC   NC312919  10.539   4.022   5.470 -0.0817 -0.0735 -0.0041
  954POPC   PO412920  10.340   3.678   5.645  0.2211  0.0734  0.1937
  954POPC   GL112921  10.345   3.876   6.098  0.1058 -0.1175  0.1026
  954POPC   GL212922  10.592   3.968   6.315 -0.2420  0.4257 -0.1220
  954POPC   C1A12923  10.013   4.091   6.365 -0.1576  0.0849  0.1104
  954POPC   D2A12924   9.996   4.253   6.802 -0.1496  0.1705  0.0273
  954POPC   C3A12925  10.128   4.128   7.199 -0.1032  0.0890  0.1453
  954POPC   C4A12926  10.606   4.084   7.284 -0.0475  0.0749  0.0562
  954POPC   C1B12927  10.372   3.879   6.711  0.3658  0.0955 -0.2899
  954POPC   C2B12928  10.357   3.648   7.092  0.0717 -0.2791  0.0174
  954POPC   C3B12929  10.406   3.617   7.545  0.1751 -0.2355  0.1140
  954POPC   C4B12930  10.794   3.774   7.699  0.0210 -0.1106 -0.0410
  955POPC   NC312931  12.350   2.121   5.656  0.2543  0.0506  0.0845
  955POPC   PO412932  12.219   2.274   6.194 -0.3810 -0.0475  0.0974
  955POPC   GL112933  12.306   2.259   6.636 -0.1033 -0.0779  0.0222
  955POPC   GL212934  11.998   2.468   6.683  0.1594  0.0431 -0.3451
  955POPC   C1A12935  12.356   2.237   7.090  0.0474  0.0982 -0.0403
  955POPC   D2A12936  12.567   2.472   7.381  0.1384 -0.0165 -0.0943
  955POPC   C3A12937  12.813   2.497   7.776 -0.2356 -0.0220  0.0898
  955POPC   C4A12938  13.106   2.627   8.064 -0.3208  0.2796  0.0285
  955POPC   C1B12939  12.122   2.649   7.035 -0.0102 -0.0647  0.4456
  955POPC   C2B12940  12.083   2.782   7.384 -0.0692  0.1136  0.0886
  955POPC   C3B12941  12.375   2.899   7.694 -0.1775 -0.1158 -0.1312
  955POPC   C4B12942  12.449   3.122   8.033  0.0883  0.0274 -0.1266
  956POPC   NC312943   4.664   4.509   5.773 -0.2223 -0.2469  0.1837
  956POPC   PO412944   4.890   4.099   5.725  0.0559  0.1406 -0.1411
  956POPC   GL112945   4.943   4.113   6.210 -0.2036  0.0551 -0.2471
  956POPC   GL212946   4.775   4.427   6.273 -0.0350 -0.1155 -0.0598
  956POPC   C1A12947   4.864   3.734   6.492  0.0055 -0.0671 -0.0371
  956POPC   D2A12948   4.965   3.718   6.920 -0.1484 -0.3279 -0.1942
  956POPC   C3A12949   4.833   3.497   7.347  0.0820 -0.0762 -0.1906
  956POPC   C4A12950   4.707   3.727   7.721  0.3091  0.1282  0.1007
  956POPC   C1B12951   4.773   4.573   6.680  0.1523 -0.0143  0.0117
  956POPC   C2B12952   4.808   4.574   7.134 -0.2956  0.1688  0.1379
  956POPC   C3B12953   4.895   4.785   7.492  0.0113 -0.2002 -0.4996
  956POPC   C4B12954   5.133   5.147   7.552 -0.0358  0.1398  0.0097
  957POPC   NC312955  10.669   0.863   6.572 -0.1093  0.3332 -0.2299
  957POPC   PO412956  10.358   1.124   6.757 -0.2567  0.1602  0.0836
  957POPC   GL112957  10.417   1.007   7.088  0.3306  0.0704 -0.0745
  957POPC   GL212958  10.616   0.734   7.085  0.0944  0.2107 -0.0681
  957POPC   C1A12959  10.472   0.944   7.543 -0.1857  0.1212  0.2218
  957POPC   D2A12960  10.371   1.094   8.003  0.0764  0.4817  0.1185
  957POPC   C3A12961  10.093   1.316   8.175 -0.0900 -0.2019  0.2164
  957POPC   C4A12962   9.818   1.228   8.430  0.2357 -0.2129 -0.2517
  957POPC   C1B12963  10.636   0.496   7.414 -0.2385 -0.1618 -0.3244
  957POPC   C2B12964  10.686   0.447   7.797 -0.1934  0.0822  0.0813
  957POPC   C3B12965  11.085   0.548   8.092  0.2613 -0.0512  0.1882
  957POPC   C4B12966  11.237   0.239   8.420  0.1360 -0.0285 -0.1081
  958POPC   NC312967  11.074  12.216   5.793 -0.3019  0.2724 -0.1029
  958POPC   PO412968  10.917  12.119   6.278 -0.1065  0.1480 -0.1578
  958POPC   GL112969  10.785  12.090   6.672 -0.0750 -0.0017  0.1374
  958POPC   GL212970  10.463  12.231   6.525  0.0992 -0.1236 -0.1274
  958POPC   C1A12971  10.808  12.003   7.178 -0.0463 -0.0066 -0.1228
  958POPC   D2A12972  10.750  11.622   7.458 -0.0894  0.1354  0.1134
  958POPC   C3A12973  11.115  11.424   7.584 -0.0826  0.0525  0.0664
  958POPC   C4A12974  11.430  11.211   7.789  0.0546  0.0940  0.0445
  958POPC   C1B12975  10.093  12.379   6.813 -0.0948 -0.0286 -0.2929
  958POPC   C2B12976   9.913  12.298   7.213 -0.3435 -0.2979  0.2155
  958POPC   C3B12977   9.847  12.400   7.588  0.0498  0.0450  0.1461
  958POPC   C4B12978   9.475  12.468   7.793 -0.3807 -0.2964  0.1873
  959POPC   NC312979   0.522  17.007   6.519  0.2827  0.1061 -0.1482
  959POPC   PO412980   0.586  17.320   6.237 -0.1440 -0.1313  0.0061
  959POPC   GL112981   0.389  17.510   6.578  0.0475 -0.1513 -0.1134
  959POPC   GL212982   0.085  17.652   6.687 -0.1571  0.1418 -0.1615
  959POPC   C1A12983   0.507  17.627   6.967  0.0353 -0.2356 -0.0710
  959POPC   D2A12984   0.538  17.567   7.421  0.2133  0.0323  0.0084
  959POPC   C3A12985   0.512  17.257   7.682  0.1047 -0.1040 -0.1751
  959POPC   C4A12986   0.693  17.052   8.039 -0.1066 -0.2051 -0.0245
  959POPC   C1B12987   0.072  17.644   7.159 -0.3810 -0.0725  0.0040
  959POPC   C2B12988   0.126  17.859   7.540  0.1753  0.1304  0.0938
  959POPC   C3B12989   0.300  17.762   7.928 -0.2752  0.2244 -0.0817
  959POPC   C4B12990   0.309  17.801   8.472 -0.1054  0.0735  0.0654
  960POPC   NC312991   6.042  15.166   6.024  0.2920 -0.0212 -0.2021
  960POPC   PO412992   5.952  15.303   6.507 -0.2433 -0.0383 -0.1158
  960POPC   GL112993   5.962  15.229   6.931  0.4409 -0.0201  0.0141
  960POPC   GL212994   5.627  15.194   6.976  0.0766  0.2115 -0.1203
  960POPC   C1A12995   5.967  15.161   7.408 -0.3747 -0.0333  0.1003
  960POPC   D2A12996   6.025  14.879   7.697 -0.0174  0.0677  0.0290
  960POPC   C3A12997   6.065  15.030   8.064  0.0256 -0.0844  0.1383
  960POPC   C4A12998   6.014  15.028   8.486 -0.1983 -0.3123 -0.1675
  960POPC   C1B12999   5.486  14.930   7.420  0.1978  0.1905  0.0605
  960POPC   C2B13000   5.548  15.076   7.827 -0.4037  0.0020 -0.2994
  960POPC   C3B13001   5.518  14.922   8.169 -0.1449 -0.1343 -0.1516
  960POPC   C4B13002   5.647  14.641   8.457 -0.1908  0.0842 -0.3106
  961POPC   NC313003   1.378   2.197   5.862  0.0182  0.0557  0.0658
  961POPC   PO413004   1.300   2.520   6.084  0.0698 -0.0965 -0.0449
  961POPC   GL113005   1.379   2.606   6.429 -0.0882  0.1463 -0.0937
  961POPC   GL213006   1.306   2.950   6.488  0.1226 -0.2915 -0.1116
  961POPC   C1A13007   1.406   2.704   6.926  0.0264  0.0332 -0.4040
  961POPC   D2A13008   1.428   2.927   7.316  0.0426  0.2989  0.1328
  961POPC   C3A13009   1.567   2.739   7.686 -0.2105 -0.2249  0.1959
  961POPC   C4A13010   1.534   2.332   7.877  0.0886  0.1915 -0.1963
  961POPC   C1B13011   1.444   3.183   6.887  0.2134 -0.0150  0.2103
  961POPC   C2B13012   1.344   3.425   7.272 -0.2977  0.3016 -0.1617
  961POPC   C3B13013   0.959   3.644   7.426 -0.0346 -0.0841 -0.1701
  961POPC   C4B13014   0.775   4.087   7.563 -0.0352 -0.5416 -0.2415
  962POPC   NC313015  10.332  14.553   5.977  0.1008  0.0900  0.0088
  962POPC   PO413016  10.384  14.060   6.161  0.1973 -0.1815  0.1226
  962POPC   GL113017  10.511  13.976   6.560  0.1082  0.0744 -0.0089
  962POPC   GL213018  10.804  13.972   6.787  0.4574  0.0271 -0.0908
  962POPC   C1A13019  10.464  13.543   6.792  0.3175 -0.3927 -0.2789
  962POPC   D2A13020  10.407  13.461   7.218  0.4108 -0.1312  0.2168
  962POPC   C3A13021  10.215  13.674   7.581  0.0331  0.1416  0.0975
  962POPC   C4A13022   9.896  13.893   7.754 -0.0665 -0.1278  0.2064
  962POPC   C1B13023  10.662  13.884   7.175  0.0707  0.0275 -0.1169
  962POPC   C2B13024  10.587  13.965   7.477  0.2851  0.0345 -0.0892
  962POPC   C3B13025  10.439  14.187   7.898 -0.0259 -0.0793 -0.0312
  962POPC   C4B13026  10.616  14.214   8.333 -0.0705 -0.0912  0.3752
  963POPC   NC313027   2.242  10.148   5.547 -0.0684 -0.3122  0.0654
  963POPC   PO413028   1.761  10.036   5.518 -0.1161 -0.2415  0.1792
  963POPC   GL113029   1.781  10.097   5.886 -0.1449  0.1770  0.0709
  963POPC   GL213030   1.629   9.933   6.069 -0.2111  0.1527  0.0202
  963POPC   C1A13031   1.872  10.364   6.329  0.1300 -0.0024 -0.0155
  963POPC   D2A13032   1.773  10.530   6.784 -0.1424 -0.3715  0.2848
  963POPC   C3A13033   1.853  10.455   7.159 -0.1860 -0.1173  0.1362
  963POPC   C4A13034   2.107  10.319   7.455 -0.1872 -0.2603 -0.0334
  963POPC   C1B13035   1.763   9.810   6.511  0.0627  0.0845 -0.1494
  963POPC   C2B13036   1.873  10.060   6.847  0.2457  0.2021 -0.0976
  963POPC   C3B13037   1.985   9.830   7.164 -0.0441 -0.0272  0.0346
  963POPC   C4B13038   1.722   9.739   7.473 -0.0317  0.1545  0.1611
  964POPC   NC313039  14.336   4.002   5.385  0.0532  0.2275  0.2670
  964POPC   PO413040  14.021   4.082   5.678  0.1728  0.0192 -0.0525
  964POPC   GL113041  14.141   4.253   6.131 -0.0759  0.2573  0.2071
  964POPC   GL213042  14.185   3.894   6.261 -0.0777  0.0022 -0.0362
  964POPC   C1A13043  14.470   4.389   6.338  0.0144 -0.4378  0.1798
  964POPC   D2A13044  14.822   4.675   6.344 -0.0873  0.0789 -0.2679
  964POPC   C3A13045  15.020   4.700   6.700 -0.1107  0.0689 -0.1188
  964POPC   C4A13046  15.132   4.855   7.213  0.2580 -0.2630  0.0705
  964POPC   C1B13047  14.136   3.841   6.693  0.1506  0.1080 -0.1342
  964POPC   C2B13048  13.904   3.643   6.995  0.0035  0.4394 -0.2977
  964POPC   C3B13049  13.867   3.667   7.485 -0.0608 -0.0196 -0.1410
  964POPC   C4B13050  14.214   3.702   7.790  0.0422 -0.3117 -0.0089
  965POPC   NC313051   9.515  16.086   6.172  0.1342  0.0763  0.1275
  965POPC   PO413052   9.773  15.688   6.374 -0.0926  0.3589 -0.0469
  965POPC   GL113053   9.822  15.622   6.779 -0.3599  0.0871  0.0764
  965POPC   GL213054  10.018  15.759   6.881 -0.1438 -0.2774  0.0749
  965POPC   C1A13055   9.881  15.388   7.215 -0.0763 -0.2732 -0.0185
  965POPC   D2A13056   9.883  15.377   7.669  0.2490 -0.0440 -0.0704
  965POPC   C3A13057  10.180  15.498   7.759 -0.0706  0.0592  0.3340
  965POPC   C4A13058  10.464  15.737   8.038 -0.0435  0.2469 -0.0859
  965POPC   C1B13059   9.841  15.856   7.230  0.0583 -0.3280 -0.0594
  965POPC   C2B13060   9.610  15.772   7.441 -0.0701  0.1858 -0.1500
  965POPC   C3B13061   9.621  15.888   7.808 -0.1903  0.0514 -0.0962
  965POPC   C4B13062   9.913  15.748   8.131  0.0071 -0.4662  0.0044
  966POPC   NC313063   1.039  15.708   6.589 -0.0193 -0.2877 -0.1284
  966POPC   PO413064   1.039  16.166   6.719 -0.0993  0.0630  0.0748
  966POPC   GL113065   1.167  16.164   7.104  0.2394 -0.0018  0.2998
  966POPC   GL213066   0.989  15.827   7.212 -0.1092  0.1415 -0.1589
  966POPC   C1A13067   1.345  16.108   7.475  0.0039 -0.2569 -0.0544
  966POPC   D2A13068   1.467  15.841   7.775 -0.0147  0.1496 -0.2930
  966POPC   C3A13069   1.909  15.771   7.540  0.1585 -0.1185 -0.0844
  966POPC   C4A13070   2.230  15.825   7.182  0.0622  0.4099 -0.2844
  966POPC   C1B13071   1.107  15.658   7.541  0.2799  0.2794  0.1623
  966POPC   C2B13072   1.164  15.482   7.952 -0.1615 -0.0393  0.0935
  966POPC   C3B13073   1.283  15.582   8.306  0.1027 -0.0747 -0.1436
  966POPC   C4B13074   1.097  15.616   8.796  0.2557 -0.1010  0.0502
  967POPC   NC313075   1.904   7.579   5.694  0.0891 -0.1074  0.1500
  967POPC   PO413076   1.637   7.904   5.625 -0.3778 -0.2714  0.2156
  967POPC   GL113077   1.443   7.965   6.046  0.0657 -0.3355 -0.0821
  967POPC   GL213078   1.154   8.264   6.069 -0.0518 -0.1036  0.1345
  967POPC   C1A13079   1.597   8.141   6.441 -0.4135 -0.0992 -0.0718
  967POPC   D2A13080   1.860   7.971   6.740 -0.0116  0.5199  0.1254
  967POPC   C3A13081   2.077   8.052   7.009 -0.1397 -0.0937  0.0735
  967POPC   C4A13082   2.045   7.806   7.488  0.0546 -0.0528  0.0411
  967POPC   C1B13083   1.107   8.450   6.411 -0.1111  0.1966  0.0483
  967POPC   C2B13084   1.110   8.326   6.808 -0.0295  0.0281 -0.1476
  967POPC   C3B13085   1.251   8.169   7.211  0.1462  0.1623  0.0177
  967POPC   C4B13086   1.049   8.160   7.553  0.0919 -0.2818 -0.2732
  968POPC   NC313087   5.228   9.078   6.043  0.2286  0.0882  0.1147
  968POPC   PO413088   5.117   9.486   5.891  0.1447  0.2466 -0.1543
  968POPC   GL113089   5.064   9.428   6.347 -0.5224  0.2451 -0.0075
  968POPC   GL213090   5.155   9.163   6.610  0.1441 -0.1139 -0.0076
  968POPC   C1A13091   5.059   9.626   6.702  0.1219  0.4042  0.1019
  968POPC   D2A13092   5.278   9.693   7.114 -0.1647  0.0999  0.2255
  968POPC   C3A13093   5.335   9.471   7.396  0.1664  0.0180 -0.0517
  968POPC   C4A13094   5.461   9.200   7.771  0.0833  0.1340  0.0291
  968POPC   C1B13095   5.176   9.125   7.009 -0.2028  0.2626 -0.0061
  968POPC   C2B13096   5.101   8.922   7.494 -0.0092 -0.1142  0.1383
  968POPC   C3B13097   4.780   8.970   7.731  0.1616 -0.4226  0.1770
  968POPC   C4B13098   4.599   9.260   7.991  0.2054  0.0197 -0.0328
  969POPC   NC313099   5.630  17.895   6.307  0.0968  0.2028  0.1617
  969POPC   PO413100   5.451  17.460   6.167 -0.0412  0.3475  0.0002
  969POPC   GL113101   5.330  17.595   6.562  0.1264  0.4930  0.3840
  969POPC   GL213102   4.928  17.623   6.654 -0.0636  0.0385 -0.0884
  969POPC   C1A13103   5.485  17.774   6.932  0.2959 -0.1552 -0.1287
  969POPC   D2A13104   5.392  17.763   7.354 -0.0279 -0.2381  0.0100
  969POPC   C3A13105   5.313  17.602   7.763  0.2070 -0.0866  0.1469
  969POPC   C4A13106   5.230  17.770   8.246  0.0380 -0.2584 -0.0455
  969POPC   C1B13107   4.967  17.685   7.155 -0.0573 -0.0013  0.0052
  969POPC   C2B13108   4.825  17.713   7.558  0.3483 -0.2279  0.1908
  969POPC   C3B13109   4.826  17.445   7.951 -0.0626 -0.1189 -0.0234
  969POPC   C4B13110   4.472  17.377   8.309 -0.1180 -0.2046 -0.0546
  970POPC   NC313111  15.746   7.351   5.238 -0.4028  0.1375  0.1666
  970POPC   PO413112  15.279   7.501   5.132 -0.0827 -0.0759  0.1063
  970POPC   GL113113  15.379   7.759   5.554  0.0305  0.2442 -0.0629
  970POPC   GL213114  15.538   8.000   5.727 -0.0741  0.0161 -0.1077
  970POPC   C1A13115  15.429   7.558   5.844  0.2817  0.0390 -0.1476
  970POPC   D2A13116  15.512   7.420   6.338  0.0575  0.1145 -0.0787
  970POPC   C3A13117  15.166   7.463   6.617  0.1296 -0.1830  0.0641
  970POPC   C4A13118  14.918   7.728   6.849  0.0909 -0.2990  0.0439
  970POPC   C1B13119  15.738   7.853   6.136 -0.0031 -0.1643 -0.0006
  970POPC   C2B13120  15.909   7.656   6.560  0.2094 -0.1285 -0.0471
  970POPC   C3B13121  15.755   7.466   6.881  0.1385  0.1455  0.0113
  970POPC   C4B13122  15.364   7.382   7.085  0.1109 -0.1224  0.0342
  971POPC   NC313123   2.189  13.112   6.016 -0.0796 -0.0632  0.3002
  971POPC   PO413124   2.251  12.698   5.808 -0.0837  0.1065  0.1142
  971POPC   GL113125   2.028  12.647   6.145  0.0734  0.0680 -0.2485
  971POPC   GL213126   2.354  12.848   6.373 -0.0492  0.0430  0.1638
  971POPC   C1A13127   2.158  12.421   6.558  0.2234  0.0940  0.2891
  971POPC   D2A13128   2.387  12.384   6.924 -0.0619  0.0337 -0.0559
  971POPC   C3A13129   2.292  12.166   7.200 -0.0812  0.3538  0.1161
  971POPC   C4A13130   2.345  11.791   7.440  0.0017  0.2310  0.4169
  971POPC   C1B13131   2.621  12.716   6.633  0.0589  0.0426  0.0055
  971POPC   C2B13132   2.701  12.821   7.040  0.0638 -0.1603  0.3109
  971POPC   C3B13133   2.684  12.872   7.429  0.2916 -0.0672 -0.1395
  971POPC   C4B13134   2.884  12.821   7.750 -0.1009  0.0077 -0.0683
  972POPC   NC313135   6.741  12.260   5.738 -0.1198 -0.2678  0.1359
  972POPC   PO413136   6.498  12.309   6.062 -0.3814  0.1957  0.1297
  972POPC   GL113137   6.555  12.284   6.478 -0.0629 -0.0336  0.0166
  972POPC   GL213138   6.412  12.494   6.671  0.1505 -0.1276 -0.0853
  972POPC   C1A13139   6.733  12.188   6.890 -0.2266  0.0147  0.0831
  972POPC   D2A13140   6.916  12.148   7.241 -0.1016  0.2744 -0.0361
  972POPC   C3A13141   7.027  12.415   7.533  0.3829  0.0224 -0.1941
  972POPC   C4A13142   7.279  12.740   7.815  0.0693  0.2498 -0.2286
  972POPC   C1B13143   6.394  12.432   7.137  0.1091 -0.1035  0.5949
  972POPC   C2B13144   6.552  12.305   7.564 -0.1326  0.1215 -0.0078
  972POPC   C3B13145   6.707  12.352   7.925 -0.1139  0.0225 -0.1500
  972POPC   C4B13146   6.919  12.121   8.271 -0.0764 -0.1088 -0.1742
  973POPC   NC313147   3.062   0.406   6.215  0.1065  0.0787 -0.2255
  973POPC   PO413148   2.686   0.132   6.147  0.1074 -0.0413 -0.0203
  973POPC   GL113149   2.650   0.265   6.475 -0.1075  0.0982  0.1228
  973POPC   GL213150   2.787   0.538   6.607 -0.0439 -0.0470 -0.1605
  973POPC   C1A13151   2.479   0.212   6.919 -0.1867 -0.0239  0.0621
  973POPC   D2A13152   2.557   0.307   7.320 -0.2396  0.1997 -0.2502
  973POPC   C3A13153   2.222   0.535   7.423 -0.0513  0.0956 -0.2804
  973POPC   C4A13154   1.821   0.700   7.421  0.4223 -0.1368  0.1515
  973POPC   C1B13155   2.981   0.417   7.025  0.0393 -0.0625 -0.0918
  973POPC   C2B13156   2.969   0.522   7.558 -0.1845  0.3376 -0.0896
  973POPC   C3B13157   2.988   0.642   7.931  0.0553  0.1751 -0.0038
  973POPC   C4B13158   3.004   0.986   8.123 -0.1616  0.1631 -0.0629
  974POPC   NC313159  10.199   2.493   6.132 -0.0514 -0.0737 -0.0019
  974POPC   PO413160  10.610   2.296   6.144  0.1032 -0.0197  0.2308
  974POPC   GL113161  10.533   2.464   6.549  0.3677 -0.1983 -0.0846
  974POPC   GL213162  10.776   2.436   6.759  0.1434 -0.0582  0.1349
  974POPC   C1A13163  10.250   2.454   6.889  0.0068  0.0578  0.0764
  974POPC   D2A13164  10.212   2.481   7.346 -0.0935  0.1804 -0.0364
  974POPC   C3A13165  10.476   2.669   7.635 -0.1242 -0.1076 -0.2505
  974POPC   C4A13166  10.636   2.842   7.981 -0.1770 -0.0070 -0.0738
  974POPC   C1B13167  10.736   2.745   7.105  0.0014  0.0008 -0.0195
  974POPC   C2B13168  10.814   2.893   7.432 -0.1709  0.1376 -0.0101
  974POPC   C3B13169  10.756   3.260   7.627  0.0762  0.0416 -0.0755
  974POPC   C4B13170  10.591   3.376   7.967  0.1643  0.2735  0.1333
  975POPC   NC313171   8.166   1.660   6.117  0.0113 -0.1670  0.2535
  975POPC   PO413172   8.186   1.986   6.389 -0.0055 -0.1020  0.0282
  975POPC   GL113173   8.043   2.027   6.854  0.1272  0.2140 -0.2438
  975POPC   GL213174   7.750   1.903   6.897  0.0349 -0.2277 -0.0676
  975POPC   C1A13175   8.087   2.192   7.290  0.1073  0.0263  0.1519
  975POPC   D2A13176   8.286   2.384   7.665 -0.1066 -0.1290 -0.0750
  975POPC   C3A13177   8.059   2.774   7.902  0.2644  0.2173 -0.0714
  975POPC   C4A13178   8.074   2.991   8.302  0.0142 -0.0292  0.2966
  975POPC   C1B13179   8.053   1.679   7.224 -0.0046 -0.1366  0.0102
  975POPC   C2B13180   8.132   1.879   7.676 -0.4974  0.1023  0.1047
  975POPC   C3B13181   8.167   1.802   8.066  0.1059  0.1312 -0.1113
  975POPC   C4B13182   7.857   1.988   8.376 -0.0398  0.3529 -0.3483
  976POPC   NC313183   0.236   2.098   6.003 -0.0211 -0.0353 -0.0532
  976POPC   PO413184  -0.008   1.871   6.252  0.0223 -0.1589 -0.2840
  976POPC   GL113185  -0.138   1.907   6.591 -0.0277 -0.0270 -0.1579
  976POPC   GL213186   0.074   1.905   6.786 -0.0987 -0.1149 -0.0465
  976POPC   C1A13187  -0.392   1.602   6.917 -0.0671  0.1379 -0.0014
  976POPC   D2A13188  -0.387   1.391   7.406 -0.0814  0.0567  0.0976
  976POPC   C3A13189  -0.631   1.457   7.819 -0.0565  0.1356 -0.0208
  976POPC   C4A13190  -0.955   1.513   8.127 -0.1485 -0.3877  0.0843
  976POPC   C1B13191   0.086   2.173   7.187  0.1517  0.0757 -0.0735
  976POPC   C2B13192   0.171   2.466   7.580 -0.0181  0.3001 -0.0896
  976POPC   C3B13193   0.108   2.843   7.810 -0.0497  0.3502 -0.1483
  976POPC   C4B13194   0.398   3.218   7.774 -0.1214 -0.2248 -0.3071
  977POPC   NC313195  11.560  10.186   5.986  0.1442  0.1274  0.4722
  977POPC   PO413196  11.773  10.505   5.840 -0.1950  0.0348  0.0946
  977POPC   GL113197  11.993  10.507   6.188  0.0015  0.1164  0.3633
  977POPC   GL213198  12.158  10.782   6.178  0.0003 -0.1659 -0.1337
  977POPC   C1A13199  12.117  10.325   6.637 -0.0817  0.0309 -0.0689
  977POPC   D2A13200  12.380  10.370   6.959  0.2785  0.6525 -0.2343
  977POPC   C3A13201  12.354  10.078   7.205  0.0063 -0.1547 -0.0316
  977POPC   C4A13202  12.262   9.704   7.445 -0.0427 -0.1876  0.1448
  977POPC   C1B13203  12.239  10.809   6.616 -0.0073 -0.1756  0.0921
  977POPC   C2B13204  12.465  10.816   6.978  0.0021 -0.0678  0.0364
  977POPC   C3B13205  12.675  10.861   7.397  0.0313 -0.0429  0.0460
  977POPC   C4B13206  12.739  11.120   7.748  0.5418  0.2270 -0.2575
  978POPC   NC313207  17.306  15.886   5.850  0.0772  0.2473 -0.1465
  978POPC   PO413208  17.206  15.800   6.326 -0.1665 -0.0980  0.3118
  978POPC   GL113209  17.498  15.844   6.764 -0.2623 -0.0086 -0.1845
  978POPC   GL213210  17.750  16.028   6.723 -0.2592 -0.0913  0.1932
  978POPC   C1A13211  17.454  15.881   7.223 -0.1764 -0.0551  0.0074
  978POPC   D2A13212  17.271  15.887   7.606  0.1001  0.2194  0.3222
  978POPC   C3A13213  17.447  15.824   8.039 -0.2797 -0.4319  0.0246
  978POPC   C4A13214  17.727  15.764   8.330  0.2142  0.2786 -0.0077
  978POPC   C1B13215  17.676  16.272   7.047 -0.0440  0.2222  0.0911
  978POPC   C2B13216  17.698  16.264   7.555  0.0727 -0.1265  0.1173
  978POPC   C3B13217  17.820  16.171   7.875 -0.0613  0.1691 -0.1866
  978POPC   C4B13218  18.061  16.289   8.217  0.4119  0.2264 -0.0388
  979POPC   NC313219  10.210  10.032   6.345 -0.2378  0.0204 -0.1016
  979POPC   PO413220  10.386   9.632   6.237 -0.0561  0.0362  0.0892
  979POPC   GL113221  10.312   9.641   6.672 -0.1331  0.2502 -0.0965
  979POPC   GL213222   9.914   9.702   6.683 -0.1772  0.1167  0.1984
  979POPC   C1A13223  10.332   9.550   7.025  0.1289 -0.1204 -0.1739
  979POPC   D2A13224  10.585   9.433   7.315  0.1825  0.1643 -0.0057
  979POPC   C3A13225  10.490   9.124   7.648 -0.0562 -0.0378  0.0648
  979POPC   C4A13226  10.563   8.703   7.840  0.1843 -0.2139 -0.1231
  979POPC   C1B13227   9.850   9.597   7.097 -0.0018 -0.2166 -0.1277
  979POPC   C2B13228   9.673   9.572   7.415  0.1843  0.0073  0.2315
  979POPC   C3B13229   9.506   9.506   7.844  0.0146  0.3428 -0.1338
  979POPC   C4B13230   9.381   9.149   8.065  0.0485 -0.3968  0.2459
  980POPC   NC313231   2.167   9.254   4.972 -0.1507 -0.0686 -0.0185
  980POPC   PO413232   2.205   9.291   5.484  0.0981  0.1570 -0.1151
  980POPC   GL113233   2.195   9.231   5.845 -0.0698  0.1080  0.0502
  980POPC   GL213234   2.463   9.422   6.082  0.2843  0.1822 -0.1782
  980POPC   C1A13235   2.156   9.007   6.325  0.1405  0.1815 -0.5123
  980POPC   D2A13236   2.217   9.142   6.685 -0.0944 -0.0302 -0.1669
  980POPC   C3A13237   1.902   8.966   6.946 -0.0486 -0.2890 -0.1082
  980POPC   C4A13238   1.658   8.745   7.250  0.0223  0.3239 -0.1635
  980POPC   C1B13239   2.256   9.490   6.369 -0.0337 -0.1084 -0.0123
  980POPC   C2B13240   2.136   9.640   6.765 -0.3496  0.0633 -0.0540
  980POPC   C3B13241   2.249   9.387   7.145  0.0156  0.0155 -0.1534
  980POPC   C4B13242   2.385   9.473   7.488 -0.1210 -0.2238 -0.3539
  981POPC   NC313243   8.840   0.888   6.076 -0.0264  0.0242 -0.2013
  981POPC   PO413244   8.808   0.485   6.360 -0.0676  0.0926  0.1952
  981POPC   GL113245   8.483   0.481   6.754  0.0888  0.0806  0.0215
  981POPC   GL213246   8.276   0.316   6.746 -0.2016  0.0708  0.0563
  981POPC   C1A13247   8.616   0.450   7.143  0.2930  0.2245  0.3755
  981POPC   D2A13248   8.544   0.420   7.512 -0.0407 -0.1336 -0.1079
  981POPC   C3A13249   8.393   0.551   7.868  0.4370  0.2096 -0.0879
  981POPC   C4A13250   8.355   0.856   8.266 -0.2507 -0.0450  0.3917
  981POPC   C1B13251   8.116   0.345   7.289  0.0248 -0.3671  0.2661
  981POPC   C2B13252   7.932   0.318   7.636 -0.1922  0.0768  0.2973
  981POPC   C3B13253   7.861   0.571   8.004 -0.0449 -0.0132  0.0672
  981POPC   C4B13254   8.008   0.533   8.457  0.1050 -0.0901  0.0203
  982YOPC   NC313255  16.546  13.252   5.626  0.0780 -0.3388 -0.2914
  982YOPC   PO413256  16.412  13.395   6.100 -0.0900 -0.1486 -0.2112
  982YOPC   GL113257  16.639  13.344   6.417  0.1455 -0.1715 -0.1054
  982YOPC   GL213258  16.292  13.188   6.559 -0.1145  0.0873 -0.2273
  982YOPC   C1A13259  16.490  13.477   6.904  0.1171 -0.2905  0.0786
  982YOPC   D2A13260  16.552  13.325   7.363  0.0072 -0.0655  0.0363
  982YOPC   C3A13261  16.403  13.187   7.796  0.0860 -0.0651  0.0868
  982YOPC   C4A13262  16.444  12.752   7.737 -0.2468 -0.2054  0.1782
  982YOPC   C1B13263  16.346  13.032   7.025  0.0028 -0.0669 -0.2282
  982YOPC   C2B13264  16.590  12.814   7.285 -0.4468  0.1924  0.2439
  982YOPC   D3B13265  16.585  12.288   7.397  0.0088  0.3000  0.0756
  982YOPC   C4B13266  16.654  11.963   7.129 -0.3469  0.0075 -0.3022
  983YOPC   NC313267   4.284   9.580   5.575 -0.0248  0.0852  0.1384
  983YOPC   PO413268   4.341   9.153   5.707 -0.3916  0.1318 -0.2502
  983YOPC   GL113269   4.358   8.963   6.167 -0.1872  0.1160 -0.0833
  983YOPC   GL213270   4.671   8.931   6.368 -0.0394  0.1126  0.1571
  983YOPC   C1A13271   4.294   9.156   6.602 -0.0896  0.0998 -0.0390
  983YOPC   D2A13272   4.233   9.504   6.923  0.0888  0.3284  0.0059
  983YOPC   C3A13273   4.518   9.751   7.032  0.1532  0.2554 -0.3299
  983YOPC   C4A13274   4.817   9.864   7.345 -0.0649 -0.1123 -0.0503
  983YOPC   C1B13275   4.806   8.814   6.813 -0.0845 -0.1008  0.0820
  983YOPC   C2B13276   4.862   8.639   7.158  0.3288 -0.2515  0.2005
  983YOPC   D3B13277   4.385   8.456   7.330 -0.1475 -0.0892  0.0475
  983YOPC   C4B13278   4.145   8.133   7.509 -0.0836  0.2144  0.0321
  984YOPC   NC313279  16.726   1.199   6.211 -0.3446  0.0193  0.3109
  984YOPC   PO413280  16.350   1.077   6.360  0.2082  0.1317  0.0755
  984YOPC   GL113281  16.409   1.188   6.725  0.0257 -0.1593 -0.4808
  984YOPC   GL213282  16.762   1.153   6.822 -0.2606  0.0767 -0.1706
  984YOPC   C1A13283  16.216   1.158   7.201 -0.2113 -0.0412  0.2898
  984YOPC   D2A13284  16.057   1.256   7.628  0.1697  0.0787 -0.0757
  984YOPC   C3A13285  16.076   1.289   8.076  0.3739 -0.3636  0.1282
  984YOPC   C4A13286  16.189   1.272   8.506 -0.4196  0.2733  0.0015
  984YOPC   C1B13287  16.763   1.062   7.199 -0.0383 -0.0441  0.2793
  984YOPC   C2B13288  16.511   1.081   7.620 -0.4232  0.1544 -0.1509
  984YOPC   D3B13289  16.599   1.212   8.007 -0.1630 -0.0897  0.1482
  984YOPC   C4B13290  16.585   1.605   8.169  0.3147 -0.0325 -0.2172
  985YOPC   NC313291  11.610   7.997   5.647 -0.2055 -0.0032  0.1623
  985YOPC   PO413292  12.069   7.900   5.786  0.1666 -0.2425  0.1939
  985YOPC   GL113293  12.474   7.787   6.040  0.2831  0.2717 -0.0116
  985YOPC   GL213294  12.326   7.737   6.276 -0.2546 -0.1405  0.0249
  985YOPC   C1A13295  12.763   7.504   6.253 -0.1935 -0.0626 -0.0092
  985YOPC   D2A13296  12.827   7.128   6.500  0.4792 -0.0882 -0.0782
  985YOPC   C3A13297  13.111   7.129   6.864  0.1049  0.1224  0.4159
  985YOPC   C4A13298  13.107   7.166   7.267 -0.2010  0.1853 -0.2604
  985YOPC   C1B13299  12.375   7.438   6.703 -0.0003 -0.1351  0.0874
  985YOPC   C2B13300  12.628   7.148   6.957  0.1019  0.0673  0.0618
  985YOPC   D3B13301  12.579   7.139   7.396 -0.1521 -0.2419  0.0146
  985YOPC   C4B13302  12.553   7.277   7.878 -0.1959 -0.3074 -0.0553
  986YOPC   NC313303  16.302   1.869   5.835 -0.0408  0.0111  0.0287
  986YOPC   PO413304  16.687   1.582   5.832 -0.0014 -0.0927  0.0524
  986YOPC   GL113305  16.540   1.684   6.238  0.2484 -0.4100  0.2282
  986YOPC   GL213306  16.801   1.559   6.562  0.0700 -0.0267 -0.1229
  986YOPC   C1A13307  16.184   1.636   6.533  0.0585 -0.1902  0.1675
  986YOPC   D2A13308  15.909   1.869   6.844 -0.3115  0.0083 -0.0423
  986YOPC   C3A13309  16.206   1.676   7.124 -0.1575  0.0689 -0.0298
  986YOPC   C4A13310  16.637   1.511   7.111  0.2209  0.2287 -0.0345
  986YOPC   C1B13311  17.086   1.481   6.863 -0.0006  0.1377 -0.1623
  986YOPC   C2B13312  17.173   1.516   7.342 -0.1171  0.3146 -0.0828
  986YOPC   D3B13313  16.792   1.499   7.612  0.0265 -0.1095 -0.0006
  986YOPC   C4B13314  16.442   1.604   7.601  0.1621 -0.0641 -0.1283
  987YOPC   NC313315   3.784   5.955   5.302  0.0158  0.0643  0.0046
  987YOPC   PO413316   3.899   6.291   5.490 -0.0662 -0.2285  0.4210
  987YOPC   GL113317   3.802   6.306   5.940 -0.1833  0.0575  0.2847
  987YOPC   GL213318   3.880   6.674   6.133  0.2761  0.1046  0.0617
  987YOPC   C1A13319   3.963   6.161   6.252 -0.1574 -0.0112  0.2884
  987YOPC   D2A13320   4.426   6.303   6.435 -0.1275 -0.0696 -0.0276
  987YOPC   C3A13321   4.582   5.978   6.760 -0.0937 -0.0646 -0.3922
  987YOPC   C4A13322   4.582   5.751   7.142  0.2459 -0.0852  0.0856
  987YOPC   C1B13323   3.637   6.611   6.461  0.2284  0.2188  0.0309
  987YOPC   C2B13324   3.351   6.590   6.706 -0.2178 -0.0848  0.2033
  987YOPC   D3B13325   3.357   6.737   7.131 -0.2800 -0.0347 -0.0973
  987YOPC   C4B13326   3.276   6.911   7.612 -0.0851 -0.1707  0.1617
  988YOPC   NC313327   0.514   0.950   5.666 -0.1014  0.3845  0.1801
  988YOPC   PO413328   0.723   1.152   6.035  0.0014 -0.1307 -0.0258
  988YOPC   GL113329   0.498   1.186   6.366 -0.1635  0.1115  0.2830
  988YOPC   GL213330   0.282   1.455   6.447 -0.2800 -0.1535 -0.1340
  988YOPC   C1A13331   0.502   1.069   6.921  0.0358  0.2413 -0.1984
  988YOPC   D2A13332   0.639   0.827   7.319  0.1801 -0.1481 -0.3421
  988YOPC   C3A13333   0.745   0.413   7.472  0.0633  0.0658  0.2821
  988YOPC   C4A13334   0.665   0.038   7.564 -0.2853  0.0621  0.0013
  988YOPC   C1B13335   0.410   1.550   6.823  0.1389  0.0841 -0.0028
  988YOPC   C2B13336   0.437   1.855   7.105 -0.0933  0.0085 -0.2483
  988YOPC   D3B13337   0.303   1.813   7.556  0.1856  0.0264  0.0705
  988YOPC   C4B13338   0.370   1.819   7.986 -0.0449 -0.2218  0.0048
  989YOPC   NC313339   8.598  15.830   6.202  0.1230 -0.0407 -0.1166
  989YOPC   PO413340   9.085  15.915   6.243  0.1456 -0.1725 -0.0816
  989YOPC   GL113341   9.231  15.729   6.619 -0.0591  0.0259 -0.0719
  989YOPC   GL213342   9.439  15.941   6.649 -0.1179 -0.0627 -0.0553
  989YOPC   C1A13343   9.322  15.507   7.046 -0.1314 -0.1371  0.0609
  989YOPC   D2A13344   9.431  15.262   7.394  0.1032 -0.0938 -0.0635
  989YOPC   C3A13345   9.393  15.355   7.861  0.1819  0.2321  0.1426
  989YOPC   C4A13346   9.299  15.459   8.318  0.1217  0.1333 -0.2724
  989YOPC   C1B13347   9.361  16.053   7.007  0.0424 -0.1108 -0.1448
  989YOPC   C2B13348   9.196  16.010   7.475 -0.2287 -0.0616  0.4141
  989YOPC   D3B13349   9.112  15.654   7.521  0.0931 -0.2280  0.2379
  989YOPC   C4B13350   8.914  15.264   7.425 -0.0566  0.0436  0.2378
  990YOPC   NC313351  14.860   7.186   5.231 -0.3207  0.2076 -0.1075
  990YOPC   PO413352  14.888   6.939   5.516  0.0751 -0.3455  0.3663
  990YOPC   GL113353  14.944   6.781   5.824 -0.0143 -0.0470 -0.0338
  990YOPC   GL213354  14.680   7.073   6.022 -0.2837 -0.2098 -0.2536
  990YOPC   C1A13355  15.343   6.646   5.981  0.0402 -0.1595  0.2045
  990YOPC   D2A13356  15.763   6.573   6.238 -0.0533 -0.0719 -0.1694
  990YOPC   C3A13357  15.786   6.787   6.519 -0.0917 -0.2689 -0.1390
  990YOPC   C4A13358  15.920   7.039   6.833  0.0788 -0.1352 -0.0912
  990YOPC   C1B13359  14.882   7.027   6.340 -0.0878  0.3212 -0.2338
  990YOPC   C2B13360  15.275   6.860   6.439  0.0009 -0.1630 -0.2545
  990YOPC   D3B13361  15.441   6.906   6.813 -0.1894 -0.0586 -0.1458
  990YOPC   C4B13362  15.619   6.929   7.221 -0.2066 -0.2530 -0.0955
  991YOPC   NC313363  10.932  16.633   6.300  0.0801  0.0140  0.1780
  991YOPC   PO413364  10.683  16.927   6.421  0.3152 -0.1021 -0.0521
  991YOPC   GL113365  10.580  16.912   6.810 -0.1008  0.1220  0.1541
  991YOPC   GL213366  10.578  17.101   7.012  0.1387  0.0253  0.2562
  991YOPC   C1A13367  10.200  16.753   6.953  0.0934  0.1871  0.3697
  991YOPC   D2A13368   9.942  16.992   7.218 -0.0456 -0.1131 -0.1045
  991YOPC   C3A13369  10.083  17.097   7.565 -0.1139  0.1963 -0.0352
  991YOPC   C4A13370  10.019  17.041   8.013 -0.2023 -0.0288  0.0259
  991YOPC   C1B13371  10.542  17.001   7.433  0.1175  0.0305  0.0759
  991YOPC   C2B13372  10.413  16.776   7.834 -0.0187  0.1367  0.1164
  991YOPC   D3B13373  10.472  17.016   8.249 -0.0512 -0.0926  0.2648
  991YOPC   C4B13374  10.383  17.396   8.491 -0.0892  0.1374  0.1076
  992YOPC   NC313375  11.954  12.211   5.663 -0.0906  0.0980  0.2621
  992YOPC   PO413376  11.568  12.178   5.928 -0.2000 -0.0083  0.2581
  992YOPC   GL113377  11.508  12.057   6.283  0.1750  0.0492  0.2509
  992YOPC   GL213378  11.594  12.318   6.461  0.1668 -0.0685  0.0724
  992YOPC   C1A13379  11.363  11.934   6.777 -0.2217 -0.0711  0.1854
  992YOPC   D2A13380  11.332  11.902   7.254  0.1340  0.1436 -0.0443
  992YOPC   C3A13381  11.576  11.612   7.534  0.0783 -0.0267  0.0139
  992YOPC   C4A13382  11.506  11.659   7.983  0.1079  0.1869 -0.1145
  992YOPC   C1B13383  12.000  12.174   6.596  0.1493 -0.0244 -0.0334
  992YOPC   C2B13384  12.359  12.232   6.715  0.2180  0.1616 -0.1518
  992YOPC   D3B13385  12.785  12.008   6.620  0.1825  0.1373 -0.0607
  992YOPC   C4B13386  13.124  11.729   6.678 -0.4182  0.0198  0.0669
  993YOPC   NC313387  10.430   5.530   5.694  0.2223  0.2256 -0.0434
  993YOPC   PO413388  10.393   5.232   6.016  0.2817  0.1260  0.2203
  993YOPC   GL113389  10.416   5.456   6.404  0.1034  0.1406  0.1836
  993YOPC   GL213390  10.119   5.646   6.495  0.4463  0.0666  0.0521
  993YOPC   C1A13391  10.502   5.722   6.735 -0.0047  0.1532 -0.0105
  993YOPC   D2A13392  10.488   5.850   7.205  0.1614  0.2610 -0.0360
  993YOPC   C3A13393  10.596   5.635   7.616  0.2202  0.0223  0.2403
  993YOPC   C4A13394  10.755   5.566   8.003 -0.0080 -0.0922  0.2098
  993YOPC   C1B13395   9.996   5.841   6.911  0.0381  0.3526 -0.1635
  993YOPC   C2B13396   9.892   5.976   7.380  0.1164  0.0115  0.0681
  993YOPC   D3B13397  10.169   5.847   7.756  0.2450  0.4965  0.1550
  993YOPC   C4B13398  10.284   5.402   8.073 -0.5147 -0.0960 -0.2746
  994YOPC   NC313399   3.141  10.381   5.492  0.0880  0.3390  0.1998
  994YOPC   PO413400   3.268  10.872   5.412  0.1077  0.0087  0.3497
  994YOPC   GL113401   3.277  10.896   5.812  0.1459 -0.4126  0.0741
  994YOPC   GL213402   3.177  10.556   5.929  0.2573 -0.0580 -0.1223
  994YOPC   C1A13403   3.507  11.017   6.161  0.1109 -0.0555  0.2090
  994YOPC   D2A13404   3.348  11.083   6.548 -0.2560 -0.1069  0.1388
  994YOPC   C3A13405   3.073  11.434   6.498  0.3170 -0.1698  0.0598
  994YOPC   C4A13406   2.724  11.677   6.451  0.3323  0.0848 -0.2191
  994YOPC   C1B13407   3.131  10.672   6.338 -0.1967 -0.2658 -0.3609
  994YOPC   C2B13408   3.143  10.568   6.739  0.2161  0.0093  0.0940
  994YOPC   D3B13409   3.273  10.830   7.031  0.1312  0.2186 -0.1677
  994YOPC   C4B13410   3.518  10.805   7.327  0.1027 -0.0690 -0.0865
  995YOPC   NC313411  17.065   3.393   5.448 -0.2097 -0.4179 -0.1648
  995YOPC   PO413412  16.866   3.440   5.941  0.1556 -0.4846 -0.0412
  995YOPC   GL113413  16.870   3.431   6.392  0.0624  0.1360  0.1971
  995YOPC   GL213414  16.594   3.432   6.598 -0.2472 -0.1926  0.0456
  995YOPC   C1A13415  17.166   3.491   6.680 -0.0041  0.3646  0.0562
  995YOPC   D2A13416  17.262   3.593   7.052  0.0670  0.1528  0.1513
  995YOPC   C3A13417  17.053   3.413   7.357  0.2640 -0.0601 -0.0192
  995YOPC   C4A13418  16.944   3.236   7.744  0.1967  0.1163  0.1049
  995YOPC   C1B13419  16.694   3.557   7.025 -0.0581  0.0957  0.1732
  995YOPC   C2B13420  16.579   3.514   7.417  0.3168 -0.0053 -0.0106
  995YOPC   D3B13421  16.494   3.676   7.789  0.1043 -0.1937 -0.1631
  995YOPC   C4B13422  16.419   3.892   8.143  0.1788  0.2871 -0.0856
  996YOPC   NC313423  13.477   1.644   5.958 -0.2032  0.0517  0.1783
  996YOPC   PO413424  13.367   1.366   6.355 -0.0954  0.0720 -0.2236
  996YOPC   GL113425  13.199   1.325   6.756 -0.3025  0.0434 -0.1595
  996YOPC   GL213426  13.042   1.666   6.673  0.2007  0.0970 -0.2549
  996YOPC   C1A13427  13.180   1.223   7.229 -0.2202 -0.0376  0.2444
  996YOPC   D2A13428  13.197   1.163   7.720 -0.2327  0.1465 -0.0268
  996YOPC   C3A13429  13.024   1.399   7.984  0.0315 -0.2050 -0.2723
  996YOPC   C4A13430  13.110   1.717   8.182 -0.0305 -0.0679  0.1380
  996YOPC   C1B13431  13.140   1.743   7.033 -0.1452  0.2804  0.1779
  996YOPC   C2B13432  13.096   1.639   7.553  0.2696 -0.2020  0.1252
  996YOPC   D3B13433  13.476   1.730   7.780  0.0513 -0.3005 -0.0552
  996YOPC   C4B13434  13.718   1.979   7.984 -0.0653  0.0440 -0.2750
  997YOPC   NC313435   7.308  15.837   6.218 -0.0856 -0.3562  0.0464
  997YOPC   PO413436   7.766  15.617   6.182 -0.1148  0.1776 -0.0969
  997YOPC   GL113437   7.809  15.552   6.647 -0.0564  0.0748  0.0232
  997YOPC   GL213438   7.701  15.184   6.711  0.0724 -0.0924 -0.2226
  997YOPC   C1A13439   8.045  15.471   7.115  0.4757  0.1240 -0.2945
  997YOPC   D2A13440   7.851  15.364   7.539 -0.1912  0.1014  0.0554
  997YOPC   C3A13441   7.982  15.655   7.923  0.1126  0.0346 -0.0294
  997YOPC   C4A13442   8.084  15.748   8.418 -0.2898  0.2199  0.1089
  997YOPC   C1B13443   7.493  15.402   7.067 -0.0182 -0.1037 -0.1258
  997YOPC   C2B13444   7.254  15.333   7.453  0.3438  0.0381 -0.1025
  997YOPC   D3B13445   7.416  15.566   7.839  0.0733  0.1213 -0.1354
  997YOPC   C4B13446   7.541  15.816   8.222  0.1511  0.0986  0.2058
  998YOPC   NC313447   2.745  11.616   5.355  0.0262 -0.2353  0.1824
  998YOPC   PO413448   2.476  11.258   5.538  0.1361 -0.0281 -0.0052
  998YOPC   GL113449   2.744  11.044   5.680 -0.1186 -0.3498 -0.2533
  998YOPC   GL213450   2.825  10.789   5.616 -0.1987 -0.2091  0.0830
  998YOPC   C1A13451   2.921  11.132   6.135  0.0696  0.0830 -0.1003
  998YOPC   D2A13452   2.880  10.993   6.730  0.0905  0.1727  0.1259
  998YOPC   C3A13453   2.775  11.389   6.869  0.3139  0.0481  0.0125
  998YOPC   C4A13454   2.798  11.537   7.215  0.0347 -0.0036 -0.1017
  998YOPC   C1B13455   2.708  10.626   6.015 -0.0534 -0.2081  0.0254
  998YOPC   C2B13456   2.435  10.634   6.351 -0.2977  0.1250  0.3335
  998YOPC   D3B13457   2.651  10.587   6.732 -0.1177  0.0920  0.0648
  998YOPC   C4B13458   2.758  10.326   7.087 -0.2826 -0.0968 -0.0108
  999YOPC   NC313459   0.603  13.648   5.936 -0.1867 -0.0743 -0.3000
  999YOPC   PO413460   1.029  13.750   6.022  0.1112  0.0463  0.2631
  999YOPC   GL113461   1.196  13.584   6.510  0.1376 -0.0005  0.2016
  999YOPC   GL213462   1.148  13.806   6.566 -0.2815 -0.0599  0.0779
  999YOPC   C1A13463   1.177  13.530   6.984  0.0246  0.0649 -0.2963
  999YOPC   D2A13464   1.187  13.425   7.405 -0.0585 -0.0053 -0.0463
  999YOPC   C3A13465   1.027  13.585   7.850  0.1272 -0.4836  0.0489
  999YOPC   C4A13466   1.080  13.657   8.289 -0.1097  0.1863 -0.0550
  999YOPC   C1B13467   0.852  13.931   6.841  0.1901  0.0949 -0.1476
  999YOPC   C2B13468   0.772  13.779   7.329  0.1510  0.1356  0.4393
  999YOPC   D3B13469   0.403  13.703   7.512  0.0786 -0.2437  0.0475
  999YOPC   C4B13470   0.302  13.513   7.911  0.1477 -0.1966  0.0063
 1000YOPC   NC313471   2.508  12.342   5.531  0.1104  0.1050 -0.0054
 1000YOPC   PO413472   2.876  12.222   5.643  0.1042 -0.0823 -0.2049
 1000YOPC   GL113473   3.063  12.281   6.110  0.1419  0.3221 -0.3286
 1000YOPC   GL213474   3.096  12.555   6.320 -0.0512  0.1656  0.0053
 1000YOPC   C1A13475   3.206  12.016   6.436 -0.1862 -0.1729 -0.1145
 1000YOPC   D2A13476   3.100  11.916   6.884 -0.2695 -0.2213 -0.2800
 1000YOPC   C3A13477   2.711  11.923   6.900  0.0393 -0.0827  0.1921
 1000YOPC   C4A13478   2.393  11.670   6.921 -0.3323  0.1218  0.1413
 1000YOPC   C1B13479   2.991  12.417   6.833  0.1029 -0.1088 -0.0156
 1000YOPC   C2B13480   2.776  12.316   7.249  0.1815 -0.0000 -0.1178
 1000YOPC   D3B13481   2.836  11.994   7.550  0.1322 -0.3038  0.0723
 1000YOPC   C4B13482   2.751  11.582   7.746 -0.2113 -0.1715 -0.0123
 1001YOPC   NC313483   6.391   3.557   5.205  0.1187 -0.0490  0.1582
 1001YOPC   PO413484   6.203   3.575   5.608  0.1146  0.3404 -0.0822
 1001YOPC   GL113485   6.332   3.331   6.008 -0.2695 -0.1402 -0.0211
 1001YOPC   GL213486   6.685   3.382   6.147 -0.1187 -0.2089  0.0907
 1001YOPC   C1A13487   6.249   3.445   6.408  0.0250 -0.0006 -0.0019
 1001YOPC   D2A13488   6.034   3.549   6.801  0.2958  0.1783 -0.3295
 1001YOPC   C3A13489   6.018   3.757   7.236 -0.1609 -0.1115 -0.1080
 1001YOPC   C4A13490   6.227   3.744   7.610  0.2193  0.1204 -0.0712
 1001YOPC   C1B13491   6.699   3.450   6.587 -0.2752 -0.0016 -0.3350
 1001YOPC   C2B13492   6.465   3.618   6.992  0.0794 -0.0105  0.1000
 1001YOPC   D3B13493   6.596   3.540   7.382 -0.0104 -0.0503 -0.1665
 1001YOPC   C4B13494   6.528   3.536   7.917  0.0354  0.2761  0.1186
 1002YOPC   NC313495   0.560  13.063   6.223  0.3521 -0.2075  0.0816
 1002YOPC   PO413496   0.732  13.408   6.323 -0.3425 -0.0884  0.1023
 1002YOPC   GL113497   0.703  13.396   6.678  0.1987  0.1862  0.1534
 1002YOPC   GL213498   0.379  13.300   6.714 -0.1920 -0.0722  0.0063
 1002YOPC   C1A13499   0.616  13.361   7.137  0.1323 -0.4494  0.0353
 1002YOPC   D2A13500   0.310  13.239   7.492 -0.1109  0.0188 -0.1002
 1002YOPC   C3A13501   0.478  12.801   7.599 -0.0716 -0.0004  0.0904
 1002YOPC   C4A13502   0.881  12.635   7.760 -0.1335 -0.0480 -0.1129
 1002YOPC   C1B13503   0.086  13.485   7.109  0.3304  0.1952 -0.0242
 1002YOPC   C2B13504  -0.089  13.633   7.524 -0.0981 -0.1236  0.0268
 1002YOPC   D3B13505  -0.162  13.378   7.907 -0.1193  0.2209 -0.1042
 1002YOPC   C4B13506  -0.246  13.165   8.294 -0.0868 -0.0279  0.0247
 1003YOPC   NC313507   9.570   4.332   5.671  0.0439 -0.0793 -0.0079
 1003YOPC   PO413508   9.544   3.859   6.004  0.1076  0.1809  0.0289
 1003YOPC   GL113509   9.487   4.059   6.385  0.2551 -0.0366 -0.1009
 1003YOPC   GL213510   9.540   4.414   6.487 -0.0206  0.1090  0.0052
 1003YOPC   C1A13511   9.373   4.024   6.803  0.0341  0.2555 -0.1778
 1003YOPC   D2A13512   9.019   4.066   7.040  0.2112 -0.1132 -0.1824
 1003YOPC   C3A13513   9.101   4.105   7.494 -0.2902 -0.1367 -0.2407
 1003YOPC   C4A13514   9.468   4.191   7.768  0.1286  0.0659  0.1976
 1003YOPC   C1B13515   9.482   4.519   6.861  0.1176 -0.1284  0.4933
 1003YOPC   C2B13516   9.854   4.567   7.198 -0.2851 -0.1657 -0.2149
 1003YOPC   D3B13517   9.854   4.427   7.544  0.0170 -0.0681  0.2466
 1003YOPC   C4B13518   9.715   4.600   7.889 -0.0554 -0.1477  0.1857
 1004YOPC   NC313519  12.753   8.892   5.309  0.0719 -0.1159  0.2274
 1004YOPC   PO413520  12.974   9.157   5.615 -0.0748  0.2530 -0.0000
 1004YOPC   GL113521  12.964   9.255   6.080  0.3728 -0.0446 -0.1278
 1004YOPC   GL213522  12.666   9.508   6.207 -0.3309 -0.0150 -0.0590
 1004YOPC   C1A13523  13.187   9.365   6.460 -0.2226  0.1837  0.2476
 1004YOPC   D2A13524  13.200   9.601   6.774 -0.0938  0.0054  0.0393
 1004YOPC   C3A13525  13.301   9.947   7.136  0.3134 -0.0546  0.1329
 1004YOPC   C4A13526  13.736  10.141   7.332 -0.0936  0.0518 -0.5082
 1004YOPC   C1B13527  12.729   9.513   6.636 -0.2116 -0.1734  0.0598
 1004YOPC   C2B13528  12.720   9.407   7.043 -0.0596 -0.1226  0.2310
 1004YOPC   D3B13529  13.058   9.535   7.386 -0.0236 -0.2557 -0.0109
 1004YOPC   C4B13530  13.359   9.528   7.618 -0.0556  0.1012  0.1613
 1005YOPC   NC313531  13.741  11.836   5.538  0.0036  0.1281 -0.1842
 1005YOPC   PO413532  13.891  12.243   5.677  0.1379  0.1243 -0.1588
 1005YOPC   GL113533  13.774  11.920   6.039  0.0700  0.3708 -0.2838
 1005YOPC   GL213534  13.986  11.954   6.294  0.1753  0.0138  0.2320
 1005YOPC   C1A13535  13.542  11.631   6.372  0.2679 -0.2209 -0.2279
 1005YOPC   D2A13536  13.589  11.201   6.496  0.2229  0.0052 -0.3535
 1005YOPC   C3A13537  13.333  10.848   6.627  0.1217  0.0728  0.0026
 1005YOPC   C4A13538  12.973  10.784   6.705 -0.1017 -0.1436  0.0208
 1005YOPC   C1B13539  13.992  11.801   6.692 -0.0714 -0.0374  0.1476
 1005YOPC   C2B13540  14.020  11.771   7.137 -0.0280  0.1598 -0.1686
 1005YOPC   D3B13541  13.793  11.461   7.372 -0.0099 -0.0837  0.0391
 1005YOPC   C4B13542  13.588  11.320   7.712 -0.0158 -0.4309 -0.3343
 1006YOPC   NC313543   3.928  15.194   6.149 -0.0167  0.0100 -0.0234
 1006YOPC   PO413544   4.230  14.843   5.982  0.1274 -0.0380 -0.1963
 1006YOPC   GL113545   4.332  14.861   6.319  0.1989  0.2623 -0.3850
 1006YOPC   GL213546   4.269  15.195   6.537  0.0469 -0.2688  0.0648
 1006YOPC   C1A13547   4.639  14.897   6.609  0.2562  0.2937 -0.0783
 1006YOPC   D2A13548   4.846  14.865   6.950 -0.0757  0.0956  0.1972
 1006YOPC   C3A13549   5.179  15.135   6.996  0.0654  0.0512 -0.0585
 1006YOPC   C4A13550   5.210  15.435   6.832  0.0790  0.2084 -0.0808
 1006YOPC   C1B13551   4.406  15.151   7.003  0.0209  0.0260  0.2371
 1006YOPC   C2B13552   4.474  15.063   7.445 -0.3687 -0.2049  0.1256
 1006YOPC   D3B13553   4.858  14.860   7.577  0.0107 -0.0670  0.0597
 1006YOPC   C4B13554   5.145  14.522   7.737  0.0886 -0.0241 -0.1079
 1007YOPC   NC313555   0.552  17.786   6.125 -0.2453 -0.2197  0.1017
 1007YOPC   PO413556   0.260  18.069   6.074 -0.1598  0.2303 -0.1828
 1007YOPC   GL113557   0.268  18.246   6.491 -0.1495 -0.1134  0.0011
 1007YOPC   GL213558   0.421  18.056   6.719 -0.0679  0.0137 -0.1708
 1007YOPC   C1A13559   0.078  18.369   6.779 -0.1353 -0.0187  0.0170
 1007YOPC   D2A13560   0.148  18.744   7.092 -0.1785  0.0694 -0.0652
 1007YOPC   C3A13561   0.128  19.007   7.402 -0.1709 -0.1052  0.0888
 1007YOPC   C4A13562  -0.087  19.133   7.776  0.1611 -0.0674  0.2092
 1007YOPC   C1B13563   0.371  18.089   7.183  0.3178 -0.2238 -0.0745
 1007YOPC   C2B13564   0.282  18.359   7.526  0.3627  0.0184 -0.0528
 1007YOPC   D3B13565   0.385  18.275   7.922  0.2345 -0.0372 -0.0336
 1007YOPC   C4B13566   0.616  18.077   8.209 -0.0787  0.1728 -0.0353
 1008YOPC   NC313567  13.871   5.873   5.703  0.0394  0.0058  0.1318
 1008YOPC   PO413568  14.059   6.354   5.621  0.1967  0.1046  0.0759
 1008YOPC   GL113569  14.207   6.671   5.980  0.1592  0.2645 -0.1540
 1008YOPC   GL213570  14.488   6.647   6.036 -0.1568 -0.0582  0.1591
 1008YOPC   C1A13571  14.187   6.839   6.404  0.0890 -0.1108  0.1985
 1008YOPC   D2A13572  14.446   6.879   6.703 -0.1649  0.0334  0.1766
 1008YOPC   C3A13573  14.776   7.165   6.801 -0.0020 -0.0127 -0.0683
 1008YOPC   C4A13574  14.819   7.324   7.194  0.1524  0.0425 -0.0185
 1008YOPC   C1B13575  14.325   6.387   6.407 -0.0208 -0.1174 -0.2065
 1008YOPC   C2B13576  14.320   6.398   6.876 -0.1021  0.3891 -0.1554
 1008YOPC   D3B13577  14.395   6.650   7.239  0.2089  0.1016 -0.0410
 1008YOPC   C4B13578  14.613   6.910   7.398 -0.1730 -0.1415  0.0842
 1009YOPC   NC313579  12.715   4.645   5.480 -0.0252 -0.0711  0.1439
 1009YOPC   PO413580  12.672   4.403   5.873 -0.0818  0.2035  0.3954
 1009YOPC   GL113581  12.634   4.277   6.354 -0.0822  0.0945  0.1450
 1009YOPC   GL213582  12.639   3.985   6.503 -0.0925 -0.1336  0.5012
 1009YOPC   C1A13583  12.705   4.477   6.753 -0.1107 -0.2968  0.0136
 1009YOPC   D2A13584  12.639   4.457   7.155  0.5540  0.0801 -0.0136
 1009YOPC   C3A13585  12.684   4.717   7.510  0.3688  0.0398  0.0129
 1009YOPC   C4A13586  12.747   4.843   7.910 -0.0431 -0.0164 -0.2556
 1009YOPC   C1B13587  12.609   3.934   6.902  0.1479 -0.0641 -0.0099
 1009YOPC   C2B13588  12.440   3.666   7.214 -0.0361 -0.0414 -0.1265
 1009YOPC   D3B13589  11.990   3.777   7.460 -0.0746  0.3143 -0.1481
 1009YOPC   C4B13590  11.962   4.072   7.806  0.0378 -0.1820  0.0127
 1010YOPC   NC313591  12.274  14.473   5.645 -0.0161  0.2941  0.1721
 1010YOPC   PO413592  12.077  14.350   6.120 -0.4358  0.0582  0.0190
 1010YOPC   GL113593  12.037  14.410   6.460 -0.0576  0.1148  0.1093
 1010YOPC   GL213594  11.753  14.200   6.524  0.0029  0.0989 -0.0619
 1010YOPC   C1A13595  12.349  14.179   6.760  0.0994  0.2394 -0.0587
 1010YOPC   D2A13596  12.334  14.104   7.243  0.0165 -0.2164  0.1385
 1010YOPC   C3A13597  12.603  14.329   7.493 -0.1712  0.2183 -0.1242
 1010YOPC   C4A13598  12.734  14.671   7.655  0.1824  0.1105  0.2102
 1010YOPC   C1B13599  11.655  14.097   6.995 -0.3396  0.3662  0.5344
 1010YOPC   C2B13600  11.783  14.102   7.382  0.2595  0.3055  0.1406
 1010YOPC   D3B13601  11.656  13.864   7.711 -0.1844 -0.2242 -0.1603
 1010YOPC   C4B13602  11.527  13.522   7.750  0.1146 -0.2852 -0.2413
 1011YOPC   NC313603  11.726  16.155   6.150  0.4042  0.0089  0.1811
 1011YOPC   PO413604  11.244  16.254   6.149 -0.2071  0.2702 -0.2271
 1011YOPC   GL113605  11.132  16.013   6.495 -0.1175 -0.1023 -0.1676
 1011YOPC   GL213606  11.416  15.871   6.462  0.3220  0.2118 -0.0249
 1011YOPC   C1A13607  10.904  15.949   6.838  0.1947 -0.3824 -0.0351
 1011YOPC   D2A13608  10.880  15.836   7.236 -0.2165 -0.1453  0.1834
 1011YOPC   C3A13609  10.994  15.992   7.654  0.0048  0.0057 -0.1615
 1011YOPC   C4A13610  11.013  15.906   8.091 -0.0398 -0.1958  0.0653
 1011YOPC   C1B13611  11.329  15.629   6.728  0.0793 -0.1786  0.1855
 1011YOPC   C2B13612  11.167  15.482   7.079  0.0145 -0.2336  0.3954
 1011YOPC   D3B13613  10.866  15.182   6.924  0.0494 -0.0020 -0.0863
 1011YOPC   C4B13614  10.525  14.872   7.084 -0.1137 -0.0406  0.2906
 1012YOPC   NC313615  12.842  13.539   6.358 -0.1226  0.0958  0.0478
 1012YOPC   PO413616  12.761  13.835   6.172 -0.1859  0.0788 -0.2058
 1012YOPC   GL113617  12.710  13.943   6.665 -0.4142  0.0887  0.3492
 1012YOPC   GL213618  12.555  13.737   6.786 -0.0544 -0.0233 -0.1258
 1012YOPC   C1A13619  12.908  14.066   7.090  0.1143 -0.1103  0.0423
 1012YOPC   D2A13620  13.103  14.404   7.347  0.1747 -0.1897 -0.1722
 1012YOPC   C3A13621  12.975  14.842   7.212  0.3612 -0.0143  0.0232
 1012YOPC   C4A13622  12.540  15.081   7.397  0.0408  0.3347 -0.2476
 1012YOPC   C1B13623  12.527  13.551   7.143 -0.2484 -0.0564  0.1854
 1012YOPC   C2B13624  12.383  13.348   7.396  0.2640 -0.1037  0.0531
 1012YOPC   D3B13625  12.406  13.258   7.714 -0.3945  0.1037  0.1358
 1012YOPC   C4B13626  12.198  12.947   7.937  0.0485  0.2046  0.0066
 1013YOPC   NC313627   4.354   6.439   5.423  0.2791  0.0699 -0.1609
 1013YOPC   PO413628   4.432   5.966   5.429  0.0042 -0.2705 -0.3417
 1013YOPC   GL113629   4.511   5.766   5.858  0.0803 -0.1642  0.0522
 1013YOPC   GL213630   4.705   6.067   6.047  0.3088 -0.2543 -0.0649
 1013YOPC   C1A13631   4.314   5.821   6.299 -0.5150 -0.1318 -0.1438
 1013YOPC   D2A13632   4.104   6.025   6.699  0.2615 -0.2651 -0.0002
 1013YOPC   C3A13633   4.247   6.196   7.093  0.0804  0.0024 -0.0168
 1013YOPC   C4A13634   4.218   6.601   7.290 -0.1703  0.2431  0.3463
 1013YOPC   C1B13635   4.942   6.063   6.425  0.0747  0.0728  0.3028
 1013YOPC   C2B13636   5.216   6.092   6.804  0.0713  0.1998  0.1611
 1013YOPC   D3B13637   4.972   6.006   7.179  0.0776 -0.2251  0.3094
 1013YOPC   C4B13638   4.629   6.106   7.414 -0.0829 -0.0841 -0.0999
 1014YOPC   NC313639   8.483   6.631   6.089  0.0824  0.2344 -0.1720
 1014YOPC   PO413640   8.555   6.178   6.069 -0.1644  0.0149 -0.4593
 1014YOPC   GL113641   8.377   6.278   6.494  0.0347 -0.1155 -0.3524
 1014YOPC   GL213642   8.225   6.612   6.732 -0.1187  0.0083 -0.1722
 1014YOPC   C1A13643   8.351   6.203   6.959  0.1210 -0.1478 -0.0685
 1014YOPC   D2A13644   8.349   6.321   7.371 -0.1572 -0.0403 -0.1205
 1014YOPC   C3A13645   8.629   6.059   7.637 -0.1739  0.3279  0.1194
 1014YOPC   C4A13646   9.003   6.301   7.716 -0.0797  0.0555 -0.0933
 1014YOPC   C1B13647   8.280   6.689   7.109 -0.4046 -0.3390  0.1575
 1014YOPC   C2B13648   8.348   7.027   7.398  0.3915  0.2419  0.1186
 1014YOPC   D3B13649   8.005   7.278   7.527 -0.0885 -0.0424  0.1381
 1014YOPC   C4B13650   7.954   7.449   7.909  0.2684 -0.3442  0.0104
 1015YOPC   NC313651  15.255  11.908   6.170 -0.0877  0.1190 -0.0443
 1015YOPC   PO413652  15.123  11.593   5.962  0.0489  0.0911 -0.3108
 1015YOPC   GL113653  14.930  11.301   6.322 -0.0955 -0.2404 -0.0219
 1015YOPC   GL213654  14.806  11.068   6.120 -0.0572  0.0906  0.1383
 1015YOPC   C1A13655  14.898  11.231   6.756 -0.2107 -0.1628  0.0171
 1015YOPC   D2A13656  14.869  11.152   7.249 -0.0051  0.1873 -0.3747
 1015YOPC   C3A13657  14.619  11.281   7.542  0.0663 -0.2247 -0.0687
 1015YOPC   C4A13658  14.566  11.204   7.936 -0.1985 -0.0421  0.0347
 1015YOPC   C1B13659  14.556  10.942   6.364  0.0499 -0.0618 -0.2132
 1015YOPC   C2B13660  14.384  10.866   6.684  0.6050  0.0225  0.2180
 1015YOPC   D3B13661  14.427  11.061   6.997  0.2372 -0.1160 -0.1095
 1015YOPC   C4B13662  14.199  11.172   7.367  0.2156 -0.3716  0.0513
 1016YOPC   NC313663  10.301   8.389   5.726  0.2595  0.1275  0.1149
 1016YOPC   PO413664  10.578   8.038   5.803  0.2753  0.0892  0.2215
 1016YOPC   GL113665  10.432   8.185   6.166  0.0643  0.1400 -0.0198
 1016YOPC   GL213666  10.032   8.275   6.186 -0.3864 -0.1220  0.0181
 1016YOPC   C1A13667  10.343   8.171   6.589 -0.0656  0.2399  0.0474
 1016YOPC   D2A13668  10.502   8.261   6.995 -0.0175 -0.1651  0.0200
 1016YOPC   C3A13669  10.164   8.227   7.208 -0.2293  0.1101 -0.1006
 1016YOPC   C4A13670   9.944   7.877   7.463 -0.1466 -0.0723 -0.1559
 1016YOPC   C1B13671   9.633   8.267   6.411  0.4601 -0.1611  0.1362
 1016YOPC   C2B13672   9.434   8.084   6.721  0.1355 -0.3408  0.3342
 1016YOPC   D3B13673   9.549   7.702   6.801 -0.1432 -0.1843  0.1939
 1016YOPC   C4B13674   9.589   7.371   6.657 -0.2980 -0.1478  0.2530
 1017YOPC   NC313675  17.380  17.741   6.180  0.2937 -0.1086 -0.2351
 1017YOPC   PO413676  16.982  17.943   6.081 -0.0589 -0.3518  0.0513
 1017YOPC   GL113677  17.101  18.060   6.449 -0.0397 -0.1209 -0.0753
 1017YOPC   GL213678  17.389  18.219   6.580 -0.3451  0.1326 -0.0020
 1017YOPC   C1A13679  17.023  17.946   6.940  0.2687 -0.2456  0.0039
 1017YOPC   D2A13680  17.134  17.980   7.336 -0.1731 -0.0074  0.0916
 1017YOPC   C3A13681  16.860  18.047   7.679 -0.0898 -0.1580 -0.0881
 1017YOPC   C4A13682  16.691  18.133   8.121  0.0291  0.2128 -0.0670
 1017YOPC   C1B13683  17.064  18.447   6.769  0.0157  0.2067 -0.3522
 1017YOPC   C2B13684  17.238  18.487   7.146 -0.0479 -0.0692 -0.2807
 1017YOPC   D3B13685  17.213  18.432   7.585  0.1490 -0.0482  0.4262
 1017YOPC   C4B13686  17.379  18.044   7.807  0.1281  0.1597  0.1377
 1018YOPC   NC313687  11.147   0.684   5.931  0.0349 -0.0782  0.0469
 1018YOPC   PO413688  11.100   0.739   6.414 -0.0640 -0.0323 -0.3997
 1018YOPC   GL113689  11.073   0.647   6.881 -0.2819 -0.1848 -0.1195
 1018YOPC   GL213690  11.048   0.905   7.126 -0.0684 -0.3359  0.0377
 1018YOPC   C1A13691  11.539   0.577   7.051 -0.1580  0.0498 -0.2926
 1018YOPC   D2A13692  11.997   0.693   6.826  0.0120 -0.1688  0.0987
 1018YOPC   C3A13693  12.279   0.321   6.788 -0.3098  0.2360  0.1052
 1018YOPC   C4A13694  12.157  -0.128   6.875 -0.0503  0.1989  0.0157
 1018YOPC   C1B13695  10.953   0.903   7.501 -0.2113  0.1148  0.1861
 1018YOPC   C2B13696  10.834   0.967   7.866 -0.0361 -0.0968  0.1091
 1018YOPC   D3B13697  11.025   1.017   8.291  0.1793 -0.1813  0.1690
 1018YOPC   C4B13698  11.379   0.736   8.511  0.1513 -0.3843  0.4185
 1019YOPC   NC313699   6.375   1.460   6.320  0.0702 -0.1389 -0.0902
 1019YOPC   PO413700   6.432   0.976   6.383 -0.0846  0.0002 -0.1066
 1019YOPC   GL113701   6.505   1.133   6.757 -0.2177  0.0488  0.0456
 1019YOPC   GL213702   6.573   1.472   6.871 -0.3617  0.0346 -0.0006
 1019YOPC   C1A13703   6.690   0.994   7.161  0.3505 -0.0472  0.2084
 1019YOPC   D2A13704   6.530   0.624   7.262  0.0950  0.3376 -0.1461
 1019YOPC   C3A13705   6.646   0.405   7.630  0.0464 -0.1125  0.2743
 1019YOPC   C4A13706   6.866   0.316   7.936  0.0278 -0.0452  0.0634
 1019YOPC   C1B13707   6.475   1.652   7.302 -0.3356 -0.0182  0.1742
 1019YOPC   C2B13708   6.571   1.491   7.689 -0.0535  0.0013  0.0822
 1019YOPC   D3B13709   6.426   1.560   8.110  0.2476 -0.0414 -0.0301
 1019YOPC   C4B13710   6.178   1.681   8.449  0.0439 -0.1478  0.1911
 1020YOPC   NC313711   0.820  14.972   6.720  0.2172  0.0363  0.0336
 1020YOPC   PO413712   1.191  14.948   6.573 -0.1220  0.2168  0.0221
 1020YOPC   GL113713   1.295  14.855   6.912 -0.1135  0.0951 -0.0069
 1020YOPC   GL213714   1.122  14.661   7.084  0.1706 -0.1007 -0.0805
 1020YOPC   C1A13715   1.505  14.935   7.261  0.1135  0.2610 -0.0174
 1020YOPC   D2A13716   1.662  14.904   7.541  0.3275  0.1858  0.0831
 1020YOPC   C3A13717   1.323  15.019   7.878 -0.2158 -0.1115 -0.1072
 1020YOPC   C4A13718   1.020  15.053   8.157 -0.1899  0.0312 -0.1450
 1020YOPC   C1B13719   1.045  14.785   7.507  0.0717 -0.5521  0.0455
 1020YOPC   C2B13720   1.040  14.625   7.890 -0.1319  0.1289 -0.0456
 1020YOPC   D3B13721   0.772  14.515   8.221  0.0376  0.3984 -0.1572
 1020YOPC   C4B13722   0.415  14.333   8.278 -0.0648 -0.2443 -0.0964
 1021YOPC   NC313723  14.191  13.991   6.320  0.2729  0.0770 -0.0608
 1021YOPC   PO413724  14.257  14.391   6.161  0.1170  0.1393  0.1868
 1021YOPC   GL113725  14.518  14.197   6.638  0.2208 -0.0349 -0.0362
 1021YOPC   GL213726  14.377  13.873   6.786  0.2466  0.2526  0.0397
 1021YOPC   C1A13727  14.541  14.373   7.012 -0.1357  0.2876  0.0920
 1021YOPC   D2A13728  14.678  14.299   7.457 -0.0226 -0.0551  0.1109
 1021YOPC   C3A13729  14.700  13.835   7.688  0.3154 -0.0609  0.2271
 1021YOPC   C4A13730  14.860  13.680   8.085  0.0935  0.0468 -0.2216
 1021YOPC   C1B13731  14.300  14.032   7.258  0.1855  0.0781 -0.3729
 1021YOPC   C2B13732  14.187  13.887   7.678 -0.0041 -0.2136  0.1293
 1021YOPC   D3B13733  14.276  13.571   7.761  0.1169 -0.1257  0.0291
 1021YOPC   C4B13734  14.393  13.488   8.199 -0.0004 -0.1250  0.2315
 1022YOPC   NC313735   3.035  13.984   6.300 -0.1670  0.1774  0.2062
 1022YOPC   PO413736   2.872  14.384   6.493 -0.2223  0.0492  0.0308
 1022YOPC   GL113737   2.856  13.973   6.749  0.0002  0.2118  0.1768
 1022YOPC   GL213738   2.625  13.743   6.989 -0.0620 -0.2988 -0.0972
 1022YOPC   C1A13739   3.097  13.860   7.102  0.2737 -0.0210  0.3076
 1022YOPC   D2A13740   3.039  13.888   7.566 -0.3480  0.1121  0.1198
 1022YOPC   C3A13741   2.591  13.796   7.626  0.2822 -0.0036 -0.2242
 1022YOPC   C4A13742   2.408  13.925   7.953 -0.0276  0.2960  0.3386
 1022YOPC   C1B13743   2.481  13.328   7.308 -0.1892 -0.0656  0.0677
 1022YOPC   C2B13744   2.544  13.341   7.717  0.2031  0.1339  0.1316
 1022YOPC   D3B13745   2.737  13.150   8.149 -0.0940  0.3982 -0.1567
 1022YOPC   C4B13746   2.820  12.727   8.332  0.1424 -0.0285 -0.2720
 1023YOPC   NC313747   7.096   7.822   5.775  0.1254  0.0656 -0.1098
 1023YOPC   PO413748   6.826   7.899   6.074 -0.0276 -0.1177 -0.1668
 1023YOPC   GL113749   6.830   7.868   6.516 -0.1599 -0.1955 -0.2692
 1023YOPC   GL213750   7.003   7.664   6.535 -0.1501  0.1500 -0.1879
 1023YOPC   C1A13751   6.838   7.869   7.015  0.0007  0.0424 -0.0715
 1023YOPC   D2A13752   6.980   8.002   7.364 -0.1623 -0.1451 -0.0010
 1023YOPC   C3A13753   6.932   8.215   7.572 -0.1189  0.0856 -0.2806
 1023YOPC   C4A13754   6.892   8.503   7.892  0.0201  0.5002  0.2658
 1023YOPC   C1B13755   7.264   7.508   6.917  0.1927  0.3773  0.0641
 1023YOPC   C2B13756   7.554   7.516   7.265  0.2374  0.0691 -0.1207
 1023YOPC   D3B13757   7.920   7.463   7.069  0.0417 -0.0879 -0.0488
 1023YOPC   C4B13758   8.076   7.099   6.846 -0.1200  0.0621 -0.0028
 1024YOPC   NC313759  15.423   5.050   5.671  0.1458 -0.0401 -0.2002
 1024YOPC   PO413760  15.840   4.875   5.825  0.2446 -0.0477  0.1422
 1024YOPC   GL113761  15.987   4.720   6.217  0.1561 -0.1482  0.0762
 1024YOPC   GL213762  16.261   4.761   6.298 -0.1689 -0.0889 -0.1947
 1024YOPC   C1A13763  15.939   4.810   6.685 -0.1407  0.2817  0.3488
 1024YOPC   D2A13764  15.839   4.748   7.078 -0.0884 -0.1362  0.0879
 1024YOPC   C3A13765  16.070   4.837   7.425 -0.2810 -0.0390  0.3081
 1024YOPC   C4A13766  16.269   4.564   7.689  0.2490  0.0411  0.1920
 1024YOPC   C1B13767  16.487   4.971   6.627 -0.1599 -0.0573 -0.1316
 1024YOPC   C2B13768  16.783   5.134   6.953  0.0369 -0.1282 -0.1018
 1024YOPC   D3B13769  16.717   5.287   7.401 -0.0500  0.0109 -0.1222
 1024YOPC   C4B13770  16.412   5.386   7.628  0.1190  0.1405 -0.0009
 1025YOPC   NC313771   6.254  14.349   6.178 -0.0834 -0.2134  0.2939
 1025YOPC   PO413772   6.619  14.617   6.187 -0.0198  0.0434 -0.1617
 1025YOPC   GL113773   6.564  14.509   6.630  0.1199 -0.1954  0.1237
 1025YOPC   GL213774   6.725  14.722   6.888  0.2482 -0.0274  0.0425
 1025YOPC   C1A13775   6.257  14.499   6.975 -0.2061 -0.0152 -0.0938
 1025YOPC   D2A13776   5.916  14.746   7.170  0.0720  0.1635  0.3129
 1025YOPC   C3A13777   5.462  14.698   6.996  0.0256 -0.2083  0.0769
 1025YOPC   C4A13778   5.135  14.572   7.230 -0.1058  0.1504  0.0906
 1025YOPC   C1B13779   6.709  14.344   7.131  0.1080 -0.4005 -0.3088
 1025YOPC   C2B13780   6.840  14.199   7.546 -0.0439  0.0978 -0.1868
 1025YOPC   D3B13781   6.728  14.220   7.997 -0.0927  0.0674  0.3745
 1025YOPC   C4B13782   6.759  14.038   8.433  0.1894  0.0556  0.1665
 1026YOPC   NC313783   6.607   9.626   5.546 -0.1829  0.0594  0.0149
 1026YOPC   PO413784   6.660   9.305   5.689  0.0313 -0.2504  0.0918
 1026YOPC   GL113785   6.485   9.283   6.190 -0.1556 -0.1166  0.2549
 1026YOPC   GL213786   6.606   9.600   6.345  0.1889 -0.0852  0.2506
 1026YOPC   C1A13787   6.612   9.187   6.698  0.1328 -0.1198  0.1654
 1026YOPC   D2A13788   6.663   8.891   7.092 -0.0034  0.0703 -0.3311
 1026YOPC   C3A13789   6.741   8.861   7.531 -0.0772 -0.3103  0.3197
 1026YOPC   C4A13790   6.551   8.853   7.994 -0.2857  0.0739  0.0054
 1026YOPC   C1B13791   6.923   9.668   6.694  0.1176 -0.0088 -0.1746
 1026YOPC   C2B13792   6.889   9.678   7.098 -0.1349  0.0614 -0.1752
 1026YOPC   D3B13793   6.914   9.300   7.284 -0.0960  0.0376 -0.0297
 1026YOPC   C4B13794   7.203   9.077   7.254  0.0942 -0.0246  0.3706
 1027YOPC   NC313795  13.484   2.760   5.993 -0.2703 -0.0273 -0.1135
 1027YOPC   PO413796  13.821   2.527   5.897  0.2278 -0.1409 -0.0435
 1027YOPC   GL113797  13.837   2.474   6.368 -0.3705 -0.3680 -0.1938
 1027YOPC   GL213798  13.622   2.390   6.478 -0.0474 -0.0126 -0.1138
 1027YOPC   C1A13799  14.036   2.741   6.667  0.2606  0.0162  0.0499
 1027YOPC   D2A13800  14.135   2.768   7.110 -0.0032  0.1016  0.1771
 1027YOPC   C3A13801  14.166   3.125   7.176  0.0491  0.0139 -0.0199
 1027YOPC   C4A13802  14.320   3.516   7.334  0.1677 -0.1386  0.1193
 1027YOPC   C1B13803  13.548   2.145   6.829  0.3619  0.1092  0.0966
 1027YOPC   C2B13804  13.602   1.978   7.240 -0.0189  0.1279 -0.1507
 1027YOPC   D3B13805  13.429   2.179   7.543 -0.1764 -0.0043  0.1262
 1027YOPC   C4B13806  13.449   2.484   7.734  0.0082  0.0529 -0.1060
 1028YOPC   NC313807   8.398   5.277   5.969  0.2167 -0.0284  0.1272
 1028YOPC   PO413808   8.184   5.506   6.199  0.1204 -0.0570 -0.1183
 1028YOPC   GL113809   8.087   5.552   6.525 -0.0698  0.1568 -0.3114
 1028YOPC   GL213810   8.059   5.890   6.612 -0.1828  0.1225  0.2104
 1028YOPC   C1A13811   8.106   5.434   6.892 -0.0175  0.2911 -0.3987
 1028YOPC   D2A13812   8.017   5.339   7.317  0.0478  0.1177 -0.0627
 1028YOPC   C3A13813   8.098   5.044   7.531  0.1374  0.2131  0.2763
 1028YOPC   C4A13814   8.007   4.730   7.898 -0.1234 -0.0991 -0.0921
 1028YOPC   C1B13815   7.912   5.882   7.052  0.0785  0.1481 -0.1427
 1028YOPC   C2B13816   8.087   5.806   7.386 -0.1255  0.0994  0.0567
 1028YOPC   D3B13817   8.074   6.068   7.749  0.2164  0.1654  0.0872
 1028YOPC   C4B13818   8.163   6.223   8.097 -0.2795  0.3285  0.3889
 1029YOPC   NC313819   0.622  11.036   5.844 -0.3394  0.1567  0.1688
 1029YOPC   PO413820   0.212  11.074   5.625 -0.3012  0.0846  0.0547
 1029YOPC   GL113821   0.202  10.915   6.033  0.0708 -0.3854 -0.3389
 1029YOPC   GL213822   0.254  11.246   6.241  0.2874  0.4779 -0.1401
 1029YOPC   C1A13823  -0.025  10.729   6.351 -0.0199  0.0808  0.0035
 1029YOPC   D2A13824  -0.135  10.354   6.587  0.1076 -0.1642  0.5319
 1029YOPC   C3A13825  -0.389  10.330   7.100  0.5131  0.1676 -0.2281
 1029YOPC   C4A13826  -0.598  10.347   7.558 -0.0210 -0.2430 -0.1494
 1029YOPC   C1B13827   0.119  11.152   6.654  0.0141 -0.0163 -0.0552
 1029YOPC   C2B13828   0.140  11.230   7.090  0.2339  0.3467 -0.1954
 1029YOPC   D3B13829  -0.219  11.099   7.258 -0.1943  0.1701 -0.2623
 1029YOPC   C4B13830  -0.416  10.832   7.467 -0.2642 -0.1514  0.2728
 1030YOPC   NC313831   4.060  12.855   5.746 -0.2156 -0.1643  0.1352
 1030YOPC   PO413832   3.683  12.860   5.907 -0.0569 -0.1085 -0.0664
 1030YOPC   GL113833   3.557  12.606   6.214 -0.0743 -0.0387 -0.2765
 1030YOPC   GL213834   3.442  12.871   6.481  0.1419  0.3339  0.1390
 1030YOPC   C1A13835   3.557  12.401   6.621  0.2148 -0.1822 -0.0663
 1030YOPC   D2A13836   3.373  12.353   7.111 -0.1739 -0.3520  0.0710
 1030YOPC   C3A13837   3.413  12.030   7.472 -0.1433 -0.0919  0.0093
 1030YOPC   C4A13838   3.201  11.962   7.864  0.1288  0.0696 -0.1259
 1030YOPC   C1B13839   3.263  12.827   6.873 -0.0383  0.4089 -0.0928
 1030YOPC   C2B13840   3.242  12.783   7.292  0.1721  0.1001 -0.0475
 1030YOPC   D3B13841   3.178  12.478   7.567  0.3075 -0.1660  0.0305
 1030YOPC   C4B13842   3.254  12.559   8.016  0.0329 -0.1741 -0.1062
 1031YOPC   NC313843   7.320  12.937   6.073  0.0837  0.1996 -0.0584
 1031YOPC   PO413844   6.938  13.239   6.204 -0.0168 -0.2331 -0.0097
 1031YOPC   GL113845   7.000  13.437   6.642 -0.1559  0.1417  0.0922
 1031YOPC   GL213846   6.725  13.537   6.746 -0.0919  0.3452 -0.2028
 1031YOPC   C1A13847   7.119  13.393   7.054 -0.1430  0.0354 -0.0471
 1031YOPC   D2A13848   7.336  13.179   7.364  0.0388 -0.1767  0.1946
 1031YOPC   C3A13849   7.444  13.415   7.692  0.0662  0.1038 -0.2303
 1031YOPC   C4A13850   7.555  13.579   8.031 -0.0061 -0.2314  0.1678
 1031YOPC   C1B13851   6.626  13.347   7.173 -0.1979 -0.3018 -0.1391
 1031YOPC   C2B13852   6.404  13.306   7.547 -0.0039  0.0050  0.1551
 1031YOPC   D3B13853   6.297  13.087   7.874 -0.1792 -0.0152 -0.0657
 1031YOPC   C4B13854   6.432  13.254   8.294 -0.1432  0.2312 -0.1845
 1032YOPC   NC313855  15.693   8.787   5.646 -0.1082  0.0896  0.1900
 1032YOPC   PO413856  16.086   8.695   5.678 -0.1405  0.1190 -0.3994
 1032YOPC   GL113857  16.188   8.794   6.068 -0.1102  0.0486  0.1044
 1032YOPC   GL213858  16.478   8.831   6.091  0.1087  0.2229  0.0328
 1032YOPC   C1A13859  15.980   8.748   6.373 -0.1887  0.1291 -0.0379
 1032YOPC   D2A13860  16.005   8.651   6.862  0.0370 -0.0379  0.1577
 1032YOPC   C3A13861  16.358   8.859   6.995 -0.3045  0.0680  0.1015
 1032YOPC   C4A13862  16.472   9.360   6.953  0.0648  0.2526  0.1940
 1032YOPC   C1B13863  16.476   8.600   6.519  0.1549  0.1007  0.1864
 1032YOPC   C2B13864  16.464   8.373   6.885  0.0604 -0.0733 -0.0648
 1032YOPC   D3B13865  16.136   8.271   7.227 -0.0244  0.2412 -0.1047
 1032YOPC   C4B13866  16.146   7.924   7.520  0.1560 -0.0055 -0.1231
 1033YOPC   NC313867   8.622   3.496   6.138  0.1385 -0.2832  0.0648
 1033YOPC   PO413868   8.741   3.078   6.145  0.0350  0.1494 -0.0613
 1033YOPC   GL113869   8.756   3.122   6.528 -0.1671 -0.2747 -0.0307
 1033YOPC   GL213870   8.507   2.951   6.691  0.4034  0.1012 -0.1170
 1033YOPC   C1A13871   9.032   2.882   6.722 -0.0248  0.0831 -0.1168
 1033YOPC   D2A13872   9.306   2.990   7.062  0.0076 -0.0298 -0.0943
 1033YOPC   C3A13873   9.204   2.930   7.354 -0.3820  0.2261 -0.0611
 1033YOPC   C4A13874   9.289   2.618   7.527  0.0620 -0.0872 -0.1361
 1033YOPC   C1B13875   8.723   2.908   7.067  0.1344  0.0346 -0.2638
 1033YOPC   C2B13876   8.815   3.190   7.455 -0.1911 -0.1454  0.0953
 1033YOPC   D3B13877   8.736   3.285   7.787 -0.2123 -0.0887  0.1853
 1033YOPC   C4B13878   8.540   3.245   8.221  0.1040  0.1350  0.0377
 1034YOPC   NC313879  14.283  11.416   5.466  0.2264 -0.0986 -0.0330
 1034YOPC   PO413880  13.889  11.393   5.346 -0.1331  0.2412 -0.0351
 1034YOPC   GL113881  13.776  11.374   5.741 -0.3407 -0.1497 -0.1332
 1034YOPC   GL213882  13.413  11.589   5.893  0.1699  0.0111  0.2818
 1034YOPC   C1A13883  13.860  11.380   6.117  0.0876  0.0244 -0.0520
 1034YOPC   D2A13884  14.091  11.317   6.582 -0.1009 -0.1820  0.1664
 1034YOPC   C3A13885  13.935  11.235   6.884 -0.1627 -0.2166  0.0654
 1034YOPC   C4A13886  13.566  11.083   7.061  0.0808  0.1571  0.0196
 1034YOPC   C1B13887  13.363  11.167   6.068  0.0547  0.3527  0.1977
 1034YOPC   C2B13888  13.521  10.712   6.197  0.1224 -0.4152 -0.2398
 1034YOPC   D3B13889  13.326  10.440   6.403  0.2442 -0.0823  0.0074
 1034YOPC   C4B13890  13.279  10.085   6.647 -0.1226 -0.0674 -0.1374
 1035YOPC   NC313891  15.274   0.561   6.240  0.1227 -0.0774  0.2612
 1035YOPC   PO413892  15.415   1.049   6.367  0.3545 -0.0786 -0.2259
 1035YOPC   GL113893  15.529   1.111   6.648 -0.0520  0.4760 -0.1049
 1035YOPC   GL213894  15.284   0.985   7.004 -0.1960 -0.2630  0.2479
 1035YOPC   C1A13895  15.797   1.362   6.885  0.2315 -0.2661 -0.2300
 1035YOPC   D2A13896  15.739   1.585   7.289  0.2716  0.1690  0.0682
 1035YOPC   C3A13897  15.916   1.755   7.593 -0.1758 -0.2048 -0.1949
 1035YOPC   C4A13898  16.154   1.821   8.006 -0.0065 -0.0229  0.0155
 1035YOPC   C1B13899  15.238   1.520   7.176 -0.1525  0.2793  0.2484
 1035YOPC   C2B13900  15.187   1.830   7.503 -0.0311 -0.0796 -0.2689
 1035YOPC   D3B13901  15.079   1.738   7.924 -0.0620 -0.1748  0.0058
 1035YOPC   C4B13902  15.316   1.703   8.300  0.1072 -0.0038  0.1109
 1036YOPC   NC313903   7.962   7.384   6.251  0.3381 -0.1580 -0.1493
 1036YOPC   PO413904   7.530   7.495   6.113 -0.1073 -0.3524  0.1211
 1036YOPC   GL113905   7.390   7.284   6.414 -0.1351  0.2462  0.2030
 1036YOPC   GL213906   7.566   7.091   6.502  0.0867  0.3269 -0.2501
 1036YOPC   C1A13907   7.076   7.050   6.653  0.1460  0.0791 -0.0282
 1036YOPC   D2A13908   6.867   7.028   7.087 -0.4419  0.2265  0.0485
 1036YOPC   C3A13909   7.234   7.101   7.277  0.2264 -0.1023 -0.1571
 1036YOPC   C4A13910   7.504   7.192   7.654 -0.3450  0.0156  0.2508
 1036YOPC   C1B13911   7.583   7.086   6.928  0.0361 -0.2491 -0.1908
 1036YOPC   C2B13912   7.820   6.847   7.186 -0.0985  0.1239 -0.5203
 1036YOPC   D3B13913   7.754   6.739   7.594 -0.2096 -0.2464 -0.0025
 1036YOPC   C4B13914   7.637   6.394   7.849 -0.3572 -0.1932 -0.0782
 1037YOPC   NC313915  12.647   9.374   5.315  0.2797 -0.3368 -0.0141
 1037YOPC   PO413916  12.535   9.209   5.733  0.0067  0.0906 -0.1560
 1037YOPC   GL113917  12.455   9.020   6.164  0.2065 -0.0747 -0.1023
 1037YOPC   GL213918  12.439   8.652   6.233 -0.0070  0.2511  0.1328
 1037YOPC   C1A13919  12.377   9.145   6.550 -0.0932  0.1578 -0.1741
 1037YOPC   D2A13920  12.443   8.965   6.991  0.0139  0.3580  0.5391
 1037YOPC   C3A13921  12.574   8.948   7.391  0.1581 -0.2098  0.5628
 1037YOPC   C4A13922  12.948   8.909   7.687  0.2253  0.0070  0.1723
 1037YOPC   C1B13923  12.575   8.602   6.624  0.2753  0.1483 -0.1234
 1037YOPC   C2B13924  12.540   8.431   7.067 -0.3546 -0.0870  0.1086
 1037YOPC   D3B13925  12.483   8.111   7.189 -0.0902 -0.0912  0.0103
 1037YOPC   C4B13926  12.311   7.680   7.121  0.1414  0.2254 -0.1818
 1038YOPC   NC313927   9.056  15.636   5.743 -0.1907 -0.0532  0.1544
 1038YOPC   PO413928   8.751  15.409   5.977  0.2205  0.1898 -0.0203
 1038YOPC   GL113929   8.819  15.425   6.476  0.0495  0.0964  0.0511
 1038YOPC   GL213930   8.566  15.106   6.500  0.3497 -0.1879  0.1390
 1038YOPC   C1A13931   8.833  15.351   6.862  0.2386  0.0260 -0.0125
 1038YOPC   D2A13932   8.558  15.544   7.210  0.2132 -0.1265  0.2786
 1038YOPC   C3A13933   8.343  15.321   7.524 -0.2461  0.0608  0.1362
 1038YOPC   C4A13934   8.346  15.309   7.997  0.1363  0.1677  0.1281
 1038YOPC   C1B13935   8.351  15.083   7.002  0.1526 -0.0514  0.0163
 1038YOPC   C2B13936   8.064  14.960   7.322 -0.1164 -0.0144 -0.2354
 1038YOPC   D3B13937   8.100  14.911   7.664 -0.0328  0.1035  0.0624
 1038YOPC   C4B13938   8.287  14.539   7.902  0.2345  0.2684 -0.3379
 1039YOPC   NC313939  14.227   2.336   6.141 -0.1148  0.1790  0.1844
 1039YOPC   PO413940  13.931   2.020   6.094  0.2562  0.1052 -0.0208
 1039YOPC   GL113941  13.955   2.017   6.565  0.2679 -0.1855  0.0959
 1039YOPC   GL213942  14.121   2.249   6.751  0.1787 -0.0749  0.0898
 1039YOPC   C1A13943  14.149   1.819   7.024 -0.0274 -0.2577 -0.1627
 1039YOPC   D2A13944  14.026   1.868   7.485 -0.3325 -0.1161 -0.4085
 1039YOPC   C3A13945  13.988   1.667   7.701  0.0727  0.2403 -0.1518
 1039YOPC   C4A13946  14.144   1.795   8.138  0.0886  0.2334 -0.1266
 1039YOPC   C1B13947  13.990   2.288   7.127 -0.0872 -0.0793 -0.1923
 1039YOPC   C2B13948  13.962   2.304   7.682  0.0494 -0.0207 -0.0242
 1039YOPC   D3B13949  14.363   2.091   7.795  0.0454  0.1363 -0.1043
 1039YOPC   C4B13950  14.766   2.115   7.664  0.0787  0.2320  0.3677
 1040YOPC   NC313951   8.972   5.419   5.340 -0.0114  0.2544  0.0817
 1040YOPC   PO413952   8.878   5.402   5.854 -0.0742  0.2640  0.1091
 1040YOPC   GL113953   8.733   5.569   6.239  0.0188  0.2879  0.0787
 1040YOPC   GL213954   8.558   5.768   6.372 -0.0046 -0.0861  0.2200
 1040YOPC   C1A13955   9.069   5.616   6.584  0.1958 -0.2055  0.1798
 1040YOPC   D2A13956   9.061   5.696   6.954  0.1643 -0.0602  0.1424
 1040YOPC   C3A13957   9.330   6.066   6.952  0.3019 -0.0587  0.0410
 1040YOPC   C4A13958   9.288   6.455   6.608  0.0879  0.1781  0.0082
 1040YOPC   C1B13959   8.759   5.993   6.744  0.0740  0.1369  0.0673
 1040YOPC   C2B13960   8.905   6.134   7.231 -0.0463 -0.1451 -0.0893
 1040YOPC   D3B13961   9.026   5.782   7.448  0.1016 -0.0608 -0.2249
 1040YOPC   C4B13962   9.056   5.742   7.938  0.3135 -0.0087 -0.0754
 1041YOPC   NC313963  10.888   9.646   6.035 -0.0971 -0.0304 -0.0850
 1041YOPC   PO413964  11.067  10.061   6.069 -0.0636  0.0202  0.0853
 1041YOPC   GL113965  11.168   9.726   6.462  0.0624  0.1310 -0.1075
 1041YOPC   GL213966  10.799   9.566   6.547 -0.1385  0.2380 -0.0584
 1041YOPC   C1A13967  11.242   9.871   6.932  0.0675  0.0686 -0.1698
 1041YOPC   D2A13968  11.366   9.956   7.381 -0.0694  0.0118  0.0088
 1041YOPC   C3A13969  11.384   9.753   7.758  0.2187 -0.0258 -0.0736
 1041YOPC   C4A13970  11.546   9.758   8.099 -0.0567 -0.1930  0.0052
 1041YOPC   C1B13971  10.886   9.532   6.913 -0.0332  0.3328 -0.0628
 1041YOPC   C2B13972  11.070   9.508   7.254 -0.0230 -0.0492 -0.2500
 1041YOPC   D3B13973  10.895   9.433   7.700  0.0737  0.0910  0.2430
 1041YOPC   C4B13974  10.772   9.150   8.022 -0.1499  0.1036  0.0536
 1042YOPC   NC313975  16.781   2.053   5.861  0.1120  0.1800 -0.0758
 1042YOPC   PO413976  16.617   2.407   6.126 -0.2555  0.0335  0.2091
 1042YOPC   GL113977  16.527   2.514   6.547  0.2676  0.0282  0.0694
 1042YOPC   GL213978  16.494   2.810   6.509  0.2170 -0.0525 -0.1023
 1042YOPC   C1A13979  16.570   2.375   7.051  0.1082 -0.0632  0.0111
 1042YOPC   D2A13980  16.557   2.001   7.321 -0.0409  0.0585 -0.1009
 1042YOPC   C3A13981  16.951   1.985   7.549  0.1127 -0.1210  0.2277
 1042YOPC   C4A13982  17.090   1.943   7.938  0.0275  0.3455 -0.0617
 1042YOPC   C1B13983  16.331   2.798   6.882  0.0714  0.0481  0.2474
 1042YOPC   C2B13984  16.303   2.717   7.309  0.1041 -0.0410  0.0004
 1042YOPC   D3B13985  16.168   2.755   7.777  0.2284  0.0216  0.0475
 1042YOPC   C4B13986  16.339   2.463   8.103 -0.0382 -0.0255 -0.0921
 1043YOPC   NC313987  17.148   5.719   5.120  0.0763 -0.1155 -0.0965
 1043YOPC   PO413988  16.920   5.886   5.451  0.1115  0.3563  0.0667
 1043YOPC   GL113989  16.782   5.958   5.946 -0.1331  0.2805  0.0819
 1043YOPC   GL213990  16.465   6.201   5.949 -0.0077  0.4144 -0.2679
 1043YOPC   C1A13991  16.804   5.870   6.338 -0.2128 -0.2357  0.2541
 1043YOPC   D2A13992  16.921   6.111   6.684  0.1101  0.2069  0.0108
 1043YOPC   C3A13993  16.776   6.113   7.066  0.0320  0.0518 -0.0662
 1043YOPC   C4A13994  17.068   6.238   7.458  0.2186  0.1446 -0.0587
 1043YOPC   C1B13995  16.397   6.156   6.513  0.3564 -0.3121  0.0642
 1043YOPC   C2B13996  16.260   6.155   6.942 -0.0427  0.1561 -0.3149
 1043YOPC   D3B13997  16.333   6.338   7.301 -0.0880  0.2396  0.0781
 1043YOPC   C4B13998  16.605   6.226   7.682  0.1503 -0.0733 -0.0504
 1044YOPC   NC313999  10.862   7.573   5.782 -0.0084 -0.1608 -0.0659
 1044YOPC   PO414000  11.112   7.333   6.005 -0.1097 -0.0845 -0.1611
 1044YOPC   GL114001  11.030   7.582   6.323  0.0601  0.1882  0.1847
 1044YOPC   GL214002  10.811   7.804   6.224 -0.0602 -0.2629 -0.1153
 1044YOPC   C1A14003  10.929   7.531   6.741  0.3391  0.0106  0.1029
 1044YOPC   D2A14004  10.843   7.283   6.974  0.0164 -0.0950  0.0785
 1044YOPC   C3A14005  10.356   7.348   7.146 -0.1444  0.0347 -0.0395
 1044YOPC   C4A14006  10.041   7.596   6.879 -0.0787  0.4461  0.0406
 1044YOPC   C1B14007  10.829   8.049   6.566  0.2028  0.0519  0.0944
 1044YOPC   C2B14008  11.006   8.008   6.930 -0.1946  0.1331 -0.0710
 1044YOPC   D3B14009  10.962   7.969   7.323  0.0428 -0.1443 -0.3152
 1044YOPC   C4B14010  10.793   7.817   7.734 -0.1921  0.3303  0.2209
 1045YOPC   NC314011  13.928   9.246   5.614  0.0380 -0.1187 -0.0971
 1045YOPC   PO414012  13.677   8.990   5.809  0.0498 -0.0142 -0.0853
 1045YOPC   GL114013  13.461   9.017   6.170 -0.0758  0.0755 -0.0845
 1045YOPC   GL214014  13.249   8.913   6.073 -0.2640  0.1473 -0.0497
 1045YOPC   C1A14015  13.454   8.762   6.629  0.1140  0.2138  0.2192
 1045YOPC   D2A14016  13.476   8.678   6.993  0.1228 -0.0005 -0.2403
 1045YOPC   C3A14017  13.342   8.300   7.125  0.0666 -0.3667  0.1856
 1045YOPC   C4A14018  13.635   8.043   7.233 -0.2150  0.3196  0.1390
 1045YOPC   C1B14019  12.905   8.828   6.377 -0.2009  0.0921 -0.1196
 1045YOPC   C2B14020  12.828   9.038   6.732  0.0711 -0.1120  0.0211
 1045YOPC   D3B14021  13.139   9.111   7.006  0.0437  0.2848 -0.1154
 1045YOPC   C4B14022  13.542   9.194   6.739  0.0894  0.1327  0.0303
 1046YOPC   NC314023   9.146   9.975   6.268 -0.1703 -0.1279 -0.1109
 1046YOPC   PO414024   9.567  10.061   6.356  0.1222  0.1512  0.2257
 1046YOPC   GL114025   9.352  10.051   6.747 -0.0648  0.1269  0.0551
 1046YOPC   GL214026   9.052  10.188   6.711 -0.1356  0.1148 -0.3519
 1046YOPC   C1A14027   9.444   9.970   7.188  0.0644  0.1649 -0.0816
 1046YOPC   D2A14028   9.673  10.090   7.499 -0.3546 -0.1548 -0.0162
 1046YOPC   C3A14029   9.906   9.923   7.880 -0.3041 -0.0199  0.1525
 1046YOPC   C4A14030  10.099   9.623   8.209 -0.1080  0.0026 -0.2605
 1046YOPC   C1B14031   8.905  10.282   7.096 -0.1963  0.0886 -0.0325
 1046YOPC   C2B14032   8.741  10.090   7.562 -0.1068 -0.1605  0.3978
 1046YOPC   D3B14033   8.575  10.251   7.875  0.1520 -0.1860 -0.0091
 1046YOPC   C4B14034   8.589  10.398   8.327  0.2223  0.2132  0.3507
 1047YOPC   NC314035   8.036  11.337   5.599 -0.1650  0.0416  0.0189
 1047YOPC   PO414036   8.290  10.952   5.664 -0.1179 -0.0342 -0.1239
 1047YOPC   GL114037   8.367  10.999   6.065  0.0072 -0.1254  0.1068
 1047YOPC   GL214038   8.539  10.787   6.280 -0.1182 -0.0576  0.1320
 1047YOPC   C1A14039   8.198  11.085   6.402  0.0558 -0.1113  0.1678
 1047YOPC   D2A14040   7.988  11.318   6.739 -0.2687  0.0572 -0.3337
 1047YOPC   C3A14041   7.908  11.228   7.124  0.0142  0.2231  0.1906
 1047YOPC   C4A14042   7.712  10.945   7.388 -0.1256 -0.1438 -0.2304
 1047YOPC   C1B14043   8.408  10.764   6.740  0.0683 -0.3146 -0.3409
 1047YOPC   C2B14044   8.504  10.457   6.956 -0.2183  0.1841  0.2085
 1047YOPC   D3B14045   8.108  10.168   7.079 -0.1523  0.0260 -0.0104
 1047YOPC   C4B14046   7.788  10.009   7.289 -0.0772 -0.3955  0.0043
 1048YOPC   NC314047  11.232  14.295   6.433  0.0735 -0.1423 -0.2593
 1048YOPC   PO414048  10.793  14.421   6.374  0.0852  0.2112  0.1869
 1048YOPC   GL114049  10.782  14.498   6.741  0.1559 -0.0779  0.3160
 1048YOPC   GL214050  10.517  14.367   6.896 -0.1129  0.3237  0.2507
 1048YOPC   C1A14051  11.019  14.666   7.000 -0.1659  0.2444  0.1489
 1048YOPC   D2A14052  10.952  14.821   7.361  0.0861 -0.0151  0.0539
 1048YOPC   C3A14053  10.940  15.248   7.399 -0.0665 -0.2648  0.1204
 1048YOPC   C4A14054  10.777  15.479   7.812 -0.1411 -0.2830  0.2158
 1048YOPC   C1B14055  10.759  14.397   7.300  0.3684 -0.0531 -0.0184
 1048YOPC   C2B14056  10.818  14.507   7.759 -0.0714 -0.2472 -0.0561
 1048YOPC   D3B14057  10.521  14.677   8.099 -0.0088 -0.1628  0.0943
 1048YOPC   C4B14058  10.433  14.602   8.473  0.0766  0.1320 -0.0545
 1049YOPC   NC314059   8.506  12.039   5.696 -0.2391 -0.0632 -0.1322
 1049YOPC   PO414060   8.657  12.513   5.694 -0.4294 -0.1154 -0.0391
 1049YOPC   GL114061   8.918  12.302   6.077 -0.1264 -0.2726 -0.1149
 1049YOPC   GL214062   9.300  12.294   6.103  0.0426 -0.0950  0.0856
 1049YOPC   C1A14063   9.015  12.099   6.499 -0.1102 -0.2314 -0.2572
 1049YOPC   D2A14064   9.068  12.192   6.817 -0.1098  0.0738 -0.0384
 1049YOPC   C3A14065   9.245  12.553   6.805 -0.2384  0.1963 -0.0721
 1049YOPC   C4A14066   9.262  12.960   6.757 -0.0659 -0.1181  0.1599
 1049YOPC   C1B14067   9.570  12.317   6.520 -0.0532  0.1991 -0.0403
 1049YOPC   C2B14068   9.574  12.202   6.908  0.0337  0.1869 -0.0537
 1049YOPC   D3B14069   9.399  12.403   7.305  0.1311  0.0507 -0.0415
 1049YOPC   C4B14070   9.106  12.719   7.587  0.0518 -0.3395 -0.1856
 1050YOPC   NC314071  15.904   4.100   5.541 -0.1503  0.2614 -0.0488
 1050YOPC   PO414072  15.794   3.924   5.897  0.5056 -0.0277 -0.3563
 1050YOPC   GL114073  15.877   4.076   6.285  0.4088 -0.2338  0.1912
 1050YOPC   GL214074  16.208   4.243   6.379  0.0798  0.0077  0.3214
 1050YOPC   C1A14075  15.842   3.891   6.694  0.0978  0.0862  0.0932
 1050YOPC   D2A14076  15.934   3.631   7.049 -0.2385  0.0840  0.0762
 1050YOPC   C3A14077  16.179   3.811   7.401  0.3529 -0.0741 -0.0020
 1050YOPC   C4A14078  16.141   4.095   7.752  0.0439  0.3685 -0.3673
 1050YOPC   C1B14079  16.030   4.339   6.803  0.0112  0.1743 -0.1733
 1050YOPC   C2B14080  15.749   4.243   7.008 -0.1665 -0.0380 -0.0306
 1050YOPC   D3B14081  15.671   3.973   7.340 -0.2162  0.3458  0.0278
 1050YOPC   C4B14082  15.791   3.688   7.733 -0.2445  0.0010  0.0907
 1051YOPC   NC314083   6.675  11.304   5.810 -0.1806 -0.0159 -0.4520
 1051YOPC   PO414084   6.918  10.934   6.047 -0.4134 -0.3187  0.1492
 1051YOPC   GL114085   6.980  11.027   6.501  0.0257  0.1040 -0.0791
 1051YOPC   GL214086   6.859  10.818   6.565  0.0694 -0.1408  0.1535
 1051YOPC   C1A14087   6.831  11.344   6.844  0.0308 -0.0380  0.1162
 1051YOPC   D2A14088   6.773  11.321   7.356 -0.3170  0.3797 -0.0290
 1051YOPC   C3A14089   6.929  11.514   7.736 -0.0718 -0.3230 -0.0532
 1051YOPC   C4A14090   6.900  11.934   7.788  0.1226 -0.0887 -0.4185
 1051YOPC   C1B14091   6.795  10.880   7.008 -0.3197  0.0627 -0.2002
 1051YOPC   C2B14092   7.099  10.871   7.346  0.0864 -0.2426  0.2422
 1051YOPC   D3B14093   6.935  11.030   7.724 -0.0368 -0.1052 -0.0833
 1051YOPC   C4B14094   6.838  11.181   8.061  0.2397 -0.1766 -0.3543
 1052YOPC   NC314095   8.288  17.198   6.379 -0.1931  0.2951  0.0467
 1052YOPC   PO414096   7.886  17.263   6.225  0.0549 -0.0439  0.3298
 1052YOPC   GL114097   7.702  17.195   6.648  0.2089 -0.1688 -0.0450
 1052YOPC   GL214098   8.003  17.004   6.745  0.1442 -0.1093 -0.1534
 1052YOPC   C1A14099   7.402  17.253   7.051 -0.0048 -0.0036 -0.1524
 1052YOPC   D2A14100   7.333  17.611   7.133 -0.0586  0.2513 -0.2566
 1052YOPC   C3A14101   6.891  17.672   7.184  0.0903 -0.1045  0.3352
 1052YOPC   C4A14102   6.572  17.957   7.040  0.1878  0.1828  0.0905
 1052YOPC   C1B14103   8.173  16.847   7.094 -0.2946  0.1688 -0.0779
 1052YOPC   C2B14104   8.329  16.861   7.499  0.0415 -0.3183 -0.2911
 1052YOPC   D3B14105   8.707  16.754   7.722  0.3292 -0.1551  0.0858
 1052YOPC   C4B14106   8.890  16.874   8.151 -0.1494 -0.3268  0.0692
 1053YOPC   NC314107  17.686   6.563   5.459 -0.1437 -0.2017  0.0566
 1053YOPC   PO414108  18.024   6.854   5.542 -0.2918  0.1214 -0.0243
 1053YOPC   GL114109  17.779   6.969   5.921  0.2049 -0.3424 -0.0268
 1053YOPC   GL214110  17.760   7.313   6.042 -0.4914  0.0405  0.2871
 1053YOPC   C1A14111  17.608   6.853   6.349  0.2475  0.3789  0.2982
 1053YOPC   D2A14112  17.301   6.942   6.636 -0.2934 -0.1709  0.3094
 1053YOPC   C3A14113  17.310   6.689   7.003  0.2064  0.3280 -0.1206
 1053YOPC   C4A14114  17.414   6.560   7.391  0.1592  0.4310  0.1704
 1053YOPC   C1B14115  17.862   7.265   6.523  0.1864  0.0307  0.2213
 1053YOPC   C2B14116  17.702   7.388   6.888  0.1004 -0.1420  0.2553
 1053YOPC   D3B14117  17.295   7.269   7.093 -0.0637 -0.4665  0.1512
 1053YOPC   C4B14118  17.063   7.620   7.281 -0.4163  0.1693  0.3090
 1054YOPC   NC314119  10.506  17.344   6.172  0.0442 -0.1705  0.0011
 1054YOPC   PO414120  10.433  17.763   6.453 -0.0053  0.0595  0.0306
 1054YOPC   GL114121  10.484  17.876   6.812  0.1871  0.1771  0.1204
 1054YOPC   GL214122  10.390  17.621   6.966 -0.2448  0.0733  0.1399
 1054YOPC   C1A14123  10.484  17.992   7.276  0.0355 -0.0846  0.1856
 1054YOPC   D2A14124  10.854  18.032   7.585 -0.2337 -0.0399  0.1923
 1054YOPC   C3A14125  11.003  18.048   7.987  0.1641 -0.1453 -0.0278
 1054YOPC   C4A14126  10.756  18.100   8.296  0.1486 -0.0412  0.0709
 1054YOPC   C1B14127  10.409  17.486   7.376 -0.2581 -0.1239  0.0646
 1054YOPC   C2B14128  10.391  17.341   7.822 -0.1588  0.1665  0.1472
 1054YOPC   D3B14129  10.153  17.654   8.069  0.1473  0.1785 -0.2714
 1054YOPC   C4B14130  10.402  17.966   7.807 -0.0726 -0.3313 -0.0402
 1055YOPC   NC314131  11.977   0.830   6.338  0.5009 -0.0847  0.2072
 1055YOPC   PO414132  12.356   1.020   6.418  0.3719  0.1789 -0.2150
 1055YOPC   GL114133  12.502   0.927   6.801  0.0637 -0.0716 -0.1575
 1055YOPC   GL214134  12.764   1.071   6.840  0.2508  0.0897 -0.1088
 1055YOPC   C1A14135  12.384   0.722   7.173 -0.2575  0.0718  0.0673
 1055YOPC   D2A14136  12.000   0.749   7.380 -0.1764 -0.2720  0.0053
 1055YOPC   C3A14137  12.029   0.511   7.665 -0.2760 -0.0656 -0.2221
 1055YOPC   C4A14138  11.998   0.226   7.985 -0.1282  0.1799  0.2816
 1055YOPC   C1B14139  12.684   1.358   7.049 -0.0605  0.1387 -0.1702
 1055YOPC   C2B14140  12.723   1.279   7.476  0.1437 -0.0574 -0.1441
 1055YOPC   D3B14141  12.499   0.990   7.697 -0.1591 -0.1623  0.0071
 1055YOPC   C4B14142  12.150   0.994   7.962  0.1785  0.0227 -0.0989
 1056YOPC   NC314143   1.512  16.090   6.627  0.0121 -0.2135  0.0888
 1056YOPC   PO414144   1.819  16.396   6.562 -0.0104  0.4351 -0.0324
 1056YOPC   GL114145   1.790  16.741   6.881  0.0445  0.3359  0.1008
 1056YOPC   GL214146   1.454  16.575   6.914 -0.2028  0.0635  0.1955
 1056YOPC   C1A14147   1.880  16.922   7.284 -0.0828  0.2375  0.1224
 1056YOPC   D2A14148   1.868  16.897   7.708  0.0392 -0.1044  0.0466
 1056YOPC   C3A14149   2.075  17.252   7.821  0.3403  0.0826 -0.0261
 1056YOPC   C4A14150   2.329  17.660   7.929 -0.0274  0.2843  0.0323
 1056YOPC   C1B14151   1.488  16.594   7.377 -0.2270 -0.2559 -0.1495
 1056YOPC   C2B14152   1.435  16.564   7.856  0.2547  0.1647 -0.1548
 1056YOPC   D3B14153   1.502  16.264   8.142 -0.3129 -0.2358 -0.0953
 1056YOPC   C4B14154   1.790  15.883   8.199 -0.0328  0.0965 -0.1013
 1057YOPC   NC314155   5.068   3.050   5.823 -0.0463  0.2512 -0.0241
 1057YOPC   PO414156   5.430   3.272   5.696  0.0446 -0.4373 -0.0619
 1057YOPC   GL114157   5.485   3.366   6.140 -0.1139 -0.1014 -0.2284
 1057YOPC   GL214158   5.177   3.317   6.285 -0.1148 -0.3927  0.2397
 1057YOPC   C1A14159   5.831   3.666   6.294 -0.0421 -0.0678 -0.3328
 1057YOPC   D2A14160   6.221   3.857   6.159  0.1773  0.2656  0.1539
 1057YOPC   C3A14161   6.376   4.006   6.617 -0.0147  0.0667 -0.0737
 1057YOPC   C4A14162   6.254   4.117   7.014  0.0627  0.1549  0.2972
 1057YOPC   C1B14163   5.404   3.402   6.641 -0.0774 -0.2773 -0.1284
 1057YOPC   C2B14164   5.534   3.582   6.954  0.0672  0.1681  0.1197
 1057YOPC   D3B14165   5.304   3.824   7.276  0.0068 -0.1843 -0.2985
 1057YOPC   C4B14166   5.218   3.710   7.621 -0.0589 -0.1619 -0.2327
 1058YOPC   NC314167  13.144  17.524   6.474 -0.1048  0.2564  0.0038
 1058YOPC   PO414168  13.593  17.704   6.622 -0.1856  0.2731 -0.0603
 1058YOPC   GL114169  13.720  17.468   6.989  0.0212  0.0693 -0.1401
 1058YOPC   GL214170  14.029  17.577   7.054 -0.1126  0.0113  0.1739
 1058YOPC   C1A14171  13.649  17.323   7.431 -0.1586  0.1470 -0.2232
 1058YOPC   D2A14172  13.640  17.251   7.903 -0.1125  0.1998  0.1689
 1058YOPC   C3A14173  13.528  17.570   8.217  0.1138 -0.1307  0.1588
 1058YOPC   C4A14174  13.756  17.775   8.500 -0.0616 -0.0447 -0.2588
 1058YOPC   C1B14175  14.195  17.540   7.459  0.2347 -0.2496 -0.2097
 1058YOPC   C2B14176  13.995  17.588   7.691 -0.1651 -0.1135 -0.2004
 1058YOPC   D3B14177  14.025  17.594   8.063 -0.0350  0.0994 -0.3149
 1058YOPC   C4B14178  14.006  17.351   8.489 -0.0230 -0.1672  0.1361
 1059YOPC   NC314179   7.935   1.526   6.546  0.0707 -0.0647  0.1315
 1059YOPC   PO414180   7.718   1.375   6.265 -0.1187 -0.1099  0.1177
 1059YOPC   GL114181   7.563   1.261   6.676 -0.3270 -0.0127 -0.0496
 1059YOPC   GL214182   7.528   0.925   6.715  0.3152 -0.1094 -0.0514
 1059YOPC   C1A14183   7.397   1.543   6.966 -0.0321 -0.0705 -0.4585
 1059YOPC   D2A14184   7.514   1.648   7.431  0.2486 -0.0617 -0.1098
 1059YOPC   C3A14185   7.258   1.708   7.807 -0.1133 -0.2740  0.3984
 1059YOPC   C4A14186   6.913   1.780   8.001 -0.0698  0.4007  0.0895
 1059YOPC   C1B14187   7.069   1.050   6.862  0.1732  0.0230 -0.1172
 1059YOPC   C2B14188   6.988   1.375   7.146 -0.2593 -0.2121 -0.1506
 1059YOPC   D3B14189   6.998   1.747   7.405  0.0293 -0.1023  0.0695
 1059YOPC   C4B14190   7.024   2.131   7.609  0.4731 -0.1245  0.0555
 1060YOPC   NC314191   7.008  17.886   6.030 -0.1204 -0.1341 -0.1721
 1060YOPC   PO414192   7.159  17.758   6.373  0.0818 -0.1617  0.1006
 1060YOPC   GL114193   6.899  17.451   6.627 -0.0980  0.2048 -0.1880
 1060YOPC   GL214194   7.033  17.237   6.685  0.0049  0.0445  0.1554
 1060YOPC   C1A14195   6.567  17.413   6.902  0.1972  0.2975  0.0140
 1060YOPC   D2A14196   6.522  17.371   7.282 -0.0791  0.1794 -0.2119
 1060YOPC   C3A14197   6.335  17.214   7.551 -0.0998 -0.0315  0.3627
 1060YOPC   C4A14198   6.142  17.292   7.914 -0.0906  0.0399  0.2279
 1060YOPC   C1B14199   6.917  17.100   7.160 -0.1539 -0.0433  0.0354
 1060YOPC   C2B14200   7.125  17.406   7.582  0.4354  0.6346 -0.0337
 1060YOPC   D3B14201   7.285  17.151   7.897 -0.0490 -0.1585  0.2203
 1060YOPC   C4B14202   7.691  16.948   7.837 -0.3431  0.0026 -0.2133
 1061YOPC   NC314203   1.481   5.938   5.286 -0.0149 -0.0547 -0.0099
 1061YOPC   PO414204   1.338   6.206   5.655 -0.0960  0.0083  0.3176
 1061YOPC   GL114205   1.332   6.436   6.043 -0.0326 -0.0266 -0.1177
 1061YOPC   GL214206   1.051   6.524   6.144 -0.0909  0.1677 -0.0660
 1061YOPC   C1A14207   1.430   6.278   6.485  0.0722 -0.2609 -0.1234
 1061YOPC   D2A14208   1.136   6.287   6.793 -0.1881  0.0178 -0.1098
 1061YOPC   C3A14209   1.213   6.293   7.211 -0.1187 -0.1342 -0.1955
 1061YOPC   C4A14210   1.500   6.012   7.419 -0.4352 -0.1207  0.3217
 1061YOPC   C1B14211   1.201   6.752   6.537  0.1517 -0.1232  0.1448
 1061YOPC   C2B14212   0.995   6.779   7.008  0.1898 -0.2931 -0.2314
 1061YOPC   D3B14213   1.246   6.871   7.499  0.1444 -0.3479  0.0529
 1061YOPC   C4B14214   1.473   7.215   7.489  0.0305 -0.0903 -0.0594
 1062YOPC   NC314215  10.327   1.578   6.653  0.2635 -0.0221  0.0688
 1062YOPC   PO414216  10.590   1.903   6.799  0.0890 -0.1434  0.0222
 1062YOPC   GL114217  10.585   2.095   7.212 -0.0755  0.0325 -0.1759
 1062YOPC   GL214218  10.532   2.032   7.488  0.0833 -0.3074  0.0499
 1062YOPC   C1A14219  11.024   1.959   7.475 -0.0706 -0.2504  0.0989
 1062YOPC   D2A14220  11.248   1.839   7.756  0.0010 -0.3109 -0.0993
 1062YOPC   C3A14221  11.315   2.057   8.133  0.1041  0.0117  0.4243
 1062YOPC   C4A14222  11.416   2.040   8.521  0.2689 -0.3209 -0.2348
 1062YOPC   C1B14223  10.720   1.874   7.877  0.0979  0.1350 -0.2237
 1062YOPC   C2B14224  10.998   1.655   8.173 -0.1964 -0.2336  0.1362
 1062YOPC   D3B14225  11.467   1.603   8.215 -0.1497 -0.2667  0.1543
 1062YOPC   C4B14226  11.850   1.371   8.163 -0.0824  0.3972  0.1838
 1063YOPC   NC314227  16.690   6.344   5.512  0.0445 -0.2163  0.0661
 1063YOPC   PO414228  16.409   6.743   5.490  0.4243 -0.0791 -0.2452
 1063YOPC   GL114229  16.635   6.670   5.863 -0.4087  0.1397  0.2770
 1063YOPC   GL214230  16.854   6.848   5.947  0.0944 -0.0714 -0.1065
 1063YOPC   C1A14231  16.779   6.482   6.274 -0.0129 -0.1379 -0.3515
 1063YOPC   D2A14232  16.917   6.644   6.681 -0.0129  0.2027 -0.1539
 1063YOPC   C3A14233  16.805   6.630   7.104 -0.0355 -0.0352 -0.3150
 1063YOPC   C4A14234  16.700   6.700   7.591  0.2083 -0.1506 -0.0640
 1063YOPC   C1B14235  16.864   7.049   6.404  0.1224  0.0931 -0.0139
 1063YOPC   C2B14236  16.879   7.542   6.557 -0.1430 -0.2642  0.3216
 1063YOPC   D3B14237  16.785   7.754   6.898  0.0247 -0.0258 -0.0330
 1063YOPC   C4B14238  16.561   7.879   7.271  0.0426  0.2683 -0.0738
 1064YOPC   NC314239   3.927   7.563   5.013 -0.0722 -0.0617  0.0673
 1064YOPC   PO414240   3.741   7.720   5.391  0.2544  0.2891  0.2284
 1064YOPC   GL114241   3.542   7.673   5.767 -0.0960  0.2429  0.1071
 1064YOPC   GL214242   3.453   7.971   5.913  0.2440  0.0061  0.0088
 1064YOPC   C1A14243   3.274   7.549   6.130  0.1488  0.0472  0.0154
 1064YOPC   D2A14244   3.205   7.489   6.581  0.2311 -0.1434 -0.1973
 1064YOPC   C3A14245   2.861   7.794   6.619  0.0677 -0.1599  0.2647
 1064YOPC   C4A14246   2.961   8.128   6.281 -0.0670 -0.2736 -0.2173
 1064YOPC   C1B14247   3.462   7.956   6.244 -0.1702 -0.0762 -0.0925
 1064YOPC   C2B14248   3.324   7.976   6.673 -0.0816 -0.0160  0.2022
 1064YOPC   D3B14249   2.962   8.286   6.872 -0.0649  0.2991 -0.4145
 1064YOPC   C4B14250   2.649   8.446   7.116  0.1127 -0.3388 -0.0704
 1065YOPC   NC314251  11.248   6.826   6.033 -0.2251  0.0816 -0.1275
 1065YOPC   PO414252  11.377   6.393   5.902 -0.2039  0.2068 -0.2977
 1065YOPC   GL114253  11.653   6.627   6.308  0.1669  0.1411  0.2857
 1065YOPC   GL214254  12.022   6.425   6.370  0.0283  0.1377 -0.0786
 1065YOPC   C1A14255  11.678   6.641   6.701  0.1407  0.1407 -0.3049
 1065YOPC   D2A14256  11.773   6.679   7.141 -0.2923 -0.0611 -0.1971
 1065YOPC   C3A14257  11.620   6.607   7.511 -0.3062 -0.3706 -0.0271
 1065YOPC   C4A14258  11.485   6.501   7.765  0.0182 -0.1457 -0.0902
 1065YOPC   C1B14259  12.129   6.257   6.762  0.3264 -0.1180 -0.1028
 1065YOPC   C2B14260  12.032   6.213   7.139 -0.2107 -0.1698 -0.2211
 1065YOPC   D3B14261  12.006   6.293   7.437 -0.2051 -0.2001 -0.0797
 1065YOPC   C4B14262  12.088   6.417   7.840 -0.0804  0.1178  0.1128
 1066YOPC   NC314263   1.467   3.876   5.760  0.1543 -0.2361 -0.0584
 1066YOPC   PO414264   1.804   4.161   5.714 -0.0126 -0.0311  0.0188
 1066YOPC   GL114265   1.704   4.254   5.986  0.1896 -0.1591  0.0400
 1066YOPC   GL214266   1.787   4.017   6.233  0.1086 -0.0763  0.1886
 1066YOPC   C1A14267   1.363   4.547   6.089 -0.3143  0.4199  0.1016
 1066YOPC   D2A14268   1.049   4.591   6.381  0.1877 -0.1454  0.0473
 1066YOPC   C3A14269   0.710   4.365   6.327  0.1224 -0.0765 -0.0220
 1066YOPC   C4A14270   0.778   3.883   6.296 -0.0276  0.2108 -0.0695
 1066YOPC   C1B14271   1.696   3.994   6.596 -0.1228 -0.0406 -0.0104
 1066YOPC   C2B14272   1.484   3.722   6.802 -0.0873 -0.1477 -0.2144
 1066YOPC   D3B14273   1.535   3.894   7.190 -0.2941 -0.0106 -0.1507
 1066YOPC   C4B14274   1.809   3.980   7.475  0.0290  0.1821 -0.0468
 1067YOPC   NC314275   9.283   2.470   6.039  0.1624  0.0811  0.2205
 1067YOPC   PO414276   9.650   2.727   6.115 -0.2149 -0.1854  0.3475
 1067YOPC   GL114277   9.817   2.706   6.616  0.0821  0.0837 -0.2683
 1067YOPC   GL214278   9.523   2.777   6.674 -0.0168 -0.3454  0.1463
 1067YOPC   C1A14279   9.840   2.725   7.062  0.2001  0.1808  0.1190
 1067YOPC   D2A14280   9.865   2.833   7.522  0.1478 -0.0633 -0.0615
 1067YOPC   C3A14281   9.630   3.125   7.714  0.0008 -0.2495 -0.1688
 1067YOPC   C4A14282   9.243   3.222   7.781  0.0805 -0.0554  0.0481
 1067YOPC   C1B14283   9.360   3.201   6.641 -0.1089 -0.2854  0.0025
 1067YOPC   C2B14284   9.631   3.566   6.595  0.2363  0.1085  0.1496
 1067YOPC   D3B14285   9.868   3.799   6.954  0.0062 -0.0159 -0.5537
 1067YOPC   C4B14286   9.634   4.054   7.225 -0.1054  0.3024  0.0820
 1068YOPC   NC314287  12.367  11.346   5.463  0.2556 -0.0280  0.1306
 1068YOPC   PO414288  12.046  11.353   5.868 -0.1080 -0.1883  0.3793
 1068YOPC   GL114289  12.117  11.377   6.261 -0.0982 -0.1133  0.0780
 1068YOPC   GL214290  11.941  11.283   6.460  0.0742  0.2198 -0.2278
 1068YOPC   C1A14291  12.503  11.236   6.533  0.3425 -0.0755 -0.3297
 1068YOPC   D2A14292  12.715  11.266   6.902  0.0379  0.0935  0.2959
 1068YOPC   C3A14293  13.129  11.370   6.975 -0.2144  0.0195  0.3384
 1068YOPC   C4A14294  13.509  11.583   6.963  0.0269 -0.1231  0.0463
 1068YOPC   C1B14295  12.159  11.236   6.894 -0.0774  0.0676  0.1093
 1068YOPC   C2B14296  12.360  11.325   7.267  0.2274 -0.0233 -0.1631
 1068YOPC   D3B14297  12.757  11.473   7.386 -0.0933  0.1487 -0.2663
 1068YOPC   C4B14298  13.179  11.318   7.457  0.0447  0.1696  0.0843
 1069YOPC   NC314299  13.365   0.430   6.684  0.0912 -0.0999  0.0799
 1069YOPC   PO414300  13.361   0.879   6.499  0.0836  0.2029 -0.0676
 1069YOPC   GL114301  13.547   0.965   6.943  0.3232  0.1158  0.1406
 1069YOPC   GL214302  13.914   1.003   6.845 -0.1977  0.1448  0.1739
 1069YOPC   C1A14303  13.516   0.758   7.379 -0.1983 -0.3035  0.2369
 1069YOPC   D2A14304  13.484   0.774   7.832  0.1593 -0.0502  0.0883
 1069YOPC   C3A14305  13.430   0.483   7.997 -0.0146  0.2519 -0.1426
 1069YOPC   C4A14306  13.720   0.392   8.318  0.2276 -0.0558 -0.1777
 1069YOPC   C1B14307  13.996   0.895   7.250  0.0179 -0.0817 -0.1460
 1069YOPC   C2B14308  13.998   0.826   7.608  0.0413 -0.0798  0.2297
 1069YOPC   D3B14309  13.739   0.368   7.662 -0.0962 -0.0567 -0.0088
 1069YOPC   C4B14310  13.680  -0.034   8.013  0.1617 -0.0425 -0.1198
 1070YOPC   NC314311  17.448   2.004   6.309 -0.3590  0.1016  0.1715
 1070YOPC   PO414312  17.232   2.172   6.014  0.0129  0.0837 -0.1071
 1070YOPC   GL114313  17.266   2.463   6.379 -0.0416  0.0122 -0.1755
 1070YOPC   GL214314  17.002   2.552   6.345 -0.1328  0.4373  0.0019
 1070YOPC   C1A14315  17.448   2.599   6.793 -0.0249 -0.2838  0.1520
 1070YOPC   D2A14316  17.673   2.709   7.122  0.0334  0.0883  0.1213
 1070YOPC   C3A14317  17.743   2.441   7.439  0.2142  0.0786  0.2004
 1070YOPC   C4A14318  17.811   2.456   7.917  0.1764  0.2417  0.1039
 1070YOPC   C1B14319  16.990   2.341   6.799 -0.1637 -0.2512  0.3217
 1070YOPC   C2B14320  17.162   2.475   7.147  0.0084  0.1171 -0.1067
 1070YOPC   D3B14321  16.808   2.475   7.448  0.0201 -0.2110 -0.0705
 1070YOPC   C4B14322  16.480   2.342   7.611 -0.0261 -0.0237 -0.0440
 1071YOPC   NC314323  11.356  12.584   6.092 -0.3408  0.0366 -0.1381
 1071YOPC   PO414324  11.204  12.977   6.211  0.0091 -0.2963 -0.1469
 1071YOPC   GL114325  11.251  12.981   6.608 -0.1806 -0.0427  0.3162
 1071YOPC   GL214326  11.583  13.140   6.811  0.1735  0.0473  0.0729
 1071YOPC   C1A14327  11.226  13.068   7.072  0.2628 -0.0124 -0.1747
 1071YOPC   D2A14328  11.123  13.112   7.454 -0.1035  0.0030 -0.2780
 1071YOPC   C3A14329  11.460  12.978   7.697  0.2311 -0.2127 -0.1418
 1071YOPC   C4A14330  11.717  13.154   8.047  0.0433  0.0673 -0.0234
 1071YOPC   C1B14331  11.822  12.832   7.188 -0.0609  0.0305  0.3209
 1071YOPC   C2B14332  11.912  12.682   7.561  0.0426  0.2107 -0.2985
 1071YOPC   D3B14333  11.800  12.612   7.934  0.0302 -0.0404 -0.0427
 1071YOPC   C4B14334  11.957  12.703   8.265  0.3334  0.1989 -0.0136
 1072YOPC   NC314335   4.147   2.695   6.044 -0.0350  0.1355  0.4735
 1072YOPC   PO414336   4.461   2.867   5.880 -0.0201 -0.3316 -0.2994
 1072YOPC   GL114337   4.485   3.015   6.298 -0.0492 -0.0290 -0.0531
 1072YOPC   GL214338   4.847   2.911   6.355 -0.2176 -0.0274  0.0745
 1072YOPC   C1A14339   4.288   3.070   6.658 -0.4036  0.1617 -0.1876
 1072YOPC   D2A14340   4.009   3.384   6.851  0.4862 -0.1518 -0.0103
 1072YOPC   C3A14341   3.920   3.492   7.324 -0.1933 -0.1470  0.1025
 1072YOPC   C4A14342   4.113   3.659   7.745 -0.2172  0.2588 -0.0961
 1072YOPC   C1B14343   4.779   3.199   6.776 -0.0261 -0.1938  0.0277
 1072YOPC   C2B14344   5.160   3.215   7.062 -0.1260 -0.0698  0.4180
 1072YOPC   D3B14345   5.174   3.202   7.470 -0.2806  0.0056  0.2842
 1072YOPC   C4B14346   5.491   3.248   7.800 -0.0973  0.0507 -0.1093
 1073YOPC   NC314347   5.200   4.443   5.507  0.3533  0.3464 -0.0307
 1073YOPC   PO414348   5.106   4.574   5.919  0.0511  0.2176 -0.0603
 1073YOPC   GL114349   5.346   4.475   6.232 -0.1364 -0.1493 -0.1156
 1073YOPC   GL214350   5.198   4.708   6.409 -0.0866 -0.2236  0.0388
 1073YOPC   C1A14351   5.640   4.565   6.602  0.2016 -0.0583  0.0401
 1073YOPC   D2A14352   5.691   4.690   7.092 -0.2207 -0.1319  0.1699
 1073YOPC   C3A14353   5.475   4.810   7.478  0.1130  0.4371 -0.1873
 1073YOPC   C4A14354   5.262   4.658   7.787 -0.3506 -0.3750 -0.0454
 1073YOPC   C1B14355   5.252   4.811   6.853 -0.0105  0.0603 -0.1180
 1073YOPC   C2B14356   5.393   5.105   7.050 -0.2036 -0.0205 -0.0092
 1073YOPC   D3B14357   5.703   5.188   7.275  0.4925 -0.0490  0.0247
 1073YOPC   C4B14358   5.681   5.165   7.781 -0.0694  0.1291  0.2032
 1074YOPC   NC314359  16.601   7.923   5.285 -0.1388 -0.2855  0.2359
 1074YOPC   PO414360  16.755   7.581   5.289  0.0534  0.1972  0.0477
 1074YOPC   GL114361  16.962   7.826   5.639 -0.2854  0.1892  0.0927
 1074YOPC   GL214362  16.926   7.513   5.769  0.2635  0.2071  0.0508
 1074YOPC   C1A14363  16.857   8.116   5.934  0.2844  0.1990 -0.3407
 1074YOPC   D2A14364  16.476   8.332   6.100  0.1914 -0.3544 -0.0726
 1074YOPC   C3A14365  16.124   8.289   6.495  0.0966  0.0960  0.2120
 1074YOPC   C4A14366  15.838   8.135   6.768 -0.2871 -0.1133  0.4153
 1074YOPC   C1B14367  16.737   7.644   6.101  0.0803 -0.0901 -0.1763
 1074YOPC   C2B14368  16.639   7.959   6.414  0.3677  0.0266  0.2482
 1074YOPC   D3B14369  16.301   7.905   6.744  0.0797 -0.1563 -0.2194
 1074YOPC   C4B14370  16.069   7.818   7.050 -0.0389 -0.0912  0.0384
 1075YOPC   NC314371   3.363   6.953   5.301 -0.0564 -0.1977 -0.0158
 1075YOPC   PO414372   3.764   7.186   5.462 -0.0386 -0.0221 -0.2786
 1075YOPC   GL114373   3.862   7.207   5.899  0.0609  0.1369 -0.4901
 1075YOPC   GL214374   4.134   7.156   6.090 -0.0109  0.0965  0.2051
 1075YOPC   C1A14375   3.533   7.075   6.222  0.1836 -0.1497 -0.0623
 1075YOPC   D2A14376   3.148   7.001   6.438 -0.0643  0.3511 -0.0192
 1075YOPC   C3A14377   3.076   7.057   6.841 -0.1929  0.3237 -0.0586
 1075YOPC   C4A14378   3.046   7.348   7.152 -0.1654  0.1488  0.0825
 1075YOPC   C1B14379   3.974   7.016   6.477  0.1721  0.0453  0.1104
 1075YOPC   C2B14380   3.727   6.923   6.854 -0.1479  0.2293 -0.1243
 1075YOPC   D3B14381   3.878   6.911   7.207  0.2470  0.0216 -0.0413
 1075YOPC   C4B14382   4.182   7.089   7.496  0.0635  0.1802  0.1905
 1076YOPC   NC314383   3.479   5.053   5.559 -0.1081  0.0266  0.2555
 1076YOPC   PO414384   3.290   4.799   5.726 -0.1544 -0.0176 -0.0427
 1076YOPC   GL114385   3.459   5.051   6.044 -0.0854  0.2434  0.2038
 1076YOPC   GL214386   3.272   5.106   6.259  0.3014  0.3175  0.1461
 1076YOPC   C1A14387   3.659   4.812   6.418 -0.1751  0.0563  0.2286
 1076YOPC   D2A14388   3.912   4.755   6.706 -0.1876  0.2860  0.0459
 1076YOPC   C3A14389   3.643   4.907   6.975 -0.0053 -0.3305  0.0656
 1076YOPC   C4A14390   3.536   5.348   7.079  0.2075 -0.0842  0.0918
 1076YOPC   C1B14391   3.185   5.167   6.719  0.0350  0.3332 -0.4324
 1076YOPC   C2B14392   3.097   5.064   7.134 -0.2119 -0.1455 -0.1958
 1076YOPC   D3B14393   3.412   5.024   7.484  0.2887  0.0558 -0.2985
 1076YOPC   C4B14394   3.645   4.916   7.807  0.1859  0.1438  0.0364
 1077YOPC   NC314395   5.283   0.606   6.085  0.0988 -0.1218 -0.0058
 1077YOPC   PO414396   5.525   0.394   6.383  0.1865  0.2665 -0.3750
 1077YOPC   GL114397   5.360   0.268   6.746  0.1545  0.0412 -0.1177
 1077YOPC   GL214398   5.159   0.063   6.686 -0.0444 -0.2002  0.0429
 1077YOPC   C1A14399   5.383   0.272   7.224  0.2464  0.0143  0.1887
 1077YOPC   D2A14400   5.720   0.147   7.440 -0.1481 -0.1245  0.1354
 1077YOPC   C3A14401   5.784   0.401   7.841 -0.1559  0.0281 -0.1303
 1077YOPC   C4A14402   5.884   0.194   8.337 -0.0111  0.1126  0.1761
 1077YOPC   C1B14403   4.914   0.123   6.999 -0.1347 -0.0884  0.1113
 1077YOPC   C2B14404   4.925   0.186   7.441  0.0893 -0.0629 -0.1442
 1077YOPC   D3B14405   5.215   0.069   7.710  0.1790  0.0112  0.0285
 1077YOPC   C4B14406   5.412   0.145   8.114  0.0211 -0.1383 -0.0156
 1078YOPC   NC314407   5.887   9.101   6.016 -0.2341  0.2325 -0.1248
 1078YOPC   PO414408   6.234   8.849   6.072  0.2294  0.2355  0.2135
 1078YOPC   GL114409   6.164   8.939   6.461  0.0986  0.2931 -0.0539
 1078YOPC   GL214410   6.044   9.212   6.524  0.1393 -0.2379  0.2081
 1078YOPC   C1A14411   6.251   8.675   6.877 -0.0450 -0.1394 -0.0966
 1078YOPC   D2A14412   6.221   8.340   7.009 -0.0772  0.1596  0.0256
 1078YOPC   C3A14413   5.825   8.155   7.051  0.2782 -0.1203 -0.3261
 1078YOPC   C4A14414   5.630   7.980   7.440 -0.1940 -0.2260 -0.0525
 1078YOPC   C1B14415   6.118   9.133   6.966  0.0392 -0.0696 -0.1325
 1078YOPC   C2B14416   6.323   9.067   7.381  0.1636  0.2826 -0.4679
 1078YOPC   D3B14417   6.401   9.272   7.790  0.1890  0.1823  0.2078
 1078YOPC   C4B14418   6.525   9.395   8.186 -0.3173  0.0715  0.0430
 1079YOPC   NC314419   7.870   4.623   5.936 -0.4009 -0.1381  0.2318
 1079YOPC   PO414420   8.293   4.765   6.142 -0.1348  0.1001 -0.0409
 1079YOPC   GL114421   8.483   4.859   6.484  0.3571  0.1614 -0.2015
 1079YOPC   GL214422   8.446   5.167   6.621 -0.0048 -0.3625  0.4884
 1079YOPC   C1A14423   8.644   4.838   6.928  0.1072 -0.1381 -0.0919
 1079YOPC   D2A14424   8.465   5.108   7.189  0.2418 -0.0345 -0.0700
 1079YOPC   C3A14425   8.561   5.054   7.634 -0.0132  0.1547 -0.0148
 1079YOPC   C4A14426   8.345   5.061   8.029 -0.2000  0.0493  0.0534
 1079YOPC   C1B14427   8.602   5.532   6.778  0.1094 -0.0428  0.1579
 1079YOPC   C2B14428   8.542   5.779   7.148  0.3213 -0.2577  0.1918
 1079YOPC   D3B14429   8.576   5.566   7.601 -0.0069 -0.1256 -0.2386
 1079YOPC   C4B14430   8.533   5.717   8.048 -0.3412  0.0912 -0.0700
 1080YOPC   NC314431   8.546   9.223   5.652 -0.1209  0.1574  0.0529
 1080YOPC   PO414432   8.447   9.573   5.847 -0.0640 -0.0555 -0.1382
 1080YOPC   GL114433   8.416   9.792   6.306  0.1874  0.0018 -0.2584
 1080YOPC   GL214434   8.772   9.769   6.453 -0.0044  0.0531 -0.0743
 1080YOPC   C1A14435   8.192   9.864   6.661  0.0484  0.2523  0.0917
 1080YOPC   D2A14436   7.982   9.592   6.955 -0.0900  0.3561  0.1000
 1080YOPC   C3A14437   7.806   9.521   7.282 -0.0743 -0.1534 -0.0022
 1080YOPC   C4A14438   7.349   9.547   7.361 -0.1704 -0.1523  0.1543
 1080YOPC   C1B14439   8.999   9.731   6.920 -0.2137  0.1885  0.1116
 1080YOPC   C2B14440   9.114   9.665   7.472 -0.0989 -0.0811 -0.0016
 1080YOPC   D3B14441   9.014   9.293   7.723  0.2628  0.2163 -0.1951
 1080YOPC   C4B14442   9.053   8.892   7.712 -0.2231 -0.1015 -0.2853
 1081YOPC   NC314443   3.451   8.422   5.653  0.0213  0.0411 -0.0696
 1081YOPC   PO414444   3.707   8.711   5.729 -0.0260 -0.1267 -0.2252
 1081YOPC   GL114445   3.762   8.452   6.049  0.1943 -0.1640 -0.0708
 1081YOPC   GL214446   4.021   8.243   6.170 -0.2745 -0.1071 -0.1569
 1081YOPC   C1A14447   3.963   8.610   6.563  0.1780  0.1365  0.1408
 1081YOPC   D2A14448   3.897   8.872   6.948 -0.0424 -0.1464  0.1881
 1081YOPC   C3A14449   3.527   8.791   7.165  0.0930  0.0113 -0.0230
 1081YOPC   C4A14450   3.465   8.730   7.561  0.2879  0.2112 -0.1440
 1081YOPC   C1B14451   3.829   8.132   6.603 -0.1092 -0.1739  0.0433
 1081YOPC   C2B14452   3.985   8.360   7.016  0.0221 -0.1663  0.1776
 1081YOPC   D3B14453   3.666   8.286   7.389  0.0766  0.1736  0.1509
 1081YOPC   C4B14454   3.430   8.167   7.602  0.2477 -0.4602 -0.0359
 1082YOPC   NC314455   9.368  13.520   5.821  0.1767 -0.1662  0.0774
 1082YOPC   PO414456   9.605  13.887   6.053 -0.0016 -0.0947  0.2305
 1082YOPC   GL114457   9.425  13.918   6.499 -0.0734 -0.0462  0.1394
 1082YOPC   GL214458   9.527  14.248   6.618  0.1261  0.3767  0.0924
 1082YOPC   C1A14459   9.450  13.927   6.954 -0.2250  0.0496 -0.0449
 1082YOPC   D2A14460   9.273  13.724   7.397  0.0170  0.3443 -0.0216
 1082YOPC   C3A14461   9.380  13.820   7.789 -0.1939  0.2878 -0.1100
 1082YOPC   C4A14462   9.522  13.804   8.222 -0.1476 -0.2299  0.1045
 1082YOPC   C1B14463   9.653  14.498   6.920 -0.0111 -0.1013 -0.2634
 1082YOPC   C2B14464  10.075  14.644   6.952  0.3196 -0.0212 -0.3174
 1082YOPC   D3B14465  10.115  14.936   7.337 -0.1903 -0.2666  0.1830
 1082YOPC   C4B14466   9.818  14.921   7.754  0.0818 -0.0634 -0.0435
 1083YOPC   NC314467  14.069  10.968   5.479  0.2374  0.0437  0.0051
 1083YOPC   PO414468  14.150  10.552   5.657  0.1975 -0.0083 -0.0576
 1083YOPC   GL114469  14.246  10.728   5.968 -0.3054 -0.1109 -0.2220
 1083YOPC   GL214470  14.237  11.112   5.948  0.4931  0.1873  0.1320
 1083YOPC   C1A14471  14.008  10.895   6.307 -0.0911  0.3574 -0.0495
 1083YOPC   D2A14472  13.816  10.737   6.724  0.1075  0.1085  0.2493
 1083YOPC   C3A14473  13.928  10.703   7.204 -0.3273 -0.1929 -0.3065
 1083YOPC   C4A14474  13.975  10.767   7.575  0.2780 -0.1757  0.4202
 1083YOPC   C1B14475  14.376  11.482   6.224 -0.0960  0.1326 -0.1329
 1083YOPC   C2B14476  14.549  11.628   6.676  0.1404  0.0908 -0.1685
 1083YOPC   D3B14477  14.465  11.561   7.070  0.3062  0.0005 -0.2870
 1083YOPC   C4B14478  14.387  11.714   7.443 -0.2336 -0.1332  0.1161
 1084YOPC   NC314479   4.924  17.219   6.289 -0.1200 -0.2398  0.3302
 1084YOPC   PO414480   4.780  16.867   6.345  0.1061 -0.0693 -0.3340
 1084YOPC   GL114481   4.480  16.700   6.589  0.2713  0.1558 -0.0143
 1084YOPC   GL214482   4.777  16.536   6.710  0.0438  0.1875 -0.1191
 1084YOPC   C1A14483   4.328  16.753   7.008  0.0576 -0.1512 -0.2551
 1084YOPC   D2A14484   4.436  16.673   7.375  0.1416 -0.0695 -0.0830
 1084YOPC   C3A14485   4.779  16.746   7.473  0.1271 -0.2301 -0.4024
 1084YOPC   C4A14486   5.113  16.513   7.476  0.3099  0.4784  0.0549
 1084YOPC   C1B14487   4.998  16.833   7.031  0.0125 -0.2710  0.0300
 1084YOPC   C2B14488   5.289  17.122   7.092  0.0362  0.0343 -0.1247
 1084YOPC   D3B14489   5.756  17.228   6.996 -0.1194 -0.0266  0.0500
 1084YOPC   C4B14490   6.158  17.112   6.990  0.0179 -0.4709 -0.0398
 1085YOPC   NC314491   4.349   5.294   5.889 -0.2032 -0.0567  0.1789
 1085YOPC   PO414492   4.453   4.962   5.757  0.1497  0.1770 -0.1392
 1085YOPC   GL114493   4.285   4.700   6.019 -0.0945  0.2337  0.0897
 1085YOPC   GL214494   4.007   4.433   6.108  0.1912 -0.0003 -0.0184
 1085YOPC   C1A14495   4.320   4.447   6.484  0.3209  0.2462 -0.1210
 1085YOPC   D2A14496   4.425   4.005   6.528 -0.3105  0.0191 -0.3329
 1085YOPC   C3A14497   4.667   4.087   6.879  0.0212 -0.1149  0.0172
 1085YOPC   C4A14498   4.864   4.036   7.318 -0.2151  0.3388  0.1204
 1085YOPC   C1B14499   3.947   4.158   6.348 -0.0357 -0.0031 -0.4335
 1085YOPC   C2B14500   4.056   4.095   6.814 -0.1171  0.0385 -0.2630
 1085YOPC   D3B14501   4.199   3.844   6.998  0.0105 -0.2255 -0.0572
 1085YOPC   C4B14502   4.414   3.790   7.346 -0.0767  0.0136 -0.0754
 1086YOPC   NC314503  12.283  13.694   5.958 -0.0501 -0.3053 -0.1220
 1086YOPC   PO414504  12.185  13.412   6.259 -0.1154  0.0811  0.1490
 1086YOPC   GL114505  12.089  13.511   6.698 -0.2489  0.1638  0.0583
 1086YOPC   GL214506  11.816  13.669   6.684 -0.0751 -0.1332 -0.0044
 1086YOPC   C1A14507  12.108  13.220   7.037  0.0893  0.0380  0.2704
 1086YOPC   D2A14508  12.323  12.872   7.296  0.2751  0.0971 -0.0393
 1086YOPC   C3A14509  12.572  12.717   7.677  0.1826  0.0414  0.0094
 1086YOPC   C4A14510  12.804  12.532   7.980  0.1274 -0.1476  0.2294
 1086YOPC   C1B14511  11.922  13.675   7.131  0.0155  0.2485  0.0066
 1086YOPC   C2B14512  12.100  13.758   7.551 -0.0158 -0.0352 -0.2823
 1086YOPC   D3B14513  12.548  13.793   7.557 -0.3326 -0.5646 -0.0793
 1086YOPC   C4B14514  12.881  13.953   7.667 -0.0227  0.1360  0.1099
 1087YOPC   NC314515  13.342   5.017   5.810  0.1254  0.1496  0.1065
 1087YOPC   PO414516  13.027   4.764   5.952  0.1455 -0.0926  0.3008
 1087YOPC   GL114517  13.122   5.084   6.269 -0.3789  0.2439  0.0327
 1087YOPC   GL214518  13.415   5.211   6.268  0.0653 -0.2031  0.1207
 1087YOPC   C1A14519  12.958   4.955   6.621 -0.3380  0.0266 -0.0978
 1087YOPC   D2A14520  13.150   4.897   7.069 -0.1237 -0.0043 -0.2303
 1087YOPC   C3A14521  13.113   4.624   7.303 -0.0230  0.1178  0.0154
 1087YOPC   C4A14522  13.243   4.684   7.693  0.3988 -0.0917 -0.1723
 1087YOPC   C1B14523  13.465   5.096   6.655  0.0353  0.0717 -0.0233
 1087YOPC   C2B14524  13.593   5.044   7.206 -0.0075  0.0236 -0.2404
 1087YOPC   D3B14525  13.629   4.646   7.355  0.1385  0.1973 -0.2773
 1087YOPC   C4B14526  13.739   4.507   7.750  0.0261  0.2239 -0.0353
 1088YOPC   NC314527   9.289   5.084   6.122  0.1136 -0.1590  0.1976
 1088YOPC   PO414528   9.191   4.738   6.145  0.0051 -0.0818 -0.0445
 1088YOPC   GL114529   8.947   4.701   6.557 -0.0785  0.0522 -0.3451
 1088YOPC   GL214530   8.944   4.366   6.585 -0.2028  0.0411 -0.0855
 1088YOPC   C1A14531   9.059   4.611   7.052  0.0262  0.1203 -0.1297
 1088YOPC   D2A14532   9.278   4.543   7.423  0.0042 -0.0966 -0.0092
 1088YOPC   C3A14533   9.211   4.709   7.868  0.2681 -0.1516 -0.1328
 1088YOPC   C4A14534   9.392   4.734   8.220 -0.0446 -0.0686  0.1903
 1088YOPC   C1B14535   8.573   4.324   6.948  0.3077 -0.0107  0.0884
 1088YOPC   C2B14536   8.548   4.131   7.355 -0.1252  0.1367 -0.0910
 1088YOPC   D3B14537   8.545   4.255   7.781  0.0035 -0.0278  0.0758
 1088YOPC   C4B14538   8.835   4.149   7.965  0.1562  0.1903  0.2896
 1089YOPC   NC314539  10.355  16.504   6.394 -0.1378  0.1438  0.0307
 1089YOPC   PO414540  10.660  16.216   6.286 -0.0994 -0.1611  0.1113
 1089YOPC   GL114541  10.472  15.973   6.548  0.1543 -0.2166 -0.2074
 1089YOPC   GL214542  10.072  16.090   6.491 -0.0537  0.0724 -0.0997
 1089YOPC   C1A14543  10.464  15.764   6.981 -0.1147 -0.0201 -0.2050
 1089YOPC   D2A14544  10.407  15.849   7.388  0.0214  0.1004  0.0924
 1089YOPC   C3A14545  10.109  16.049   7.672  0.0362 -0.0438  0.2959
 1089YOPC   C4A14546  10.169  16.166   8.073  0.0585  0.0803 -0.1203
 1089YOPC   C1B14547  10.272  16.224   6.887  0.1012  0.2480  0.0127
 1089YOPC   C2B14548  10.113  16.322   7.231  0.0084 -0.0261 -0.2797
 1089YOPC   D3B14549  10.005  16.598   7.624 -0.3217  0.1799  0.1054
 1089YOPC   C4B14550   9.819  16.566   7.917  0.0425  0.0864 -0.2470
 1090YOPC   NC314551   5.994  16.160   6.619 -0.0848 -0.2404 -0.0880
 1090YOPC   PO414552   6.460  16.347   6.523 -0.0997  0.2044 -0.1522
 1090YOPC   GL114553   6.273  16.623   6.879 -0.0201  0.0138  0.1434
 1090YOPC   GL214554   6.187  16.447   7.104 -0.1592 -0.1939  0.2400
 1090YOPC   C1A14555   6.439  16.817   7.245  0.5119 -0.5367 -0.0658
 1090YOPC   D2A14556   6.769  17.047   7.654  0.1251 -0.0729 -0.0079
 1090YOPC   C3A14557   6.689  17.400   7.837 -0.1558  0.2122  0.2310
 1090YOPC   C4A14558   6.920  17.439   8.184  0.0861 -0.0178 -0.0830
 1090YOPC   C1B14559   6.255  16.449   7.564  0.0738  0.1022 -0.2354
 1090YOPC   C2B14560   6.326  16.510   7.948  0.1172 -0.1730 -0.0660
 1090YOPC   D3B14561   5.990  16.669   8.244 -0.0335 -0.1173 -0.2294
 1090YOPC   C4B14562   5.675  16.989   8.385 -0.1960  0.0406  0.2739
 1091YOPC   NC314563   2.021  11.381   5.717 -0.0091 -0.3331  0.1156
 1091YOPC   PO414564   1.861  11.726   5.745  0.2769 -0.0956  0.1904
 1091YOPC   GL114565   1.894  11.744   6.134 -0.2198 -0.4593  0.1214
 1091YOPC   GL214566   2.276  11.619   6.154  0.1188  0.0771 -0.1360
 1091YOPC   C1A14567   1.891  11.460   6.579 -0.0816  0.2128 -0.1232
 1091YOPC   D2A14568   1.958  11.413   6.948  0.0107 -0.0701 -0.1159
 1091YOPC   C3A14569   2.321  11.226   7.169  0.1420  0.3549  0.1503
 1091YOPC   C4A14570   2.642  10.880   7.143 -0.2008 -0.0779 -0.1888
 1091YOPC   C1B14571   2.226  11.894   6.455 -0.4530  0.0947 -0.3588
 1091YOPC   C2B14572   1.993  11.901   6.821  0.2060  0.0602 -0.1074
 1091YOPC   D3B14573   1.881  11.744   7.321 -0.1388 -0.0155  0.1782
 1091YOPC   C4B14574   1.796  11.751   7.713 -0.0408  0.2152 -0.0828
 1092YOPC   NC314575  16.207  17.146   6.221 -0.1184 -0.0466  0.1305
 1092YOPC   PO414576  16.156  17.537   6.313  0.1112 -0.3057  0.0612
 1092YOPC   GL114577  16.195  17.789   6.694 -0.0192  0.0297  0.3505
 1092YOPC   GL214578  15.861  17.831   6.720 -0.1175  0.2179 -0.2419
 1092YOPC   C1A14579  16.531  17.794   6.953 -0.2505 -0.0636  0.1410
 1092YOPC   D2A14580  16.683  17.782   7.351 -0.2365  0.2724  0.1413
 1092YOPC   C3A14581  16.446  17.454   7.583  0.0449  0.3427  0.0640
 1092YOPC   C4A14582  16.433  17.449   8.046 -0.0585  0.1372  0.2260
 1092YOPC   C1B14583  15.512  17.850   7.093  0.1960 -0.0099 -0.2999
 1092YOPC   C2B14584  15.243  18.093   7.259 -0.1198  0.1768 -0.2104
 1092YOPC   D3B14585  15.230  18.328   7.628  0.2405  0.2306 -0.0202
 1092YOPC   C4B14586  14.934  18.545   7.897  0.0022 -0.1009  0.0240
 1093YOPC   NC314587  16.893  10.570   5.508  0.0080 -0.1951  0.1868
 1093YOPC   PO414588  16.910  11.016   5.507  0.0907  0.2205 -0.1447
 1093YOPC   GL114589  16.614  10.882   5.806  0.0826 -0.0063  0.0894
 1093YOPC   GL214590  16.615  10.525   5.933 -0.1298  0.0427  0.0679
 1093YOPC   C1A14591  16.426  10.836   6.268 -0.2903  0.2370 -0.0542
 1093YOPC   D2A14592  16.291  10.796   6.655 -0.0691  0.3444  0.0099
 1093YOPC   C3A14593  16.238  10.611   7.047 -0.1431 -0.0834  0.0444
 1093YOPC   C4A14594  16.407  10.613   7.457  0.0207  0.1289  0.0356
 1093YOPC   C1B14595  16.559  10.111   6.235  0.0457  0.1079  0.0190
 1093YOPC   C2B14596  16.605   9.675   6.249  0.2474 -0.1061 -0.1235
 1093YOPC   D3B14597  16.231   9.286   6.297 -0.1824 -0.2953  0.0816
 1093YOPC   C4B14598  16.034   9.150   6.636  0.3651  0.2017  0.1001
 1094YOPC   NC314599  15.107  14.543   6.446  0.2899 -0.1100 -0.0995
 1094YOPC   PO414600  15.125  14.917   6.515 -0.1128  0.1368  0.0335
 1094YOPC   GL114601  15.280  15.174   6.812 -0.0340  0.2640 -0.1970
 1094YOPC   GL214602  14.984  15.203   7.002 -0.1123 -0.1109 -0.1222
 1094YOPC   C1A14603  15.421  14.954   7.132 -0.0561  0.0437  0.2085
 1094YOPC   D2A14604  15.531  14.568   7.322  0.1130 -0.0394 -0.0682
 1094YOPC   C3A14605  15.649  14.243   7.092  0.3627  0.2271  0.0399
 1094YOPC   C4A14606  15.628  13.890   6.802  0.1550  0.0642 -0.1364
 1094YOPC   C1B14607  14.869  15.296   7.373 -0.2194 -0.2184  0.0315
 1094YOPC   C2B14608  14.900  15.776   7.469  0.0801 -0.0747 -0.6410
 1094YOPC   D3B14609  14.600  15.941   7.780 -0.1322 -0.3976 -0.0655
 1094YOPC   C4B14610  14.732  16.074   8.100  0.1743 -0.0840 -0.2027
 1095YOPC   NC314611   5.686   5.851   6.025  0.2105 -0.1905  0.0338
 1095YOPC   PO414612   5.744   6.330   5.897  0.1055  0.2445 -0.0187
 1095YOPC   GL114613   5.960   6.194   6.282  0.1543  0.2367  0.1958
 1095YOPC   GL214614   5.828   6.063   6.469  0.3380  0.0160 -0.0607
 1095YOPC   C1A14615   6.288   6.257   6.714 -0.2377  0.2963 -0.2500
 1095YOPC   D2A14616   6.271   6.271   7.137 -0.4094  0.1058  0.1605
 1095YOPC   C3A14617   6.581   6.244   7.468  0.1235 -0.2173 -0.1445
 1095YOPC   C4A14618   6.646   6.157   7.856 -0.3088  0.4711  0.0087
 1095YOPC   C1B14619   5.768   6.073   6.891  0.0169  0.0465  0.3038
 1095YOPC   C2B14620   5.407   6.195   7.249 -0.3649 -0.1763 -0.1869
 1095YOPC   D3B14621   5.555   6.484   7.636 -0.0588  0.1842  0.1221
 1095YOPC   C4B14622   5.703   6.393   8.033 -0.0596  0.0686 -0.1462
 1096YOPC   NC314623   0.068   5.846   5.452 -0.1638 -0.3225 -0.1047
 1096YOPC   PO414624  -0.201   5.646   5.679 -0.0649  0.4460 -0.0545
 1096YOPC   GL114625  -0.516   5.722   5.912  0.0486 -0.0035 -0.1224
 1096YOPC   GL214626  -0.684   6.025   6.085  0.2943 -0.2248  0.1728
 1096YOPC   C1A14627  -0.802   5.545   6.231 -0.2144 -0.2298  0.0414
 1096YOPC   D2A14628  -1.013   5.365   6.515  0.0951 -0.1180  0.0729
 1096YOPC   C3A14629  -1.002   5.667   6.839 -0.1883  0.1955 -0.1063
 1096YOPC   C4A14630  -0.922   5.727   7.237 -0.1680 -0.0765 -0.1189
 1096YOPC   C1B14631  -0.649   5.912   6.573 -0.0846  0.0148  0.0121
 1096YOPC   C2B14632  -0.690   6.137   7.038  0.2234 -0.0360  0.3712
 1096YOPC   D3B14633  -0.389   6.014   7.403 -0.3063  0.0050 -0.0326
 1096YOPC   C4B14634  -0.156   5.644   7.700  0.2409  0.1375 -0.0149
 1097YOPC   NC314635  10.650   3.337   5.926 -0.1666 -0.1335  0.3133
 1097YOPC   PO414636  10.267   3.131   5.961  0.0035  0.0763 -0.0660
 1097YOPC   GL114637  10.383   3.411   6.339  0.1479 -0.2020 -0.0974
 1097YOPC   GL214638  10.158   3.518   6.456 -0.2092 -0.0322 -0.0140
 1097YOPC   C1A14639  10.692   3.505   6.640  0.0856  0.0904 -0.0256
 1097YOPC   D2A14640  10.871   3.881   6.855 -0.3843 -0.3688 -0.2221
 1097YOPC   C3A14641  10.760   4.293   6.681 -0.2225  0.1545  0.1064
 1097YOPC   C4A14642  10.981   4.591   6.544  0.1514 -0.1879  0.2510
 1097YOPC   C1B14643   9.864   3.182   6.768 -0.0919  0.0223 -0.0063
 1097YOPC   C2B14644   9.714   3.170   7.174  0.1540 -0.0707  0.0732
 1097YOPC   D3B14645   9.956   3.469   7.293  0.1063 -0.3572 -0.0174
 1097YOPC   C4B14646   9.948   3.816   7.599 -0.1004 -0.0326  0.1055
 1098YOPC   NC314647   4.289  16.146   6.263 -0.0661 -0.0560 -0.1717
 1098YOPC   PO414648   3.943  16.442   6.289 -0.2814 -0.0797  0.2279
 1098YOPC   GL114649   3.788  16.446   6.615 -0.2680 -0.2193 -0.2095
 1098YOPC   GL214650   3.849  16.654   6.805 -0.0408  0.2139 -0.1248
 1098YOPC   C1A14651   3.405  16.456   6.946 -0.1740  0.0814  0.0803
 1098YOPC   D2A14652   3.021  16.456   7.065  0.1185  0.0432 -0.1983
 1098YOPC   C3A14653   2.960  16.378   7.502 -0.1016 -0.0944  0.1468
 1098YOPC   C4A14654   2.620  16.456   7.776 -0.2551  0.0527  0.2273
 1098YOPC   C1B14655   3.849  16.568   7.199  0.0740  0.0960  0.2032
 1098YOPC   C2B14656   3.979  16.657   7.623 -0.1421 -0.0830  0.4053
 1098YOPC   D3B14657   3.686  16.795   8.022  0.0751  0.0582  0.0976
 1098YOPC   C4B14658   3.538  17.155   8.334  0.1159 -0.1420 -0.0117
 1099YOPC   NC314659   5.559  10.354   5.681  0.0612  0.0200  0.1201
 1099YOPC   PO414660   5.480  10.749   5.757 -0.1049 -0.0098  0.0156
 1099YOPC   GL114661   5.407  10.962   6.162 -0.2048  0.2007  0.3022
 1099YOPC   GL214662   5.452  10.716   6.414  0.2771  0.2678  0.0458
 1099YOPC   C1A14663   5.241  11.148   6.494  0.1246  0.0914 -0.0105
 1099YOPC   D2A14664   5.153  11.347   6.889  0.1765 -0.4456 -0.2968
 1099YOPC   C3A14665   4.986  11.359   7.377 -0.1572  0.0339 -0.1084
 1099YOPC   C4A14666   5.049  11.207   7.772  0.1038 -0.0392  0.2994
 1099YOPC   C1B14667   5.326  10.695   6.829 -0.0223 -0.2343 -0.1004
 1099YOPC   C2B14668   5.305  10.920   7.299 -0.0857  0.0966 -0.0432
 1099YOPC   D3B14669   5.067  10.729   7.612  0.2956 -0.0020 -0.0088
 1099YOPC   C4B14670   5.114  10.733   8.045  0.2182 -0.2532 -0.0903
 1100YOPC   NC314671   3.516   2.088   6.044  0.1181  0.2467 -0.0757
 1100YOPC   PO414672   3.105   2.217   5.950  0.1538 -0.0940 -0.1902
 1100YOPC   GL114673   3.041   2.436   6.288  0.1836 -0.1220  0.1465
 1100YOPC   GL214674   2.809   2.242   6.332  0.1190 -0.0403  0.0248
 1100YOPC   C1A14675   3.207   2.791   6.560  0.3328 -0.3129  0.3051
 1100YOPC   D2A14676   3.334   2.818   7.074  0.0657  0.0703 -0.0651
 1100YOPC   C3A14677   3.564   2.661   7.348 -0.3678  0.0867  0.1114
 1100YOPC   C4A14678   3.937   2.633   7.604 -0.0024  0.1459  0.2564
 1100YOPC   C1B14679   2.920   1.951   6.680  0.0354  0.1622  0.1458
 1100YOPC   C2B14680   2.869   2.075   7.224 -0.0339  0.2221  0.1831
 1100YOPC   D3B14681   2.510   2.000   7.544 -0.1289 -0.1067  0.0384
 1100YOPC   C4B14682   2.308   2.108   7.859  0.1492 -0.0841 -0.1397
 1101YOPC   NC314683   3.693  14.194   5.979 -0.1752  0.4128  0.1042
 1101YOPC   PO414684   3.471  14.295   6.282 -0.0821 -0.4304 -0.2040
 1101YOPC   GL114685   3.301  14.214   6.697 -0.1896 -0.2501  0.0750
 1101YOPC   GL214686   3.222  14.482   6.902 -0.0209 -0.1020 -0.1981
 1101YOPC   C1A14687   3.472  14.187   7.228  0.1104 -0.1036  0.0982
 1101YOPC   D2A14688   3.453  14.145   7.642  0.2398  0.2595 -0.1138
 1101YOPC   C3A14689   3.697  14.019   7.979 -0.1624 -0.1513 -0.4269
 1101YOPC   C4A14690   3.754  13.751   8.300  0.1683  0.0772  0.0155
 1101YOPC   C1B14691   3.153  14.614   7.340  0.0656  0.0420  0.2576
 1101YOPC   C2B14692   3.102  14.641   7.763  0.0134  0.0598  0.1245
 1101YOPC   D3B14693   3.262  14.674   8.238 -0.2256 -0.2916 -0.0934
 1101YOPC   C4B14694   3.373  14.638   8.682  0.1504 -0.1142  0.0559
 1102YOPC   NC314695   0.884  14.787   6.179 -0.0193  0.2562 -0.3883
 1102YOPC   PO414696   0.627  14.485   6.197  0.1573  0.2736 -0.0246
 1102YOPC   GL114697   0.483  14.418   6.617  0.0747  0.1303  0.2998
 1102YOPC   GL214698   0.484  14.264   6.846 -0.1795 -0.1720 -0.1962
 1102YOPC   C1A14699   0.257  14.706   7.038  0.0416  0.1877 -0.1256
 1102YOPC   D2A14700   0.010  14.710   7.357 -0.2387 -0.0337  0.1836
 1102YOPC   C3A14701  -0.283  14.520   7.607  0.0999 -0.0594  0.1924
 1102YOPC   C4A14702  -0.242  14.219   7.858  0.0405 -0.0791 -0.0322
 1102YOPC   C1B14703   0.511  14.302   7.291 -0.2703 -0.1732 -0.0769
 1102YOPC   C2B14704   0.639  14.235   7.746  0.0321 -0.0082  0.0400
 1102YOPC   D3B14705   0.674  13.916   8.127 -0.2209  0.0538  0.1129
 1102YOPC   C4B14706   0.406  13.814   8.391  0.0947  0.1091 -0.0232
 1103YOPC   NC314707  13.420  15.548   6.411  0.0547 -0.0432 -0.1780
 1103YOPC   PO414708  13.814  15.683   6.614  0.1146 -0.0340  0.1429
 1103YOPC   GL114709  13.614  15.653   6.881  0.2618 -0.0618 -0.1516
 1103YOPC   GL214710  13.565  16.042   6.923 -0.0643 -0.0939 -0.0348
 1103YOPC   C1A14711  13.652  15.545   7.314  0.1063  0.0453  0.2439
 1103YOPC   D2A14712  13.315  15.558   7.597  0.2942  0.3233  0.0425
 1103YOPC   C3A14713  13.542  15.410   7.901 -0.3751  0.0405 -0.1586
 1103YOPC   C4A14714  13.915  15.259   7.947  0.2792  0.1809 -0.1212
 1103YOPC   C1B14715  13.325  15.952   7.318  0.0842  0.1459  0.0412
 1103YOPC   C2B14716  12.910  15.930   7.480 -0.3754  0.2226 -0.0401
 1103YOPC   D3B14717  12.887  15.689   7.875 -0.0242  0.1431 -0.0482
 1103YOPC   C4B14718  13.074  15.476   8.188  0.1045  0.0468  0.2136
 1104YOPC   NC314719  13.176  13.782   5.945  0.0197 -0.2098 -0.1020
 1104YOPC   PO414720  13.268  14.056   6.307  0.1816 -0.4720 -0.1836
 1104YOPC   GL114721  13.303  13.895   6.709 -0.2255 -0.0456 -0.2884
 1104YOPC   GL214722  13.100  13.668   6.873  0.0999 -0.1209  0.4643
 1104YOPC   C1A14723  13.386  14.071   7.028  0.2901 -0.1393 -0.0725
 1104YOPC   D2A14724  13.334  13.938   7.526 -0.1098 -0.0511  0.2426
 1104YOPC   C3A14725  13.707  13.909   7.775  0.1706 -0.2791 -0.3020
 1104YOPC   C4A14726  13.965  13.915   8.120  0.0738 -0.1944 -0.2315
 1104YOPC   C1B14727  13.000  13.610   7.245  0.0956  0.1201 -0.1638
 1104YOPC   C2B14728  12.901  13.380   7.613 -0.0217 -0.1165  0.0637
 1104YOPC   D3B14729  12.927  13.584   8.002  0.1266 -0.1742  0.0317
 1104YOPC   C4B14730  13.260  13.899   8.082 -0.0465 -0.0034  0.1250
 1105YOPC   NC314731  10.864   2.037   6.448  0.0363 -0.2535 -0.1042
 1105YOPC   PO414732  11.274   2.129   6.311  0.0068 -0.1298  0.0390
 1105YOPC   GL114733  11.249   2.312   6.698 -0.1059 -0.1053  0.1357
 1105YOPC   GL214734  11.503   2.455   6.766 -0.2887 -0.4356  0.2205
 1105YOPC   C1A14735  11.163   2.807   6.799 -0.1922 -0.2587 -0.2171
 1105YOPC   D2A14736  11.417   3.109   6.714 -0.1058 -0.2145 -0.1440
 1105YOPC   C3A14737  11.265   3.520   6.748  0.1982  0.0676  0.4691
 1105YOPC   C4A14738  11.288   3.774   7.087  0.6079 -0.1397 -0.2475
 1105YOPC   C1B14739  11.663   2.614   7.209  0.0176 -0.1924 -0.3489
 1105YOPC   C2B14740  11.680   2.965   7.528  0.0043 -0.2433 -0.1318
 1105YOPC   D3B14741  11.520   3.262   7.900  0.0007  0.1434  0.0785
 1105YOPC   C4B14742  11.660   3.703   7.928  0.1009 -0.3345  0.1158
 1106YOPC   NC314743   4.999  15.884   5.734  0.1186  0.0591 -0.0820
 1106YOPC   PO414744   4.730  15.872   6.133  0.1333 -0.0682  0.0775
 1106YOPC   GL114745   4.489  15.694   6.547  0.0153 -0.2500 -0.1818
 1106YOPC   GL214746   4.685  15.477   6.710  0.0251  0.1613 -0.1524
 1106YOPC   C1A14747   4.513  15.865   6.983 -0.0041  0.0386  0.0545
 1106YOPC   D2A14748   4.750  16.230   7.146  0.0092  0.0001 -0.0823
 1106YOPC   C3A14749   4.706  16.291   7.642  0.1580 -0.2199  0.0439
 1106YOPC   C4A14750   4.480  16.560   7.887  0.2288 -0.0432  0.0968
 1106YOPC   C1B14751   4.783  15.403   7.133 -0.0773  0.3019 -0.0900
 1106YOPC   C2B14752   5.063  15.308   7.484  0.2538  0.0199 -0.1995
 1106YOPC   D3B14753   5.164  15.496   7.866 -0.1226  0.0895 -0.0541
 1106YOPC   C4B14754   5.255  15.370   8.155  0.0944  0.1852  0.3020
 1107YOPC   NC314755   3.007   5.721   5.455  0.1009  0.0139 -0.0009
 1107YOPC   PO414756   3.363   6.044   5.617 -0.1418 -0.1640 -0.0344
 1107YOPC   GL114757   3.151   5.798   5.946  0.1801  0.0717 -0.0523
 1107YOPC   GL214758   3.525   5.613   6.053 -0.2616 -0.1510  0.1228
 1107YOPC   C1A14759   3.024   5.557   6.257 -0.4321 -0.3120  0.1087
 1107YOPC   D2A14760   2.816   5.163   6.365 -0.1332 -0.0731  0.1826
 1107YOPC   C3A14761   2.710   5.046   6.765 -0.1337 -0.0075 -0.0414
 1107YOPC   C4A14762   2.609   5.174   7.173 -0.0326  0.0781 -0.0111
 1107YOPC   C1B14763   3.526   5.718   6.423 -0.0696  0.0096 -0.1209
 1107YOPC   C2B14764   3.211   5.697   6.760 -0.1982 -0.1505 -0.0609
 1107YOPC   D3B14765   3.203   5.709   7.222 -0.0193 -0.1336  0.0247
 1107YOPC   C4B14766   3.135   5.471   7.551  0.0359  0.4154  0.0458
 1108YOPC   NC314767  13.395   2.436   5.540  0.0133  0.0869 -0.1555
 1108YOPC   PO414768  13.056   2.541   5.812  0.0315 -0.0202  0.0852
 1108YOPC   GL114769  13.033   2.703   6.233  0.1270 -0.4348  0.2632
 1108YOPC   GL214770  13.067   2.968   6.188 -0.0458  0.1639 -0.0271
 1108YOPC   C1A14771  13.095   2.550   6.709 -0.3486  0.0435  0.2041
 1108YOPC   D2A14772  13.180   2.432   7.158  0.0294  0.1254 -0.4405
 1108YOPC   C3A14773  13.144   2.758   7.512  0.1120  0.2827  0.1487
 1108YOPC   C4A14774  12.906   2.991   7.734 -0.1782 -0.0369  0.1067
 1108YOPC   C1B14775  12.928   3.056   6.633  0.0999  0.0933  0.0865
 1108YOPC   C2B14776  13.198   2.995   7.046 -0.0044  0.1170  0.0566
 1108YOPC   D3B14777  13.128   3.271   7.376  0.1109 -0.2680 -0.0707
 1108YOPC   C4B14778  13.291   3.460   7.789 -0.0392  0.0917  0.0965
 1109YOPC   NC314779   2.430  14.621   6.248  0.1350 -0.0293  0.0195
 1109YOPC   PO414780   2.180  15.099   6.320 -0.0499  0.0569 -0.0785
 1109YOPC   GL114781   2.116  14.934   6.699 -0.2460  0.1393 -0.1451
 1109YOPC   GL214782   1.828  14.934   6.855  0.1204  0.1202  0.1592
 1109YOPC   C1A14783   2.372  14.777   6.948  0.2470  0.0247 -0.1988
 1109YOPC   D2A14784   2.735  14.461   6.997  0.1992 -0.0040 -0.1331
 1109YOPC   C3A14785   2.771  14.166   7.246 -0.2354 -0.1254  0.0249
 1109YOPC   C4A14786   2.686  14.265   7.694 -0.0813  0.0627  0.2237
 1109YOPC   C1B14787   1.995  14.765   7.243  0.0092 -0.0202  0.1578
 1109YOPC   C2B14788   2.154  14.878   7.729 -0.1178  0.0627 -0.0083
 1109YOPC   D3B14789   1.997  14.935   8.112 -0.1102  0.0169  0.3146
 1109YOPC   C4B14790   1.940  14.870   8.504 -0.2160  0.3362 -0.2534
 1110YOPC   NC314791   7.232   1.461   6.033 -0.0979 -0.1739  0.2049
 1110YOPC   PO414792   6.816   1.611   6.119 -0.2018  0.0080  0.1801
 1110YOPC   GL114793   6.674   1.920   6.508  0.1672 -0.0809  0.2781
 1110YOPC   GL214794   6.384   1.920   6.577  0.1104 -0.1978 -0.1495
 1110YOPC   C1A14795   6.705   2.334   6.697 -0.0958  0.1151  0.3593
 1110YOPC   D2A14796   6.408   2.517   6.942 -0.3454  0.2718 -0.0638
 1110YOPC   C3A14797   6.486   2.649   7.336  0.1662  0.1099 -0.1011
 1110YOPC   C4A14798   6.605   2.709   7.777  0.0338  0.1373 -0.2550
 1110YOPC   C1B14799   6.459   2.028   7.031  0.0979  0.0118 -0.1360
 1110YOPC   C2B14800   6.510   2.143   7.462 -0.1346  0.1477 -0.0789
 1110YOPC   D3B14801   6.229   2.056   7.726 -0.0575 -0.0482 -0.2329
 1110YOPC   C4B14802   5.976   1.780   8.029 -0.1123  0.2839  0.3005
 1111YOPC   NC314803  11.720   0.049   6.049 -0.1921  0.1285  0.1116
 1111YOPC   PO414804  11.422  -0.091   6.308  0.1445 -0.1426 -0.0483
 1111YOPC   GL114805  11.326  -0.194   6.796  0.1111  0.1358 -0.2482
 1111YOPC   GL214806  11.577  -0.386   6.893  0.2795  0.2864 -0.1166
 1111YOPC   C1A14807  11.397  -0.215   7.326 -0.0829  0.2023 -0.0837
 1111YOPC   D2A14808  11.375  -0.279   7.749 -0.0432 -0.0460 -0.0279
 1111YOPC   C3A14809  11.507  -0.029   8.045 -0.1307  0.1562 -0.1269
 1111YOPC   C4A14810  11.695  -0.143   8.479 -0.2960 -0.0926  0.0341
 1111YOPC   C1B14811  11.882  -0.478   7.229 -0.0584 -0.1036  0.1195
 1111YOPC   C2B14812  11.732  -0.656   7.563  0.0731  0.0724 -0.0372
 1111YOPC   D3B14813  11.832  -0.435   7.927 -0.2487  0.3228 -0.0080
 1111YOPC   C4B14814  12.160  -0.361   8.174 -0.0927  0.0989 -0.3110
 1112YOPC   NC314815   0.300   0.510   5.728  0.1469  0.0141 -0.3802
 1112YOPC   PO414816  -0.006   0.790   5.805 -0.0909 -0.0791  0.2394
 1112YOPC   GL114817   0.156   0.848   6.242  0.4026  0.1609 -0.1454
 1112YOPC   GL214818   0.441   0.617   6.176  0.0304 -0.1876  0.1001
 1112YOPC   C1A14819   0.091   1.019   6.627  0.0076  0.2158  0.2672
 1112YOPC   D2A14820  -0.162   1.145   6.938 -0.0908  0.2422  0.1969
 1112YOPC   C3A14821   0.076   1.449   7.232 -0.1934 -0.2401 -0.0475
 1112YOPC   C4A14822   0.517   1.365   7.295 -0.1735  0.0998 -0.0304
 1112YOPC   C1B14823   0.507   0.698   6.572  0.0061 -0.0179  0.1496
 1112YOPC   C2B14824   0.556   0.536   6.936  0.1122  0.1610 -0.2293
 1112YOPC   D3B14825   0.880   0.090   7.092 -0.2306  0.0846  0.3112
 1112YOPC   C4B14826   1.185   0.146   7.386 -0.1998 -0.3519  0.1505
 1113YOPC   NC314827  15.481   2.969   5.603 -0.2033  0.0029  0.0922
 1113YOPC   PO414828  15.805   2.694   5.789  0.3300  0.1432  0.2862
 1113YOPC   GL114829  15.728   2.926   6.195 -0.0470 -0.2945 -0.1975
 1113YOPC   GL214830  15.994   3.085   6.361  0.0093  0.0300  0.1092
 1113YOPC   C1A14831  15.714   2.827   6.651 -0.0945  0.0780 -0.3702
 1113YOPC   D2A14832  15.855   3.006   7.029 -0.1390  0.1098 -0.0971
 1113YOPC   C3A14833  15.792   2.789   7.359 -0.0760  0.4173  0.1134
 1113YOPC   C4A14834  15.545   2.603   7.761 -0.1131  0.2434 -0.0757
 1113YOPC   C1B14835  16.148   3.297   6.720  0.0620  0.0664 -0.1152
 1113YOPC   C2B14836  16.312   3.281   7.140  0.2005  0.6389 -0.1688
 1113YOPC   D3B14837  16.039   3.320   7.451  0.3431 -0.0004 -0.0131
 1113YOPC   C4B14838  15.865   3.153   7.834  0.4502 -0.2617  0.2534
 1114YOPC   NC314839   3.264   1.199   6.006 -0.2715 -0.0620 -0.1116
 1114YOPC   PO414840   3.073   0.817   5.885 -0.0695  0.1708 -0.1796
 1114YOPC   GL114841   2.991   0.902   6.357 -0.0832 -0.3513 -0.0350
 1114YOPC   GL214842   3.125   1.232   6.471 -0.0135 -0.1233  0.1266
 1114YOPC   C1A14843   2.961   0.925   6.879 -0.0956  0.1464 -0.0301
 1114YOPC   D2A14844   3.129   0.908   7.294 -0.2299 -0.4377  0.0471
 1114YOPC   C3A14845   3.073   1.325   7.455 -0.1902  0.0244  0.1887
 1114YOPC   C4A14846   3.167   1.389   7.879  0.0786  0.1201 -0.3164
 1114YOPC   C1B14847   3.154   1.411   6.961 -0.0731 -0.4330  0.0407
 1114YOPC   C2B14848   3.318   1.742   7.222  0.1010  0.0030  0.0836
 1114YOPC   D3B14849   3.000   1.754   7.606 -0.0637 -0.2784 -0.4675
 1114YOPC   C4B14850   2.933   1.911   8.047  0.1118 -0.0438 -0.0286
 1115YOPC   NC314851  16.971  16.759   6.379  0.1542  0.2001 -0.0632
 1115YOPC   PO414852  16.666  17.017   6.334  0.6032 -0.1625 -0.0886
 1115YOPC   GL114853  16.472  17.194   6.688  0.1108 -0.2605  0.3028
 1115YOPC   GL214854  16.107  17.198   6.708  0.5018  0.0788  0.1352
 1115YOPC   C1A14855  16.562  17.326   7.076 -0.2660 -0.2295 -0.0199
 1115YOPC   D2A14856  16.998  17.465   7.140  0.0440 -0.1594  0.0136
 1115YOPC   C3A14857  17.184  17.560   7.594  0.1229  0.1223 -0.1358
 1115YOPC   C4A14858  16.884  17.618   7.944 -0.3410  0.3601  0.0737
 1115YOPC   C1B14859  16.088  17.450   7.056 -0.0371 -0.0593  0.0138
 1115YOPC   C2B14860  16.032  17.800   7.413  0.0668  0.0825  0.1219
 1115YOPC   D3B14861  15.948  17.610   7.790  0.0749 -0.1525  0.1237
 1115YOPC   C4B14862  15.811  17.474   8.183  0.1439 -0.0544  0.0765
 1116YOPC   NC314863   5.250   8.513   5.879  0.0515 -0.0935  0.1607
 1116YOPC   PO414864   5.597   8.727   5.975  0.0219  0.0065  0.1809
 1116YOPC   GL114865   5.741   8.686   6.306  0.4322  0.3622  0.0907
 1116YOPC   GL214866   5.563   8.961   6.373  0.0789 -0.0514 -0.1831
 1116YOPC   C1A14867   5.812   8.732   6.759  0.0435 -0.1064 -0.2333
 1116YOPC   D2A14868   5.904   8.691   7.270 -0.5102 -0.0502 -0.1161
 1116YOPC   C3A14869   5.627   8.665   7.671  0.0372  0.4614 -0.3297
 1116YOPC   C4A14870   5.205   8.763   7.983  0.1021 -0.0985  0.0385
 1116YOPC   C1B14871   5.621   9.166   6.818 -0.1786  0.0812  0.2803
 1116YOPC   C2B14872   5.603   9.064   7.285  0.1801 -0.0639  0.0779
 1116YOPC   D3B14873   5.916   9.082   7.600  0.2148  0.3604  0.1297
 1116YOPC   C4B14874   6.128   8.785   7.759 -0.4097 -0.0437  0.1933
 1117YOPC   NC314875   0.000  15.154   6.231  0.0584  0.0740  0.2965
 1117YOPC   PO414876   0.116  15.226   6.615  0.0644 -0.1389 -0.0241
 1117YOPC   GL114877   0.192  15.369   7.063  0.0390  0.0549 -0.1697
 1117YOPC   GL214878   0.033  15.207   7.350  0.1651 -0.0157  0.1131
 1117YOPC   C1A14879   0.518  15.309   7.440  0.1540 -0.2881  0.0620
 1117YOPC   D2A14880   0.819  15.202   7.695  0.1292 -0.1108  0.2235
 1117YOPC   C3A14881   0.670  15.384   8.069  0.2097 -0.2128  0.1822
 1117YOPC   C4A14882   0.757  15.698   8.413  0.0347  0.1054  0.0498
 1117YOPC   C1B14883   0.256  15.216   7.813  0.1542  0.1006  0.0467
 1117YOPC   C2B14884   0.535  14.915   8.030  0.1354  0.2732 -0.0504
 1117YOPC   D3B14885   0.369  14.827   8.461 -0.0876 -0.2190 -0.0676
 1117YOPC   C4B14886   0.436  14.931   8.884 -0.0695 -0.1688  0.0372
 1118YOPC   NC314887   1.228  11.920   6.042  0.0401  0.1048  0.0543
 1118YOPC   PO414888   1.000  11.693   5.737  0.2529 -0.0088  0.2534
 1118YOPC   GL114889   1.033  11.409   6.125  0.1826  0.1068 -0.0060
 1118YOPC   GL214890   0.717  11.370   6.176 -0.2425 -0.0242  0.1091
 1118YOPC   C1A14891   1.289  11.143   6.325 -0.3080  0.1099 -0.3235
 1118YOPC   D2A14892   1.538  10.759   6.285  0.1974 -0.0035 -0.0349
 1118YOPC   C3A14893   1.966  10.896   6.468 -0.1048 -0.0223 -0.1616
 1118YOPC   C4A14894   2.332  11.263   6.595 -0.0695  0.1007  0.0218
 1118YOPC   C1B14895   0.732  11.121   6.543  0.0174  0.1641 -0.1061
 1118YOPC   C2B14896   0.548  10.949   6.953 -0.0761  0.5067  0.0829
 1118YOPC   D3B14897   0.457  10.541   7.198 -0.1482 -0.1515  0.1236
 1118YOPC   C4B14898   0.628  10.242   7.480 -0.1432 -0.2026 -0.3980
 1119YOPC   NC314899   7.252   5.780   5.799 -0.2434 -0.2208  0.0704
 1119YOPC   PO414900   7.599   5.604   6.041 -0.1354 -0.2355 -0.0562
 1119YOPC   GL114901   7.567   5.465   6.458 -0.2672  0.3290  0.1966
 1119YOPC   GL214902   7.446   5.114   6.249  0.0663 -0.0932 -0.1520
 1119YOPC   C1A14903   7.598   5.522   6.859 -0.4089  0.0196 -0.1529
 1119YOPC   D2A14904   7.462   5.391   7.191 -0.1208  0.0450  0.2149
 1119YOPC   C3A14905   7.105   5.350   7.236 -0.0020 -0.0850  0.1138
 1119YOPC   C4A14906   6.892   4.978   7.133  0.0102 -0.2272 -0.1143
 1119YOPC   C1B14907   7.473   4.971   6.751  0.0888 -0.3610 -0.1774
 1119YOPC   C2B14908   7.696   4.982   7.154 -0.1036 -0.0597 -0.3552
 1119YOPC   D3B14909   7.580   5.150   7.633 -0.1229 -0.0346 -0.0481
 1119YOPC   C4B14910   7.501   5.346   7.947 -0.2592 -0.3543 -0.0473
 1120YOPC   NC314911  10.132   0.200   6.532  0.1177  0.3008 -0.2549
 1120YOPC   PO414912  10.250   0.582   6.601  0.1088 -0.4579  0.3059
 1120YOPC   GL114913  10.286   0.349   6.964 -0.4740  0.0805 -0.2316
 1120YOPC   GL214914  10.049   0.136   6.976  0.1270 -0.1626 -0.1440
 1120YOPC   C1A14915  10.121   0.575   7.372  0.1478 -0.0905  0.0960
 1120YOPC   D2A14916  10.190   0.501   7.816  0.0385  0.0686  0.0413
 1120YOPC   C3A14917   9.950   0.313   8.167  0.0603  0.0000  0.0489
 1120YOPC   C4A14918   9.624   0.424   8.432  0.1190  0.2482  0.1862
 1120YOPC   C1B14919   9.996   0.031   7.429  0.1860 -0.0089  0.2058
 1120YOPC   C2B14920   9.784  -0.051   7.816  0.1522  0.0565 -0.3188
 1120YOPC   D3B14921   9.645  -0.205   8.228 -0.0657  0.3290 -0.0792
 1120YOPC   C4B14922   9.802  -0.630   8.382  0.0848 -0.1204  0.3041
 1121YOPC   NC314923  15.588  17.690   6.343 -0.2096 -0.1414 -0.0246
 1121YOPC   PO414924  15.519  18.080   6.399  0.2314  0.0778  0.2788
 1121YOPC   GL114925  15.199  17.832   6.686 -0.0308  0.3165  0.0815
 1121YOPC   GL214926  15.087  18.155   6.721  0.2820  0.0971 -0.0113
 1121YOPC   C1A14927  15.086  17.633   7.046 -0.3276 -0.0770  0.2103
 1121YOPC   D2A14928  14.920  17.735   7.445  0.3131  0.1328  0.4713
 1121YOPC   C3A14929  15.210  17.562   7.802  0.0797 -0.2713  0.1690
 1121YOPC   C4A14930  15.317  17.710   8.150 -0.2718  0.0558 -0.0230
 1121YOPC   C1B14931  14.815  18.135   7.055 -0.2679  0.1139 -0.1011
 1121YOPC   C2B14932  14.784  18.319   7.422  0.0351  0.2572  0.1640
 1121YOPC   D3B14933  14.762  18.023   7.826  0.3116 -0.0412 -0.1447
 1121YOPC   C4B14934  14.865  18.092   8.252  0.1080  0.0702 -0.0438
 1122YOPC   NC314935  15.214  11.132   5.767 -0.0383 -0.0863  0.1359
 1122YOPC   PO414936  15.114  10.634   5.664  0.0012  0.0871 -0.0399
 1122YOPC   GL114937  15.138  10.705   6.075  0.2812 -0.1571 -0.0961
 1122YOPC   GL214938  14.876  10.572   6.230 -0.0387  0.0632  0.0852
 1122YOPC   C1A14939  15.233  10.857   6.505 -0.0334 -0.1002  0.0564
 1122YOPC   D2A14940  15.211  10.835   6.947 -0.2649 -0.3753 -0.0740
 1122YOPC   C3A14941  15.581  10.712   7.276 -0.1327  0.1481  0.0181
 1122YOPC   C4A14942  15.923  10.677   7.494 -0.2757 -0.2204 -0.1031
 1122YOPC   C1B14943  14.851  10.605   6.653 -0.1186 -0.2021  0.2593
 1122YOPC   C2B14944  14.754  10.648   7.032  0.0669 -0.0765  0.1574
 1122YOPC   D3B14945  14.530  10.807   7.381  0.0058  0.0326 -0.0907
 1122YOPC   C4B14946  14.400  10.703   7.721 -0.1603  0.0040  0.0387
 1123YOPC   NC314947  13.774  10.162   5.634  0.1176  0.0982  0.0770
 1123YOPC   PO414948  13.762   9.718   5.819 -0.2192  0.2159 -0.0420
 1123YOPC   GL114949  13.607   9.792   6.113  0.0520  0.1049 -0.1561
 1123YOPC   GL214950  13.584  10.035   6.245 -0.0803  0.3411 -0.1672
 1123YOPC   C1A14951  13.645   9.686   6.537 -0.1401  0.0941 -0.2389
 1123YOPC   D2A14952  13.667   9.667   6.975  0.0320  0.0126 -0.1576
 1123YOPC   C3A14953  13.574   9.260   7.229  0.1671 -0.0245 -0.1771
 1123YOPC   C4A14954  13.452   8.867   7.427 -0.1061  0.1055 -0.0456
 1123YOPC   C1B14955  13.761  10.254   6.500 -0.0269 -0.2355 -0.0439
 1123YOPC   C2B14956  13.647  10.270   6.874  0.0116 -0.0831 -0.0061
 1123YOPC   D3B14957  13.409  10.574   7.109 -0.2171  0.0896  0.2296
 1123YOPC   C4B14958  13.120  10.853   7.131 -0.0914 -0.2011  0.0986
 1124YOPC   NC314959  14.983   4.394   5.965 -0.2421  0.0759  0.1537
 1124YOPC   PO414960  15.143   4.663   5.901 -0.2698  0.0932 -0.0884
 1124YOPC   GL114961  15.333   4.764   6.271  0.1437  0.3687  0.1634
 1124YOPC   GL214962  15.624   4.505   6.500  0.0738 -0.1005 -0.0554
 1124YOPC   C1A14963  15.454   4.928   6.662 -0.0508  0.2113  0.1695
 1124YOPC   D2A14964  15.505   5.125   7.097 -0.2743  0.1627  0.2809
 1124YOPC   C3A14965  15.351   5.247   7.464 -0.3816  0.2395 -0.0648
 1124YOPC   C4A14966  15.094   5.024   7.726  0.1036 -0.4968  0.0883
 1124YOPC   C1B14967  15.378   4.504   7.020  0.4717  0.0244  0.0343
 1124YOPC   C2B14968  15.326   4.282   7.296  0.2827  0.1736 -0.0650
 1124YOPC   D3B14969  15.084   4.012   7.355  0.1008 -0.1790 -0.0020
 1124YOPC   C4B14970  14.651   3.916   7.438 -0.0570 -0.1664  0.1302
 1125YOPC   NC314971  17.348   3.627   5.828 -0.1411 -0.2270  0.0779
 1125YOPC   PO414972  17.334   3.183   5.873 -0.1442 -0.2834  0.3326
 1125YOPC   GL114973  17.685   3.273   6.194 -0.2554 -0.1908 -0.1126
 1125YOPC   GL214974  17.750   2.876   6.312 -0.2076 -0.1535  0.1614
 1125YOPC   C1A14975  17.644   3.355   6.559  0.1484  0.2298 -0.0258
 1125YOPC   D2A14976  17.436   3.134   6.974 -0.0153  0.0035  0.2082
 1125YOPC   C3A14977  17.262   2.970   7.372  0.0410  0.3193 -0.0462
 1125YOPC   C4A14978  17.277   2.791   7.681  0.0730  0.0319 -0.1633
 1125YOPC   C1B14979  17.869   2.901   6.715 -0.0931 -0.1389  0.2803
 1125YOPC   C2B14980  18.041   3.174   7.086  0.4250  0.1892  0.0021
 1125YOPC   D3B14981  18.322   3.031   7.344  0.3317  0.1087 -0.0431
 1125YOPC   C4B14982  18.651   2.739   7.566  0.0331 -0.1972  0.0217
 1126YOPC   NC314983   1.816   8.512   5.200 -0.0510 -0.0373 -0.1959
 1126YOPC   PO414984   2.115   8.392   5.350 -0.0789  0.2348  0.1310
 1126YOPC   GL114985   2.011   8.244   5.837 -0.1494  0.4504  0.0822
 1126YOPC   GL214986   2.157   8.519   6.067 -0.1345 -0.0399 -0.0836
 1126YOPC   C1A14987   2.017   7.955   6.218  0.1581 -0.3688  0.1278
 1126YOPC   D2A14988   1.659   7.628   6.356 -0.1946  0.0105  0.1988
 1126YOPC   C3A14989   1.801   7.451   6.656 -0.0452  0.0035 -0.1218
 1126YOPC   C4A14990   1.951   7.058   6.888  0.0067  0.0845 -0.1249
 1126YOPC   C1B14991   2.041   8.477   6.497 -0.4384  0.1220  0.0629
 1126YOPC   C2B14992   2.181   8.533   6.845  0.0975  0.0426 -0.0294
 1126YOPC   D3B14993   2.134   8.600   7.246  0.2585  0.2226 -0.1029
 1126YOPC   C4B14994   2.181   9.006   7.422 -0.3745  0.0336 -0.3796
 1127YOPC   NC314995  14.084   7.610   5.624  0.2105 -0.3765  0.1736
 1127YOPC   PO414996  14.495   7.391   5.639 -0.0658 -0.1179 -0.0433
 1127YOPC   GL114997  14.622   7.560   5.962  0.1270  0.2379  0.1398
 1127YOPC   GL214998  14.383   7.759   6.011 -0.1123 -0.0440 -0.2768
 1127YOPC   C1A14999  14.998   7.529   6.170  0.0530 -0.1346 -0.0876
 1127YOPC   D2A15000  15.217   7.119   6.001  0.1155 -0.2494  0.0376
 1127YOPC   C3A15001  15.669   7.022   6.048  0.0506 -0.3032 -0.0208
 1127YOPC   C4A15002  16.007   7.176   6.278 -0.0196  0.2348 -0.1088
 1127YOPC   C1B15003  14.147   7.742   6.345  0.2758 -0.3219 -0.0193
 1127YOPC   C2B15004  13.966   7.843   6.749  0.2632 -0.0584 -0.1583
 1127YOPC   D3B15005  13.910   7.579   7.150  0.1371 -0.2347 -0.0657
 1127YOPC   C4B15006  13.937   7.626   7.513  0.2286  0.0585  0.1544
 1128YOPC   NC315007  17.694  11.841   5.901  0.0444  0.0853  0.0495
 1128YOPC   PO415008  17.331  11.736   5.827  0.1132 -0.1564  0.0804
 1128YOPC   GL115009  17.198  11.615   6.188  0.0624 -0.3325  0.1235
 1128YOPC   GL215010  17.335  11.313   6.183 -0.0081 -0.0061  0.0769
 1128YOPC   C1A15011  17.113  11.445   6.645 -0.0730 -0.0237  0.4676
 1128YOPC   D2A15012  16.975  11.576   7.094  0.2444  0.1839  0.1939
 1128YOPC   C3A15013  17.031  11.271   7.419  0.1634 -0.2558  0.1444
 1128YOPC   C4A15014  17.255  11.251   7.817  0.0377  0.3124  0.0165
 1128YOPC   C1B15015  17.575  11.419   6.460  0.1884  0.0996  0.2006
 1128YOPC   C2B15016  17.690  11.334   6.876  0.0238 -0.0248  0.1036
 1128YOPC   D3B15017  17.347  11.199   7.028 -0.2194 -0.2928 -0.0593
 1128YOPC   C4B15018  17.225  10.785   7.125 -0.0064  0.3442  0.0135
 1129YOPC   NC315019   9.267   0.594   6.457  0.2210 -0.1506  0.0096
 1129YOPC   PO415020   9.754   0.666   6.521 -0.2576  0.4132  0.1237
 1129YOPC   GL115021   9.490   0.740   6.884 -0.6299 -0.3444 -0.0500
 1129YOPC   GL215022   9.388   1.009   6.737 -0.2647  0.0558 -0.0726
 1129YOPC   C1A15023   9.542   0.673   7.354 -0.1044 -0.2463 -0.1128
 1129YOPC   D2A15024   9.634   0.526   7.686  0.0912 -0.0621  0.0456
 1129YOPC   C3A15025   9.412   0.337   7.894  0.2161  0.3170 -0.1145
 1129YOPC   C4A15026   9.186   0.121   8.232 -0.2584  0.0053 -0.1259
 1129YOPC   C1B15027   9.538   1.136   7.200  0.0098 -0.0493  0.0432
 1129YOPC   C2B15028   9.457   1.442   7.495  0.3683  0.1423  0.2550
 1129YOPC   D3B15029   9.594   1.433   7.982  0.5148 -0.0296  0.3503
 1129YOPC   C4B15030   9.560   1.629   8.403  0.0128  0.0405  0.3209
 1130YOPC   NC315031  13.312  16.778   6.354  0.0712 -0.1722 -0.1034
 1130YOPC   PO415032  13.396  16.393   6.480  0.0888  0.0378 -0.1730
 1130YOPC   GL115033  13.345  16.598   6.843 -0.0507 -0.1452  0.0281
 1130YOPC   GL215034  13.344  16.448   7.170 -0.0230  0.0127 -0.1157
 1130YOPC   C1A15035  12.971  16.759   7.168 -0.0703 -0.3491 -0.1632
 1130YOPC   D2A15036  13.153  16.621   7.589  0.0603 -0.0585 -0.1459
 1130YOPC   C3A15037  13.391  16.221   7.728  0.0824 -0.0542  0.1936
 1130YOPC   C4A15038  13.322  15.911   7.909  0.0007 -0.0738  0.0265
 1130YOPC   C1B15039  13.714  16.263   7.329 -0.0218 -0.0084  0.0934
 1130YOPC   C2B15040  13.926  16.396   7.668 -0.0188  0.0884  0.1640
 1130YOPC   D3B15041  13.774  16.247   8.027  0.0188  0.0619 -0.0128
 1130YOPC   C4B15042  13.714  16.115   8.450 -0.2748 -0.1864 -0.0951
 1131YOPC   NC315043   5.749   0.588   5.600  0.0787  0.1301  0.0211
 1131YOPC   PO415044   5.754   0.746   6.031  0.3446  0.1120  0.4556
 1131YOPC   GL115045   5.775   0.804   6.516  0.0950  0.0855  0.0087
 1131YOPC   GL215046   6.087   0.747   6.586  0.1719 -0.0806  0.2561
 1131YOPC   C1A15047   5.566   1.134   6.789  0.0010 -0.0477 -0.1400
 1131YOPC   D2A15048   5.350   1.206   7.106 -0.1918 -0.0599 -0.1058
 1131YOPC   C3A15049   5.623   1.529   7.338  0.2384  0.2616  0.3373
 1131YOPC   C4A15050   5.538   1.817   7.639 -0.1456 -0.0091  0.0853
 1131YOPC   C1B15051   6.096   0.780   6.965  0.1834 -0.6305  0.0217
 1131YOPC   C2B15052   5.957   0.635   7.375  0.0862  0.0540 -0.0525
 1131YOPC   D3B15053   6.244   0.693   7.749 -0.0729  0.3373  0.1219
 1131YOPC   C4B15054   6.492   0.801   8.171 -0.1305 -0.1086 -0.0690
 1132YOPC   NC315055  11.835   4.128   5.742 -0.0047 -0.3728  0.0329
 1132YOPC   PO415056  11.841   3.753   5.937  0.3183 -0.3047  0.4622
 1132YOPC   GL115057  11.692   3.991   6.283  0.1918  0.0679 -0.0055
 1132YOPC   GL215058  11.665   3.838   6.636 -0.0533 -0.1032  0.0038
 1132YOPC   C1A15059  11.579   4.407   6.314  0.1452  0.0160  0.1298
 1132YOPC   D2A15060  11.727   4.821   6.361  0.1433 -0.0031  0.0538
 1132YOPC   C3A15061  12.153   4.862   6.226 -0.1513  0.1488  0.0625
 1132YOPC   C4A15062  12.521   4.765   6.390  0.0356  0.1511 -0.0285
 1132YOPC   C1B15063  11.684   4.088   6.959 -0.0213 -0.0442  0.2188
 1132YOPC   C2B15064  11.686   4.355   7.243 -0.0246 -0.1505 -0.1271
 1132YOPC   D3B15065  11.783   4.776   7.229  0.1406  0.1652 -0.2426
 1132YOPC   C4B15066  11.854   5.082   7.579  0.2064  0.1276  0.2226
 1133YOPC   NC315067  13.446  14.597   5.769 -0.2486 -0.1454 -0.0319
 1133YOPC   PO415068  13.729  14.350   6.076  0.1929  0.0050 -0.2051
 1133YOPC   GL115069  13.700  14.262   6.493  0.3463  0.1419  0.3265
 1133YOPC   GL215070  13.641  14.602   6.699 -0.0670  0.1064 -0.1082
 1133YOPC   C1A15071  13.866  14.191   6.933 -0.1874  0.0133  0.1968
 1133YOPC   D2A15072  13.820  13.912   7.277 -0.1158  0.2017 -0.0326
 1133YOPC   C3A15073  14.051  13.528   7.133  0.0573  0.1675 -0.0313
 1133YOPC   C4A15074  14.196  13.016   7.137 -0.2764  0.2320  0.2386
 1133YOPC   C1B15075  13.523  14.573   7.044 -0.2178 -0.0138 -0.1186
 1133YOPC   C2B15076  13.695  14.430   7.418 -0.0900 -0.2126  0.1557
 1133YOPC   D3B15077  13.537  14.409   7.854  0.1326 -0.0330 -0.1409
 1133YOPC   C4B15078  13.092  14.380   7.847 -0.1687 -0.0804 -0.2822
 1134YOPC   NC315079  11.730   2.407   6.240 -0.1385  0.3508 -0.2094
 1134YOPC   PO415080  12.111   2.746   6.205  0.1677  0.1953 -0.1533
 1134YOPC   GL115081  12.069   2.960   6.597  0.1186 -0.4474 -0.0020
 1134YOPC   GL215082  11.870   3.333   6.604 -0.1291  0.1903  0.1699
 1134YOPC   C1A15083  12.216   3.294   6.911 -0.1343  0.2017 -0.1600
 1134YOPC   D2A15084  12.136   3.230   7.358 -0.1188  0.1062  0.3288
 1134YOPC   C3A15085  12.023   3.314   7.789 -0.2986  0.2758  0.1967
 1134YOPC   C4A15086  11.993   2.827   8.052  0.0420  0.3417 -0.1986
 1134YOPC   C1B15087  11.750   3.546   7.027  0.1010  0.0085 -0.0647
 1134YOPC   C2B15088  11.608   3.487   7.491 -0.0460  0.2979 -0.2872
 1134YOPC   D3B15089  11.199   3.507   7.533  0.2522  0.0521  0.0818
 1134YOPC   C4B15090  10.856   3.619   7.250  0.1975 -0.0212 -0.0991
 1135YOPC   NC315091   4.480  14.499   5.717 -0.3516 -0.1635 -0.1450
 1135YOPC   PO415092   4.160  14.288   6.075  0.0368 -0.2255 -0.0941
 1135YOPC   GL115093   4.150  13.958   6.397  0.2225  0.0623  0.0614
 1135YOPC   GL215094   3.842  14.035   6.541 -0.3109  0.2499 -0.1234
 1135YOPC   C1A15095   4.392  13.947   6.704 -0.0010 -0.0734  0.3972
 1135YOPC   D2A15096   4.808  14.011   6.815 -0.1647  0.0498  0.2585
 1135YOPC   C3A15097   4.942  14.460   6.692  0.2417 -0.0459  0.0004
 1135YOPC   C4A15098   5.185  14.608   6.577  0.0461 -0.1587  0.1110
 1135YOPC   C1B15099   3.964  14.077   6.961 -0.1155 -0.0979  0.0869
 1135YOPC   C2B15100   3.953  14.055   7.405  0.1236  0.0383 -0.0273
 1135YOPC   D3B15101   3.875  14.376   7.741 -0.3122 -0.0781  0.0889
 1135YOPC   C4B15102   4.107  14.607   8.142 -0.0910 -0.4009  0.3206
 1136YOPC   NC315103  16.481   5.588   5.680 -0.0193  0.2213  0.1097
 1136YOPC   PO415104  16.125   5.296   5.780  0.0069 -0.0096 -0.1809
 1136YOPC   GL115105  15.935   5.313   6.100 -0.0557  0.1669  0.1519
 1136YOPC   GL215106  15.616   5.234   6.193  0.2535  0.5462 -0.1190
 1136YOPC   C1A15107  16.017   5.285   6.579  0.0320 -0.2159 -0.2698
 1136YOPC   D2A15108  16.199   5.109   6.982 -0.2647 -0.1618  0.1233
 1136YOPC   C3A15109  15.984   5.317   7.435  0.2144 -0.1862  0.0126
 1136YOPC   C4A15110  15.989   5.517   7.895  0.0517 -0.0635  0.0376
 1136YOPC   C1B15111  15.549   5.421   6.692 -0.2573  0.2418 -0.0419
 1136YOPC   C2B15112  15.475   5.883   6.786 -0.1304  0.2837 -0.0010
 1136YOPC   D3B15113  15.754   6.091   7.097 -0.0222  0.1756 -0.1589
 1136YOPC   C4B15114  16.108   5.912   7.431 -0.2194 -0.0075  0.0243
 1137YOPC   NC315115  13.505   3.942   5.547  0.2247 -0.0306 -0.3569
 1137YOPC   PO415116  13.212   3.839   5.811 -0.3615  0.1860 -0.1235
 1137YOPC   GL115117  13.208   3.765   6.178  0.1012 -0.1395  0.0348
 1137YOPC   GL215118  13.205   4.086   6.307  0.1530  0.0752  0.1417
 1137YOPC   C1A15119  13.023   3.738   6.631  0.5899  0.1223 -0.0745
 1137YOPC   D2A15120  13.030   4.152   6.896  0.1040 -0.0715  0.1413
 1137YOPC   C3A15121  13.330   4.153   7.166  0.2002 -0.0614  0.2802
 1137YOPC   C4A15122  13.325   3.842   7.463 -0.0215 -0.4513 -0.1778
 1137YOPC   C1B15123  13.206   4.468   6.482  0.1315 -0.2398 -0.0105
 1137YOPC   C2B15124  13.502   4.550   6.860 -0.0218  0.0734 -0.1454
 1137YOPC   D3B15125  13.827   4.253   6.962 -0.1712  0.1690 -0.0020
 1137YOPC   C4B15126  14.214   4.282   6.835  0.1281  0.0116  0.2960
 1138YOPC   NC315127   3.998   0.519   6.053 -0.1036  0.0835  0.0952
 1138YOPC   PO415128   4.494   0.680   6.186 -0.1491  0.3778  0.1668
 1138YOPC   GL115129   4.114   0.740   6.516  0.0449 -0.1437 -0.0976
 1138YOPC   GL215130   3.964   0.497   6.548 -0.1378 -0.3730 -0.0346
 1138YOPC   C1A15131   4.030   1.065   6.908 -0.0546  0.1855 -0.0816
 1138YOPC   D2A15132   4.144   1.334   7.357  0.0503 -0.2550  0.0959
 1138YOPC   C3A15133   4.007   1.142   7.767 -0.1529 -0.1226 -0.2144
 1138YOPC   C4A15134   3.720   1.283   8.048  0.3198 -0.2744 -0.1142
 1138YOPC   C1B15135   3.939   0.553   7.034  0.0738 -0.0898 -0.1869
 1138YOPC   C2B15136   4.096   0.667   7.459  0.2546 -0.0996 -0.0621
 1138YOPC   D3B15137   3.832   0.711   7.747  0.1130  0.1164  0.3298
 1138YOPC   C4B15138   3.470   0.957   7.736 -0.0411  0.0512 -0.0029
 1139YOPC   NC315139   6.582   2.750   5.417 -0.0693  0.0821  0.1812
 1139YOPC   PO415140   6.735   2.698   5.892 -0.3237 -0.0398 -0.0921
 1139YOPC   GL115141   6.645   2.868   6.305  0.2085  0.3715 -0.0248
 1139YOPC   GL215142   6.311   2.963   6.359  0.1566 -0.1012 -0.0962
 1139YOPC   C1A15143   6.760   2.880   6.587  0.3588  0.3558 -0.0887
 1139YOPC   D2A15144   6.742   3.151   7.022 -0.0359  0.0244 -0.3360
 1139YOPC   C3A15145   6.937   3.054   7.477 -0.0123  0.0058 -0.2379
 1139YOPC   C4A15146   7.264   3.036   7.762 -0.2113  0.0750  0.1441
 1139YOPC   C1B15147   6.288   3.088   6.823  0.1989 -0.1014  0.0484
 1139YOPC   C2B15148   6.181   3.121   7.231  0.1562  0.4498  0.3073
 1139YOPC   D3B15149   6.357   3.169   7.635 -0.3523  0.2329  0.2763
 1139YOPC   C4B15150   6.340   3.053   8.102 -0.1487 -0.2065  0.0866
 1140YOPC   NC315151   9.553  10.886   6.409 -0.0939 -0.0653 -0.0517
 1140YOPC   PO415152   9.785  10.500   6.241 -0.0923 -0.0871 -0.2720
 1140YOPC   GL115153   9.805  10.403   6.635 -0.1146 -0.0571  0.0859
 1140YOPC   GL215154   9.847  10.749   6.813  0.2641  0.0102  0.1137
 1140YOPC   C1A15155   9.805  10.168   6.922  0.0996 -0.3282 -0.1650
 1140YOPC   D2A15156  10.122  10.052   7.189  0.1521  0.2102 -0.2078
 1140YOPC   C3A15157  10.216   9.699   7.483  0.3658 -0.1403 -0.0156
 1140YOPC   C4A15158  10.443   9.554   7.837  0.0399  0.1960 -0.2557
 1140YOPC   C1B15159   9.941  11.172   6.946  0.0827 -0.1953 -0.1004
 1140YOPC   C2B15160   9.843  11.295   7.377  0.0492 -0.1008 -0.0985
 1140YOPC   D3B15161   9.746  11.410   7.812  0.1031  0.1206  0.0944
 1140YOPC   C4B15162   9.328  11.552   8.014  0.0237 -0.1480  0.0138
 1141YOPC   NC315163   1.842   2.966   5.544  0.2272 -0.1720 -0.1198
 1141YOPC   PO415164   2.080   2.712   5.762  0.2724  0.3559  0.2276
 1141YOPC   GL115165   2.218   2.680   6.208 -0.3605 -0.2572 -0.0749
 1141YOPC   GL215166   2.543   2.646   6.335  0.0446 -0.4679  0.2219
 1141YOPC   C1A15167   2.246   3.035   6.535  0.0531 -0.3726 -0.1718
 1141YOPC   D2A15168   2.283   3.063   6.998  0.1403 -0.1099  0.1920
 1141YOPC   C3A15169   2.585   2.834   7.262 -0.2195 -0.1913 -0.1365
 1141YOPC   C4A15170   2.708   2.818   7.697 -0.1086  0.0639 -0.2453
 1141YOPC   C1B15171   2.626   2.642   6.659 -0.3919  0.0649  0.1863
 1141YOPC   C2B15172   2.978   2.496   6.885  0.0777  0.1834 -0.0696
 1141YOPC   D3B15173   2.973   2.521   7.300  0.3092 -0.1281 -0.3713
 1141YOPC   C4B15174   2.943   2.363   7.689  0.1567 -0.1369 -0.3750
 1142YOPC   NC315175   6.973   0.282   6.365 -0.2651  0.0589  0.3046
 1142YOPC   PO415176   6.531   0.361   6.505 -0.1247 -0.1563  0.0848
 1142YOPC   GL115177   6.225   0.316   6.875  0.0187 -0.0595 -0.0836
 1142YOPC   GL215178   5.930   0.317   6.901  0.0625 -0.0614  0.2181
 1142YOPC   C1A15179   6.246   0.177   7.302  0.0217 -0.3990  0.0401
 1142YOPC   D2A15180   6.205   0.143   7.683  0.1525 -0.1980  0.3802
 1142YOPC   C3A15181   6.318   0.308   8.075  0.0815  0.0103  0.1249
 1142YOPC   C4A15182   6.406   0.020   8.478  0.0020 -0.3296  0.3447
 1142YOPC   C1B15183   5.611   0.686   6.985 -0.1899  0.1041  0.2997
 1142YOPC   C2B15184   5.464   0.726   7.450  0.3050  0.1696  0.0996
 1142YOPC   D3B15185   5.336   1.123   7.567  0.1712  0.2624 -0.2008
 1142YOPC   C4B15186   5.464   1.409   7.863  0.0229 -0.0535 -0.0582
 1143YOPC   NC315187   9.886   7.414   5.692  0.2005 -0.2532  0.0762
 1143YOPC   PO415188  10.365   7.389   5.696  0.0134 -0.1119  0.0833
 1143YOPC   GL115189  10.547   7.343   6.167  0.0234 -0.1538 -0.2909
 1143YOPC   GL215190  10.707   7.133   6.283  0.2777  0.1894  0.0796
 1143YOPC   C1A15191  10.444   7.611   6.523 -0.3804 -0.1331 -0.1044
 1143YOPC   D2A15192  10.529   7.760   6.983 -0.1545  0.0657 -0.0448
 1143YOPC   C3A15193  10.447   7.742   7.409  0.1338  0.0077  0.1310
 1143YOPC   C4A15194  10.272   7.779   7.781  0.1077 -0.0663 -0.1673
 1143YOPC   C1B15195  10.930   7.048   6.556  0.1066 -0.2308  0.1535
 1143YOPC   C2B15196  11.176   6.670   6.722  0.0253  0.0841 -0.3929
 1143YOPC   D3B15197  11.199   6.684   7.181 -0.0261 -0.2035 -0.1154
 1143YOPC   C4B15198  11.168   6.925   7.549 -0.1429 -0.1453  0.1128
 1144ERGO   ROH15199   8.916  10.065   9.692 -0.1028 -0.0866 -0.0844
 1144ERGO    R115200   9.064  10.071   9.450  0.0297 -0.1051 -0.0049
 1144ERGO    R215201   9.201   9.851   9.355 -0.0272 -0.1528  0.0188
 1144ERGO    R315202   9.055   9.898   9.130  0.1138 -0.0288 -0.0484
 1144ERGO    R415203   9.235   9.677   9.058 -0.0832 -0.2226  0.0533
 1144ERGO    R515204   9.211   9.865   8.951  0.1558 -0.2100  0.0202
 1144ERGO    C115205   9.118   9.619   8.675  0.0166 -0.1471  0.0104
 1144ERGO    C215206   9.107   9.577   8.293  0.0256  0.2208  0.0104
 1145ERGO   ROH15207  14.892  12.417   6.449 -0.0118  0.0024 -0.1031
 1145ERGO    R115208  14.876  12.185   6.609 -0.1188  0.1023  0.0341
 1145ERGO    R215209  15.085  12.006   6.633 -0.3243 -0.1726 -0.1599
 1145ERGO    R315210  15.051  12.050   6.899  0.0885  0.0134 -0.1293
 1145ERGO    R415211  15.061  11.758   6.872 -0.3753 -0.0220 -0.0069
 1145ERGO    R515212  14.904  11.874   6.970 -0.0830  0.2587  0.1491
 1145ERGO    C115213  15.015  11.655   7.262 -0.0175  0.2403  0.1110
 1145ERGO    C215214  14.979  11.577   7.633  0.2152 -0.1708 -0.1119
 1146ERGO   ROH15215   5.837   2.097  10.497  0.1459 -0.1425 -0.0045
 1146ERGO    R115216   5.931   2.034  10.238  0.0223 -0.1887 -0.0378
 1146ERGO    R215217   5.808   1.846  10.077 -0.1599 -0.0875 -0.0142
 1146ERGO    R315218   5.801   2.051   9.898 -0.0679 -0.0696  0.0011
 1146ERGO    R415219   5.903   1.824   9.745 -0.0270 -0.0708  0.0218
 1146ERGO    R515220   5.996   2.019   9.763 -0.0135 -0.0788  0.0773
 1146ERGO    C115221   5.952   2.003   9.385  0.1366 -0.0443  0.0571
 1146ERGO    C215222   5.937   1.945   9.000 -0.0665 -0.1506  0.2907
 1147ERGO   ROH15223   4.270  10.539   7.783 -0.0057 -0.2681  0.0811
 1147ERGO    R115224   4.536  10.486   7.703 -0.0069 -0.1837  0.0209
 1147ERGO    R215225   4.734  10.417   7.882  0.0763 -0.0310 -0.0131
 1147ERGO    R315226   4.765  10.203   7.717  0.1196 -0.0805  0.0578
 1147ERGO    R415227   4.983  10.179   7.912  0.1323  0.0358  0.0607
 1147ERGO    R515228   5.003  10.179   7.695  0.1253 -0.0333  0.0587
 1147ERGO    C115229   5.157   9.840   7.774  0.2057  0.0281  0.1703
 1147ERGO    C215230   5.479   9.684   7.937 -0.0696 -0.0628 -0.0215
 1148ERGO   ROH15231   8.973   5.176   6.726  0.1463  0.0203 -0.1476
 1148ERGO    R115232   8.918   5.232   6.998  0.1063  0.0223 -0.1563
 1148ERGO    R215233   8.977   5.053   7.201 -0.0408 -0.0285 -0.1601
 1148ERGO    R315234   9.111   5.266   7.305  0.0459 -0.1106 -0.1022
 1148ERGO    R415235   9.072   5.084   7.532 -0.1113 -0.1197 -0.1309
 1148ERGO    R515236   9.016   5.294   7.523  0.0022 -0.0863 -0.1223
 1148ERGO    C115237   9.253   5.300   7.823 -0.0710 -0.2497 -0.0596
 1148ERGO    C215238   9.306   5.389   8.157  0.4191 -0.1178  0.3325
 1149ERGO   ROH15239   7.163   2.161   6.564 -0.0679  0.1268 -0.0628
 1149ERGO    R115240   7.348   2.164   6.779 -0.0276  0.1378 -0.0993
 1149ERGO    R215241   7.329   2.342   6.989 -0.1316 -0.0154  0.0151
 1149ERGO    R315242   7.335   2.115   7.139  0.0869 -0.1067 -0.1245
 1149ERGO    R415243   7.427   2.326   7.320 -0.1963 -0.1008  0.0319
 1149ERGO    R515244   7.530   2.140   7.276  0.0315  0.0359 -0.0614
 1149ERGO    C115245   7.490   2.105   7.654 -0.0289 -0.2363 -0.0893
 1149ERGO    C215246   7.651   2.043   7.944 -0.1273  0.0463 -0.3412
 1150ERGO   ROH15247  14.995  12.355  10.038 -0.1043  0.3056  0.3504
 1150ERGO    R115248  14.877  12.310   9.785  0.0308  0.0009  0.3360
 1150ERGO    R215249  14.709  12.495   9.664 -0.0663 -0.2267  0.1110
 1150ERGO    R315250  14.885  12.470   9.458  0.0378 -0.2647  0.2041
 1150ERGO    R415251  14.645  12.586   9.337  0.1480 -0.1546  0.0882
 1150ERGO    R515252  14.749  12.407   9.271  0.1153 -0.1853  0.1205
 1150ERGO    C115253  14.772  12.616   8.953  0.3706 -0.1484  0.1622
 1150ERGO    C215254  14.742  12.758   8.704 -0.0222  0.0669  0.2550
 1151ERGO   ROH15255  15.470   5.991   5.853  0.0972  0.2090 -0.1041
 1151ERGO    R115256  15.408   6.191   6.044  0.0205  0.1395 -0.0553
 1151ERGO    R215257  15.242   6.143   6.261  0.0443  0.0209 -0.0595
 1151ERGO    R315258  15.454   6.238   6.402  0.0115  0.0732 -0.0460
 1151ERGO    R415259  15.230   6.245   6.591  0.0334 -0.1122 -0.0186
 1151ERGO    R515260  15.362   6.411   6.539 -0.0576 -0.0274  0.0318
 1151ERGO    C115261  15.422   6.393   6.916 -0.0038 -0.1405  0.0178
 1151ERGO    C215262  15.329   6.560   7.290  0.1030  0.1063  0.1127
 1152ERGO   ROH15263  14.950   2.414   6.302  0.0268 -0.3320  0.1929
 1152ERGO    R115264  15.019   2.548   6.541 -0.0859 -0.1153  0.1069
 1152ERGO    R215265  15.225   2.731   6.555 -0.0433 -0.1616  0.0546
 1152ERGO    R315266  15.032   2.893   6.658 -0.0615 -0.0010 -0.2223
 1152ERGO    R415267  15.282   2.985   6.783 -0.1770 -0.3418  0.2949
 1152ERGO    R515268  15.098   2.926   6.886 -0.4440 -0.1959 -0.0727
 1152ERGO    C115269  15.134   3.285   7.011 -0.2720 -0.2960  0.1747
 1152ERGO    C215270  14.991   3.574   7.125  0.3129 -0.0891  0.0428
 1153ERGO   ROH15271   0.073   7.276   9.573  0.1618 -0.0552 -0.0856
 1153ERGO    R115272  -0.036   7.179   9.331  0.1781 -0.1581 -0.0529
 1153ERGO    R215273  -0.129   7.347   9.132 -0.1877 -0.2409  0.0382
 1153ERGO    R315274   0.043   7.206   8.976 -0.0468  0.0614 -0.0889
 1153ERGO    R415275  -0.169   7.294   8.793 -0.1741 -0.0544  0.0062
 1153ERGO    R515276  -0.099   7.089   8.822  0.0648  0.0035 -0.1466
 1153ERGO    C115277  -0.030   7.130   8.449 -0.0340  0.3379 -0.1316
 1153ERGO    C215278  -0.129   7.062   8.083  0.0866  0.0159  0.0229
 1154ERGO   ROH15279   5.367   8.787   9.891 -0.0900 -0.0415  0.0358
 1154ERGO    R115280   5.488   8.816   9.636 -0.0604 -0.3537  0.0141
 1154ERGO    R215281   5.423   8.654   9.422 -0.6493 -0.0924 -0.0063
 1154ERGO    R315282   5.377   8.891   9.298  0.0818  0.1133  0.0598
 1154ERGO    R415283   5.444   8.705   9.081 -0.8629 -0.2046 -0.0405
 1154ERGO    R515284   5.538   8.898   9.121 -0.0684 -0.5144 -0.1437
 1154ERGO    C115285   5.413   8.958   8.766 -0.3008 -0.0770  0.0016
 1154ERGO    C215286   5.303   8.857   8.480  0.0656  0.0951 -0.2949
 1155ERGO   ROH15287  14.638   9.957   9.639  0.0149  0.0338 -0.0865
 1155ERGO    R115288  14.758   9.869   9.398  0.1828  0.0857 -0.0228
 1155ERGO    R215289  14.617   9.845   9.161  0.2478 -0.2575 -0.0310
 1155ERGO    R315290  14.814  10.006   9.066  0.0184 -0.0048 -0.0893
 1155ERGO    R415291  14.680   9.904   8.826  0.1500 -0.2759 -0.0528
 1155ERGO    R515292  14.893   9.894   8.870  0.1705  0.0409 -0.0562
 1155ERGO    C115293  14.902  10.090   8.542 -0.1223 -0.0495 -0.1202
 1155ERGO    C215294  15.028  10.142   8.342 -0.0406  0.1826  0.1472
 1156ERGO   ROH15295   8.831   0.923   6.585  0.2442  0.0643 -0.0049
 1156ERGO    R115296   8.829   0.877   6.864 -0.0291  0.1110  0.0029
 1156ERGO    R215297   8.998   1.008   7.038  0.0875 -0.1594  0.0920
 1156ERGO    R315298   8.767   1.073   7.165  0.1094  0.2724 -0.0708
 1156ERGO    R415299   8.955   1.005   7.380 -0.2423 -0.4294  0.0530
 1156ERGO    R515300   8.756   0.920   7.349 -0.4400  0.0827 -0.2374
 1156ERGO    C115301   8.712   1.064   7.699 -0.4138 -0.1811 -0.1226
 1156ERGO    C215302   8.619   1.199   7.945 -0.1578 -0.2666  0.2230
 1157ERGO   ROH15303   9.382  10.604   6.757  0.0804 -0.0661  0.0512
 1157ERGO    R115304   9.318  10.478   7.002 -0.0311 -0.0197  0.0466
 1157ERGO    R215305   9.470  10.511   7.231  0.0108 -0.1774  0.0447
 1157ERGO    R315306   9.232  10.585   7.339  0.0832  0.0452  0.0550
 1157ERGO    R415307   9.377  10.461   7.560 -0.0203 -0.0771  0.0512
 1157ERGO    R515308   9.177  10.409   7.492 -0.0711  0.1024  0.0653
 1157ERGO    C115309   9.099  10.501   7.853  0.0295  0.1903  0.0647
 1157ERGO    C215310   8.920  10.656   7.991  0.0650 -0.2500  0.0492
 1158ERGO   ROH15311  17.443   2.104   6.827 -0.0910 -0.1656 -0.0401
 1158ERGO    R115312  17.551   2.111   7.088 -0.2192 -0.0596  0.0112
 1158ERGO    R215313  17.442   1.970   7.298 -0.1519 -0.2074 -0.0529
 1158ERGO    R315314  17.695   1.872   7.322 -0.0434  0.0866  0.0558
 1158ERGO    R415315  17.577   1.841   7.589 -0.2240 -0.2986 -0.0593
 1158ERGO    R515316  17.765   1.941   7.541 -0.3043 -0.0167  0.1773
 1158ERGO    C115317  17.893   1.673   7.781 -0.1643 -0.0757  0.0390
 1158ERGO    C215318  17.942   1.456   8.109 -0.1191  0.1710 -0.2787
 1159ERGO   ROH15319   5.370   2.852   6.342  0.1220  0.1745 -0.0314
 1159ERGO    R115320   5.300   2.766   6.602 -0.0528  0.1922 -0.0705
 1159ERGO    R215321   5.470   2.614   6.759 -0.3055 -0.1287 -0.0914
 1159ERGO    R315322   5.428   2.814   6.939 -0.0251 -0.1176 -0.0344
 1159ERGO    R415323   5.482   2.577   7.103 -0.3633 -0.2445 -0.1020
 1159ERGO    R515324   5.309   2.708   7.118 -0.1786 -0.0016 -0.0674
 1159ERGO    C115325   5.450   2.742   7.472 -0.1338 -0.3015 -0.0549
 1159ERGO    C215326   5.473   2.685   7.785  0.2747 -0.0394 -0.1355
 1160ERGO   ROH15327   6.790   7.949   9.763 -0.0513  0.1361  0.0456
 1160ERGO    R115328   6.895   7.871   9.512 -0.0293  0.1530  0.0499
 1160ERGO    R215329   6.812   7.642   9.381  0.0093  0.1442  0.0452
 1160ERGO    R315330   6.764   7.814   9.177 -0.0051  0.1371  0.0424
 1160ERGO    R415331   6.797   7.552   9.048 -0.1158  0.1100  0.0595
 1160ERGO    R515332   6.904   7.736   8.999 -0.0784  0.0775  0.0079
 1160ERGO    C115333   6.742   7.662   8.662 -0.2021  0.0834  0.0650
 1160ERGO    C215334   6.875   7.648   8.472  0.1706 -0.1475 -0.1401
 1161ERGO   ROH15335  13.447   1.894  10.036 -0.0837  0.0868 -0.1548
 1161ERGO    R115336  13.548   1.864   9.773 -0.1057 -0.0687 -0.1463
 1161ERGO    R215337  13.397   1.761   9.566 -0.2085  0.0531 -0.1309
 1161ERGO    R315338  13.468   1.993   9.443  0.0414 -0.0427 -0.1732
 1161ERGO    R415339  13.465   1.792   9.229 -0.0116 -0.1155 -0.1087
 1161ERGO    R515340  13.630   1.926   9.279  0.0731 -0.2299 -0.0698
 1161ERGO    C115341  13.571   2.027   8.916  0.3378 -0.3036 -0.1356
 1161ERGO    C215342  13.572   2.179   8.644  0.3523 -0.1446 -0.0323
 1162ERGO   ROH15343  11.104  11.069   9.975 -0.2011 -0.0297 -0.1842
 1162ERGO    R115344  11.210  10.980   9.727 -0.1839 -0.1217 -0.1442
 1162ERGO    R215345  11.066  10.822   9.552 -0.2599  0.0095 -0.2007
 1162ERGO    R315346  11.126  11.019   9.375 -0.0128 -0.0413 -0.1773
 1162ERGO    R415347  11.028  10.798   9.210 -0.2577  0.0834 -0.2064
 1162ERGO    R515348  11.217  10.903   9.186 -0.1287 -0.1330 -0.1791
 1162ERGO    C115349  11.062  10.969   8.844 -0.0244  0.0786 -0.1878
 1162ERGO    C215350  11.042  11.020   8.559  0.1129  0.2895 -0.1295
 1163ERGO   ROH15351   5.367   3.817   6.312 -0.1003 -0.0385 -0.1485
 1163ERGO    R115352   5.375   4.045   6.479 -0.0705 -0.0221 -0.1728
 1163ERGO    R215353   5.156   4.132   6.624 -0.0482  0.0011 -0.1560
 1163ERGO    R315354   5.329   4.115   6.833 -0.0245  0.0172 -0.1738
 1163ERGO    R415355   5.109   4.281   6.932 -0.0443 -0.0198 -0.1452
 1163ERGO    R515356   5.321   4.331   6.935 -0.0495  0.0132 -0.1637
 1163ERGO    C115357   5.244   4.352   7.308 -0.0199 -0.0168 -0.1556
 1163ERGO    C215358   5.263   4.220   7.604 -0.0116 -0.0391 -0.1024
 1164ERGO   ROH15359   8.093  14.788   6.653  0.1307 -0.0455  0.0691
 1164ERGO    R115360   8.085  14.637   6.892  0.0627  0.0044  0.0978
 1164ERGO    R215361   8.244  14.415   6.933 -0.0099 -0.0339  0.1555
 1164ERGO    R315362   8.318  14.549   7.157  0.0107 -0.0147  0.1382
 1164ERGO    R415363   8.443  14.286   7.184  0.1249  0.0314  0.0838
 1164ERGO    R515364   8.315  14.384   7.330  0.1328 -0.0263  0.1319
 1164ERGO    C115365   8.630  14.337   7.541  0.2228  0.0874  0.0257
 1164ERGO    C215366   8.812  14.471   7.839 -0.0429 -0.0662  0.0603
 1165ERGO   ROH15367  10.437  13.281  10.157  0.0786  0.0288  0.0999
 1165ERGO    R115368  10.408  13.200   9.887 -0.1148 -0.0185  0.1332
 1165ERGO    R215369  10.202  13.290   9.726 -0.1061  0.1273  0.2005
 1165ERGO    R315370  10.406  13.362   9.561 -0.1099 -0.1027  0.0913
 1165ERGO    R415371  10.168  13.364   9.391 -0.2329  0.3296  0.2566
 1165ERGO    R515372  10.354  13.257   9.353 -0.4150  0.0661  0.0774
 1165ERGO    C115373  10.339  13.475   9.040 -0.3104  0.2315  0.1867
 1165ERGO    C215374  10.297  13.589   8.700  0.4107 -0.1291  0.5185
 1166ERGO   ROH15375  14.042  15.995   7.044  0.0422 -0.1777 -0.0097
 1166ERGO    R115376  14.052  15.852   7.288  0.2640 -0.0347  0.0688
 1166ERGO    R215377  14.140  15.966   7.524 -0.1103  0.3027  0.0613
 1166ERGO    R315378  13.900  15.880   7.617  0.0333 -0.2162 -0.0221
 1166ERGO    R415379  14.075  15.878   7.851 -0.0983  0.3759  0.0833
 1166ERGO    R515380  13.955  15.711   7.778  0.3441  0.0273  0.1287
 1166ERGO    C115381  13.812  15.744   8.130  0.0435 -0.0685  0.0178
 1166ERGO    C215382  13.581  15.653   8.409 -0.1270  0.1754  0.0598
 1167ERGO   ROH15383  13.125  11.566  10.194  0.1810 -0.3012 -0.0865
 1167ERGO    R115384  13.040  11.504   9.931 -0.0948 -0.1459 -0.0387
 1167ERGO    R215385  12.836  11.641   9.803  0.0635  0.2277  0.0889
 1167ERGO    R315386  13.024  11.676   9.611  0.0173 -0.1045 -0.0210
 1167ERGO    R415387  12.769  11.696   9.469 -0.0217  0.1514  0.0936
 1167ERGO    R515388  12.935  11.564   9.419 -0.2140 -0.0831  0.0751
 1167ERGO    C115389  12.907  11.761   9.093 -0.1148 -0.2049 -0.0070
 1167ERGO    C215390  12.699  11.733   8.773 -0.0637 -0.2750 -0.0889
 1168ERGO   ROH15391  11.119  12.512   6.504  0.1557 -0.0449 -0.1267
 1168ERGO    R115392  11.068  12.568   6.777  0.1556  0.1436 -0.1658
 1168ERGO    R215393  11.063  12.372   6.971 -0.0816  0.2481 -0.0729
 1168ERGO    R315394  11.246  12.532   7.093  0.0531  0.1250 -0.1074
 1168ERGO    R415395  11.138  12.365   7.309 -0.1739  0.3216 -0.0494
 1168ERGO    R515396  11.148  12.583   7.305  0.0444  0.3200 -0.1502
 1168ERGO    C115397  11.353  12.511   7.619 -0.1011  0.2488 -0.0681
 1168ERGO    C215398  11.327  12.429   7.934  0.0702 -0.3173  0.0729
 1169ERGO   ROH15399  11.381  15.138   6.748  0.0754 -0.2439 -0.0238
 1169ERGO    R115400  11.359  15.030   7.009  0.0261 -0.1806 -0.0001
 1169ERGO    R215401  11.576  15.001   7.177 -0.0104 -0.0949  0.0701
 1169ERGO    R315402  11.422  15.144   7.349 -0.0864 -0.0776 -0.0143
 1169ERGO    R415403  11.597  14.986   7.522 -0.1590 -0.0484  0.0803
 1169ERGO    R515404  11.379  14.995   7.531 -0.1603 -0.0523 -0.0134
 1169ERGO    C115405  11.463  15.113   7.884 -0.3167 -0.0050  0.0070
 1169ERGO    C215406  11.673  15.230   8.185  0.1346  0.0804  0.2067
 1170ERGO   ROH15407   6.416   6.704   6.461  0.2510  0.0521  0.1285
 1170ERGO    R115408   6.442   6.852   6.701  0.0326  0.1742  0.0797
 1170ERGO    R215409   6.259   7.046   6.777 -0.2443 -0.0461  0.0009
 1170ERGO    R315410   6.247   6.899   7.005 -0.0544  0.0108  0.0494
 1170ERGO    R415411   6.231   7.177   7.095 -0.1669  0.0255 -0.0218
 1170ERGO    R515412   6.372   7.026   7.165 -0.0501  0.1243 -0.0450
 1170ERGO    C115413   6.203   7.116   7.495  0.0565  0.1205  0.0105
 1170ERGO    C215414   6.224   7.156   7.785 -0.0765 -0.3872 -0.0490
 1171ERGO   ROH15415   1.816   6.453   9.675  0.0557  0.1958 -0.0647
 1171ERGO    R115416   1.937   6.422   9.422  0.1554  0.1187 -0.0069
 1171ERGO    R215417   1.844   6.243   9.233  0.2416  0.0528  0.0209
 1171ERGO    R315418   1.838   6.464   9.074  0.2905 -0.0043 -0.0633
 1171ERGO    R415419   1.807   6.239   8.889 -0.0449 -0.0690  0.0490
 1171ERGO    R515420   1.956   6.398   8.876  0.0802 -0.1877 -0.1370
 1171ERGO    C115421   1.781   6.443   8.540 -0.1658 -0.1936 -0.0140
 1171ERGO    C215422   1.758   6.485   8.189  0.1712 -0.2154 -0.3501
 1172ERGO   ROH15423  12.521   7.690   9.712 -0.0135  0.2855 -0.0188
 1172ERGO    R115424  12.308   7.710   9.527  0.0118  0.1912 -0.0588
 1172ERGO    R215425  12.322   7.868   9.300  0.0620  0.0361 -0.1642
 1172ERGO    R315426  12.256   7.636   9.174  0.0438 -0.0401 -0.0163
 1172ERGO    R415427  12.266   7.835   8.960 -0.0594 -0.1519 -0.1280
 1172ERGO    R515428  12.100   7.702   9.005 -0.0272 -0.1494  0.0049
 1172ERGO    C115429  12.171   7.599   8.645 -0.1473 -0.3329  0.0321
 1172ERGO    C215430  12.243   7.420   8.310 -0.0204 -0.0760 -0.4265
 1173ERGO   ROH15431  12.480  13.228   6.712 -0.0498  0.0442 -0.0531
 1173ERGO    R115432  12.687  13.099   6.855 -0.1773 -0.1712 -0.0567
 1173ERGO    R215433  12.887  13.237   6.986  0.1412 -0.3711 -0.2979
 1173ERGO    R315434  12.806  13.089   7.199  0.0022 -0.0414 -0.1163
 1173ERGO    R415435  13.097  13.116   7.232  0.0138 -0.2846 -0.1470
 1173ERGO    R515436  12.983  12.929   7.231 -0.1582 -0.1738  0.0794
 1173ERGO    C115437  13.143  12.906   7.576 -0.1909  0.0752  0.1114
 1173ERGO    C215438  13.223  12.795   7.867  0.4679 -0.0803  0.1309
 1174ERGO   ROH15439  11.003   7.449   9.791 -0.0341 -0.2672 -0.2248
 1174ERGO    R115440  10.971   7.585   9.545 -0.0474 -0.2114 -0.1924
 1174ERGO    R215441  11.134   7.539   9.327 -0.0512 -0.1529 -0.2076
 1174ERGO    R315442  10.898   7.494   9.200 -0.0525 -0.1347 -0.2118
 1174ERGO    R415443  11.101   7.474   8.989 -0.0607 -0.0284 -0.2314
 1174ERGO    R515444  10.924   7.601   8.987 -0.0773 -0.0498 -0.1731
 1174ERGO    C115445  10.859   7.393   8.673 -0.0674  0.0611 -0.2491
 1174ERGO    C215446  10.768   7.387   8.305  0.0788 -0.1708 -0.1118
 1175ERGO   ROH15447  11.519  14.822  10.196 -0.0108 -0.0966 -0.1032
 1175ERGO    R115448  11.490  14.989   9.969 -0.0659 -0.0206 -0.0417
 1175ERGO    R215449  11.643  14.958   9.741  0.0555  0.2128 -0.0005
 1175ERGO    R315450  11.400  14.945   9.619  0.1108  0.0508 -0.0950
 1175ERGO    R415451  11.586  15.020   9.406  0.1288  0.1863 -0.0175
 1175ERGO    R515452  11.403  15.124   9.461  0.0403  0.0548 -0.0847
 1175ERGO    C115453  11.326  15.043   9.096  0.2234  0.0188 -0.1163
 1175ERGO    C215454  11.378  15.067   8.766  0.1410  0.1429 -0.4125
 1176ERGO   ROH15455  13.020   6.558   6.403  0.0143  0.1673  0.0209
 1176ERGO    R115456  13.053   6.652   6.668  0.0484  0.0766  0.0502
 1176ERGO    R215457  12.839   6.703   6.836  0.0634  0.0995  0.0705
 1176ERGO    R315458  12.970   6.534   7.002  0.0096  0.0007  0.0123
 1176ERGO    R415459  12.834   6.721   7.181  0.1436  0.0234  0.0752
 1176ERGO    R515460  13.046   6.673   7.181  0.1138 -0.0814  0.0266
 1176ERGO    C115461  12.955   6.573   7.538  0.1398 -0.1135  0.0234
 1176ERGO    C215462  13.043   6.392   7.731 -0.0602 -0.1717 -0.0357
 1177ERGO   ROH15463  15.400   4.061   6.489 -0.0447 -0.0785  0.0837
 1177ERGO    R115464  15.231   4.219   6.652  0.1157 -0.0285  0.2047
 1177ERGO    R215465  14.958   4.227   6.619  0.1207  0.3096  0.1794
 1177ERGO    R315466  14.956   4.161   6.883  0.0248  0.0752  0.1221
 1177ERGO    R415467  14.723   4.337   6.848  0.2471  0.4005  0.2660
 1177ERGO    R515468  14.884   4.362   6.994  0.2714  0.0681  0.2984
 1177ERGO    C115469  14.585   4.339   7.229  0.2308  0.2334  0.2627
 1177ERGO    C215470  14.169   4.503   7.337  0.3051  0.0217 -0.1731
 1178ERGO   ROH15471   5.022  14.542  10.408 -0.0337 -0.1212 -0.0291
 1178ERGO    R115472   4.940  14.443  10.157  0.0083 -0.0087 -0.0883
 1178ERGO    R215473   4.785  14.590   9.981  0.0744  0.0864 -0.0675
 1178ERGO    R315474   4.987  14.535   9.808  0.1057  0.1207 -0.0420
 1178ERGO    R415475   4.753  14.584   9.637  0.1096  0.0502 -0.0700
 1178ERGO    R515476   4.882  14.408   9.633  0.1531  0.0805 -0.0421
 1178ERGO    C115477   4.923  14.528   9.274  0.1594  0.0612 -0.0476
 1178ERGO    C215478   4.865  14.578   8.961  0.0188  0.1202  0.1080
 1179ERGO   ROH15479   7.432   6.875  10.159 -0.0412 -0.1239  0.0145
 1179ERGO    R115480   7.560   6.716   9.962  0.0311  0.0137 -0.0531
 1179ERGO    R215481   7.465   6.467   9.887  0.2639 -0.1005  0.0013
 1179ERGO    R315482   7.472   6.576   9.638  0.0056 -0.0866 -0.0014
 1179ERGO    R415483   7.466   6.287   9.592  0.3410 -0.0880 -0.0050
 1179ERGO    R515484   7.611   6.428   9.512  0.1253  0.0917 -0.0749
 1179ERGO    C115485   7.474   6.284   9.187  0.1434 -0.0676 -0.0113
 1179ERGO    C215486   7.525   6.211   8.808 -0.1077  0.0441  0.1043
 1180ERGO   ROH15487   3.253   9.038   9.697  0.3499  0.1124  0.1441
 1180ERGO    R115488   3.336   9.214   9.492 -0.2057  0.3356  0.1021
 1180ERGO    R215489   3.452   9.125   9.258  0.1960  0.6397  0.2089
 1180ERGO    R315490   3.254   9.270   9.142 -0.2898 -0.0962  0.0399
 1180ERGO    R415491   3.439   9.210   8.923  0.3572  0.8045  0.2367
 1180ERGO    R515492   3.366   9.407   8.981 -0.5790  0.5139  0.2970
 1180ERGO    C115493   3.245   9.395   8.619 -0.0050  0.2096  0.0943
 1180ERGO    C215494   3.355   9.425   8.315  0.1026  0.1647 -0.2643
 1181ERGO   ROH15495   1.250  16.378  10.665 -0.5112  0.1244 -0.0886
 1181ERGO    R115496   1.319  16.225  10.437 -0.1563  0.1188  0.0145
 1181ERGO    R215497   1.128  16.112  10.271  0.0961 -0.2403 -0.0498
 1181ERGO    R315498   1.264  16.248  10.078  0.0076 -0.1193 -0.0259
 1181ERGO    R415499   1.062  16.095   9.932  0.1411 -0.2486 -0.0575
 1181ERGO    R515500   1.276  16.095   9.895  0.1382 -0.0840 -0.0413
 1181ERGO    C115501   1.151  16.213   9.554  0.0841 -0.1399 -0.0396
 1181ERGO    C215502   1.143  16.135   9.298  0.0418  0.2537 -0.0997
 1182ERGO   ROH15503   0.548   7.109   9.414  0.0795 -0.1039 -0.0077
 1182ERGO    R115504   0.525   7.196   9.145  0.1103 -0.0483  0.0046
 1182ERGO    R215505   0.737   7.189   8.968  0.1236 -0.0681  0.0017
 1182ERGO    R315506   0.563   7.047   8.816  0.0889 -0.0033 -0.0145
 1182ERGO    R415507   0.732   7.190   8.623 -0.1214  0.2402  0.0032
 1182ERGO    R515508   0.514   7.191   8.631 -0.1062  0.1338  0.1518
 1182ERGO    C115509   0.566   7.056   8.278 -0.2967  0.4805 -0.0111
 1182ERGO    C215510   0.642   6.967   7.931 -0.2428 -0.0860  0.1443
 1183ERGO   ROH15511  10.958  11.073   6.466  0.0140 -0.1651 -0.1335
 1183ERGO    R115512  10.984  11.136   6.741 -0.0352 -0.0201 -0.1610
 1183ERGO    R215513  10.800  11.056   6.930  0.0396 -0.1011 -0.1217
 1183ERGO    R315514  11.019  10.951   7.053  0.1366  0.1470 -0.0790
 1183ERGO    R415515  10.837  11.026   7.272 -0.2326 -0.5395 -0.1222
 1183ERGO    R515516  11.046  11.087   7.249 -0.3201 -0.0831  0.1596
 1183ERGO    C115517  11.064  10.911   7.587 -0.3000 -0.5619 -0.0824
 1183ERGO    C215518  10.978  10.963   7.950 -0.2052 -0.1460  0.1726
 1184ERGO   ROH15519  15.316   2.626  10.200  0.2736 -0.0233  0.0537
 1184ERGO    R115520  15.184   2.605   9.950  0.2515  0.0572  0.0566
 1184ERGO    R215521  15.226   2.783   9.743  0.2371  0.1255  0.1034
 1184ERGO    R315522  15.282   2.557   9.603  0.2254  0.1663  0.0359
 1184ERGO    R415523  15.227   2.760   9.398 -0.1147  0.1321  0.1003
 1184ERGO    R515524  15.132   2.565   9.416  0.0251  0.0781  0.1955
 1184ERGO    C115525  15.279   2.534   9.066 -0.3306  0.1743  0.0352
 1184ERGO    C215526  15.284   2.480   8.751 -0.1287  0.0313 -0.0274
 1185ERGO   ROH15527  12.357   6.364   9.792  0.0122 -0.1140 -0.1211
 1185ERGO    R115528  12.401   6.316   9.517 -0.0004 -0.1165 -0.1224
 1185ERGO    R215529  12.404   6.061   9.409 -0.1020 -0.1114 -0.1361
 1185ERGO    R315530  12.216   6.164   9.242 -0.0554 -0.0253 -0.1367
 1185ERGO    R415531  12.337   5.945   9.091 -0.0236  0.0387 -0.2092
 1185ERGO    R515532  12.315   6.151   9.025  0.0017  0.0724 -0.1184
 1185ERGO    C115533  12.120   5.973   8.749  0.0659  0.2069 -0.2522
 1185ERGO    C215534  12.034   5.732   8.526  0.1296 -0.0071 -0.1905
 1186ERGO   ROH15535   7.771   7.677  10.059  0.1435  0.1850 -0.1266
 1186ERGO    R115536   7.815   7.755   9.790  0.0940  0.0234 -0.1842
 1186ERGO    R215537   7.940   7.590   9.606 -0.1134 -0.1699 -0.1677
 1186ERGO    R315538   7.715   7.635   9.461 -0.1434 -0.0560 -0.0837
 1186ERGO    R415539   7.920   7.570   9.262 -0.2327 -0.0530 -0.1666
 1186ERGO    R515540   7.792   7.747   9.264 -0.1763 -0.0192 -0.0710
 1186ERGO    C115541   7.696   7.601   8.925 -0.3303  0.1222 -0.0871
 1186ERGO    C215542   7.690   7.595   8.611 -0.0817  0.0926  0.1034
 1187ERGO   ROH15543   5.100   8.707   6.379  0.5265  0.0882  0.0160
 1187ERGO    R115544   5.286   8.610   6.569  0.3354 -0.1099  0.1042
 1187ERGO    R215545   5.332   8.736   6.810  0.3568 -0.1586  0.1175
 1187ERGO    R315546   5.275   8.491   6.913  0.0530 -0.0987  0.1040
 1187ERGO    R415547   5.374   8.645   7.141  0.5736 -0.3072  0.0523
 1187ERGO    R515548   5.448   8.452   7.073  0.1802 -0.4274 -0.0922
 1187ERGO    C115549   5.345   8.362   7.430  0.4147 -0.3375  0.0017
 1187ERGO    C215550   5.433   8.190   7.838  0.0514  0.0248  0.1100
 1188ERGO   ROH15551   8.426  12.278   6.160  0.1704 -0.1014 -0.0424
 1188ERGO    R115552   8.515  12.178   6.409  0.1853  0.0905  0.0312
 1188ERGO    R215553   8.596  12.344   6.616 -0.1741  0.2687  0.0425
 1188ERGO    R315554   8.410  12.205   6.757 -0.0505  0.0206 -0.0338
 1188ERGO    R415555   8.583  12.325   6.960 -0.1104 -0.0230  0.0316
 1188ERGO    R515556   8.531  12.114   6.942  0.0396 -0.0432 -0.1271
 1188ERGO    C115557   8.400  12.184   7.294  0.0428 -0.4259 -0.0464
 1188ERGO    C215558   8.573  12.063   7.632  0.0081 -0.2579  0.2065
 1189ERGO   ROH15559   3.876   9.024   6.091  0.0651  0.1199 -0.0440
 1189ERGO    R115560   3.725   9.162   6.286  0.1030  0.1429 -0.0301
 1189ERGO    R215561   3.678   9.434   6.274  0.0229  0.1292 -0.1030
 1189ERGO    R315562   3.418   9.358   6.292  0.0517  0.0599  0.0214
 1189ERGO    R415563   3.422   9.633   6.392 -0.0058  0.1129 -0.1379
 1189ERGO    R515564   3.341   9.459   6.495  0.0807  0.1487 -0.0148
 1189ERGO    C115565   3.029   9.678   6.479  0.0045  0.0383 -0.0414
 1189ERGO    C215566   2.733   9.702   6.392 -0.3129  0.1028  0.0042
 1190ERGO   ROH15567   5.940  16.018   7.124  0.0376 -0.0768 -0.1183
 1190ERGO    R115568   5.961  16.139   7.379  0.0771 -0.1957 -0.0637
 1190ERGO    R215569   5.829  16.373   7.445  0.3504 -0.0381 -0.0439
 1190ERGO    R315570   5.736  16.223   7.652  0.0533  0.0036 -0.1440
 1190ERGO    R415571   5.690  16.501   7.734  0.2940  0.0296 -0.1015
 1190ERGO    R515572   5.796  16.348   7.847  0.0567 -0.1145 -0.0708
 1190ERGO    C115573   5.521  16.435   8.097 -0.0178  0.1080 -0.2290
 1190ERGO    C215574   5.419  16.558   8.268  0.4730  0.0522  0.1005
 1191ERGO   ROH15575   5.322   6.538   6.608  0.1603 -0.0784  0.0561
 1191ERGO    R115576   5.336   6.711   6.832  0.0083 -0.1272  0.1035
 1191ERGO    R215577   5.113   6.781   6.980 -0.0887 -0.1697 -0.0280
 1191ERGO    R315578   5.263   6.690   7.188 -0.2218 -0.2053  0.0548
 1191ERGO    R415579   5.107   6.912   7.300 -0.0424  0.0123 -0.0997
 1191ERGO    R515580   5.324   6.888   7.308 -0.0608 -0.1920 -0.0389
 1191ERGO    C115581   5.244   6.902   7.681 -0.1405  0.0849 -0.0637
 1191ERGO    C215582   5.370   7.096   7.949 -0.3034  0.3763 -0.0287
 1192ERGO   ROH15583  13.464  15.203   6.811 -0.1139 -0.1259  0.0100
 1192ERGO    R115584  13.440  15.045   7.045  0.0148 -0.0822  0.0538
 1192ERGO    R215585  13.634  15.040   7.242  0.0249  0.1216  0.0511
 1192ERGO    R315586  13.426  15.103   7.404 -0.0214  0.0041  0.0385
 1192ERGO    R415587  13.594  14.927   7.566  0.0145  0.0133  0.0124
 1192ERGO    R515588  13.381  14.902   7.526  0.0283 -0.0472 -0.0268
 1192ERGO    C115589  13.374  14.921   7.907 -0.0350 -0.1601 -0.0221
 1192ERGO    C215590  13.416  15.086   8.276  0.0700  0.1001 -0.0734
 1193ERGO   ROH15591   8.218   7.662   6.670  0.0073 -0.2564  0.0305
 1193ERGO    R115592   8.371   7.535   6.872 -0.0400 -0.2150  0.0927
 1193ERGO    R215593   8.521   7.676   7.056  0.1060 -0.1816 -0.0502
 1193ERGO    R315594   8.378   7.531   7.235  0.0392  0.0597  0.0967
 1193ERGO    R415595   8.568   7.683   7.398  0.3653 -0.1397 -0.0847
 1193ERGO    R515596   8.538   7.467   7.402  0.0801 -0.1034 -0.0017
 1193ERGO    C115597   8.462   7.550   7.766  0.4537  0.1112  0.0330
 1193ERGO    C215598   8.482   7.457   8.192 -0.0145 -0.0111  0.0801
 1194ERGO   ROH15599   1.675  12.591   6.534  0.3535 -0.1067 -0.0578
 1194ERGO    R115600   1.685  12.380   6.721  0.4804 -0.0158  0.0398
 1194ERGO    R215601   1.819  12.400   6.962  0.1185  0.3297  0.2230
 1194ERGO    R315602   1.578  12.326   7.065  0.0992 -0.0627 -0.0805
 1194ERGO    R415603   1.772  12.270   7.279 -0.0733  0.3020  0.1844
 1194ERGO    R515604   1.627  12.130   7.194  0.2681  0.0369  0.0117
 1194ERGO    C115605   1.519  12.124   7.560 -0.2030 -0.0825 -0.1231
 1194ERGO    C215606   1.711  12.229   7.944 -0.0206 -0.2451  0.4080
 1195ERGO   ROH15607   7.558  15.304  10.293 -0.3104 -0.2109  0.0845
 1195ERGO    R115608   7.642  15.329  10.023 -0.2341 -0.0689  0.1228
 1195ERGO    R215609   7.646  15.115   9.848 -0.3087  0.0569 -0.0170
 1195ERGO    R315610   7.493  15.280   9.695 -0.1791  0.2413  0.0451
 1195ERGO    R415611   7.648  15.124   9.502 -0.5208 -0.0591 -0.0251
 1195ERGO    R515612   7.635  15.341   9.512 -0.1976 -0.0202 -0.0724
 1195ERGO    C115613   7.506  15.284   9.158 -0.5225  0.0465  0.0284
 1195ERGO    C215614   7.476  15.171   8.828  0.1908 -0.0000  0.0095
 1196ERGO   ROH15615  15.804  13.571  10.450 -0.0153 -0.3671 -0.0183
 1196ERGO    R115616  15.949  13.557  10.208 -0.0340 -0.1581 -0.0442
 1196ERGO    R215617  15.873  13.394   9.998  0.0157 -0.0695 -0.1369
 1196ERGO    R315618  15.883  13.625   9.856 -0.1041  0.0229  0.0042
 1196ERGO    R415619  15.866  13.416   9.653  0.0924  0.1403 -0.1259
 1196ERGO    R515620  16.016  13.573   9.665 -0.0197  0.2335  0.0064
 1196ERGO    C115621  15.872  13.646   9.320  0.0246  0.3493  0.0129
 1196ERGO    C215622  15.888  13.714   8.967 -0.0059 -0.1143 -0.0674
 1197ERGO   ROH15623  16.993   3.897   6.224  0.1981 -0.1651  0.0596
 1197ERGO    R115624  17.085   3.954   6.486  0.1267 -0.1100  0.0728
 1197ERGO    R215625  16.964   4.142   6.648  0.1035 -0.0510 -0.0125
 1197ERGO    R315626  16.950   3.935   6.823  0.0219 -0.0036  0.0378
 1197ERGO    R415627  16.841   4.165   6.970  0.0308  0.0562 -0.0470
 1197ERGO    R515628  17.003   4.033   7.036 -0.0096  0.0413  0.0253
 1197ERGO    C115629  16.756   3.983   7.323 -0.0882  0.1631 -0.0200
 1197ERGO    C215630  16.576   4.181   7.611  0.1325 -0.3142  0.1668
 1198ERGO   ROH15631   9.932  12.762   6.508 -0.0419 -0.1525  0.1190
 1198ERGO    R115632   9.723  12.782   6.699 -0.1064  0.0718  0.0278
 1198ERGO    R215633   9.753  12.701   6.961 -0.2983  0.0678  0.0479
 1198ERGO    R315634   9.669  12.953   7.015 -0.0753  0.1578 -0.0128
 1198ERGO    R415635   9.656  12.813   7.273 -0.0426  0.2770  0.0562
 1198ERGO    R515636   9.494  12.925   7.176 -0.0120  0.3600  0.0969
 1198ERGO    C115637   9.520  13.116   7.505  0.3156  0.4834  0.0042
 1198ERGO    C215638   9.676  13.332   7.780  0.0670  0.1035  0.2328
 1199ERGO   ROH15639  16.173  15.617   7.169 -0.2887 -0.1294  0.0523
 1199ERGO    R115640  16.313  15.582   7.413 -0.2092 -0.0672  0.0150
 1199ERGO    R215641  16.197  15.632   7.659 -0.2069 -0.2399  0.0472
 1199ERGO    R315642  16.277  15.377   7.711  0.0389 -0.1826 -0.0305
 1199ERGO    R415643  16.225  15.493   7.975 -0.2211 -0.3468  0.0026
 1199ERGO    R515644  16.408  15.395   7.910 -0.0773 -0.1260  0.0464
 1199ERGO    C115645  16.316  15.174   8.207  0.0016 -0.3553 -0.0963
 1199ERGO    C215646  16.177  15.104   8.400  0.1737 -0.2884 -0.2295
 1200ERGO   ROH15647   2.424  14.138  10.463 -0.0540 -0.2122 -0.0810
 1200ERGO    R115648   2.413  14.317  10.244 -0.0901 -0.1348 -0.0157
 1200ERGO    R215649   2.635  14.380  10.093 -0.1265 -0.1186 -0.0568
 1200ERGO    R315650   2.477  14.301   9.887 -0.1980 -0.0192 -0.0418
 1200ERGO    R415651   2.716  14.413   9.758 -0.1540 -0.1227 -0.0643
 1200ERGO    R515652   2.509  14.469   9.719 -0.1358 -0.0140 -0.0288
 1200ERGO    C115653   2.615  14.357   9.370 -0.2371 -0.0319 -0.0547
 1200ERGO    C215654   2.524  14.288   8.985  0.0446  0.0827 -0.1988
 1201ERGO   ROH15655   0.789   1.563   6.491 -0.0022 -0.0438 -0.1156
 1201ERGO    R115656   0.949   1.449   6.695  0.0653  0.2956  0.0297
 1201ERGO    R215657   1.003   1.579   6.933 -0.4913  0.3903  0.1237
 1201ERGO    R315658   0.905   1.351   7.042 -0.0746  0.1249 -0.0367
 1201ERGO    R415659   1.073   1.467   7.252 -0.3938  0.3520  0.0882
 1201ERGO    R515660   1.086   1.264   7.172  0.0481  0.4173 -0.0145
 1201ERGO    C115661   1.022   1.186   7.540  0.0540  0.0806 -0.0832
 1201ERGO    C215662   0.787   1.137   7.769 -0.0446 -0.0579 -0.2591
 1202ERGO   ROH15663   2.830  13.325   6.848  0.4477  0.3654  0.1698
 1202ERGO    R115664   3.014  13.335   7.063  0.2691  0.2910  0.3302
 1202ERGO    R215665   2.955  13.458   7.303 -0.0138  0.0174  0.4109
 1202ERGO    R315666   3.026  13.216   7.406  0.0735 -0.0363  0.2273
 1202ERGO    R415667   3.057  13.405   7.629  0.0128 -0.1945  0.3687
 1202ERGO    R515668   3.208  13.266   7.554  0.0583 -0.0850  0.2598
 1202ERGO    C115669   3.182  13.148   7.916  0.1103 -0.3682  0.1717
 1202ERGO    C215670   3.243  13.103   8.186 -0.1154 -0.2190  0.1584
 1203ERGO   ROH15671   5.370  11.919   6.316  0.1762  0.0490 -0.1124
 1203ERGO    R115672   5.274  11.835   6.569  0.0156  0.1583 -0.1366
 1203ERGO    R215673   5.438  11.720   6.759 -0.1375  0.1068 -0.0432
 1203ERGO    R315674   5.339  11.918   6.917 -0.0945  0.1932 -0.1219
 1203ERGO    R415675   5.409  11.702   7.103 -0.1933  0.2149 -0.0412
 1203ERGO    R515676   5.216  11.803   7.087 -0.1627  0.2803 -0.1043
 1203ERGO    C115677   5.299  11.878   7.452 -0.1854  0.3591 -0.1140
 1203ERGO    C215678   5.548  11.925   7.728 -0.1050  0.4130 -0.1104
 1204ERGO   ROH15679   9.901  13.785   6.457  0.1411  0.0827  0.0760
 1204ERGO    R115680   9.884  13.891   6.719  0.0102  0.0586  0.0785
 1204ERGO    R215681  10.081  13.853   6.908 -0.0668  0.0662  0.1671
 1204ERGO    R315682  10.076  14.124   6.922 -0.1080  0.0643  0.1818
 1204ERGO    R415683  10.185  14.037   7.181  0.3956  0.0971 -0.0206
 1204ERGO    R515684  10.015  14.170   7.149  0.3030  0.0512  0.2988
 1204ERGO    C115685  10.241  14.400   7.353  0.6263  0.1133 -0.1161
 1204ERGO    C215686  10.336  14.603   7.597 -0.0032  0.0820 -0.3979
 1205ERGO   ROH15687   3.780  11.999   6.445  0.0263  0.2683 -0.1678
 1205ERGO    R115688   3.920  11.972   6.690  0.0562  0.2829 -0.1832
 1205ERGO    R215689   3.864  12.128   6.911 -0.0134  0.1992 -0.1411
 1205ERGO    R315690   3.837  11.887   7.034  0.1230  0.1539 -0.1985
 1205ERGO    R415691   3.855  12.080   7.254 -0.0871  0.1249 -0.1532
 1205ERGO    R515692   3.978  11.902   7.227  0.0516  0.2186 -0.1508
 1205ERGO    C115693   3.825  11.826   7.568 -0.0019  0.0392 -0.2142
 1205ERGO    C215694   3.719  11.840   7.931 -0.1109  0.1178  0.2249
 1206ERGO   ROH15695   2.991   9.027   6.170 -0.0084  0.2380  0.0804
 1206ERGO    R115696   2.917   9.227   6.357 -0.3102  0.0654  0.1541
 1206ERGO    R215697   2.729   9.184   6.554 -0.0564 -0.3849  0.3149
 1206ERGO    R315698   2.929   9.268   6.718 -0.0953  0.0613  0.1492
 1206ERGO    R415699   2.683   9.306   6.874 -0.0617 -0.5600  0.3818
 1206ERGO    R515700   2.836   9.456   6.834 -0.4491 -0.1762  0.2700
 1206ERGO    C115701   2.845   9.455   7.215 -0.1013 -0.2431  0.2651
 1206ERGO    C215702   2.895   9.587   7.577 -0.0632  0.1428 -0.2741
 1207ERGO   ROH15703  16.152   6.649   5.984  0.0403  0.1192 -0.0480
 1207ERGO    R115704  16.282   6.598   6.230  0.0325  0.1608 -0.0345
 1207ERGO    R215705  16.427   6.790   6.366  0.0975  0.1639 -0.1008
 1207ERGO    R315706  16.262   6.724   6.571  0.0804  0.2812 -0.0767
 1207ERGO    R415707  16.483   6.868   6.697  0.1125  0.2648 -0.1272
 1207ERGO    R515708  16.410   6.670   6.751  0.0614  0.3065 -0.0571
 1207ERGO    C115709  16.362   6.851   7.084  0.1055  0.4336 -0.1200
 1207ERGO    C215710  16.244   6.817   7.475  0.2517 -0.1493  0.0815
 1208ERGO   ROH15711  12.633   2.624   6.490  0.1947  0.2448 -0.2876
 1208ERGO    R115712  12.544   2.703   6.747  0.0879  0.0846 -0.2739
 1208ERGO    R215713  12.713   2.721   6.965 -0.0006 -0.0378 -0.1958
 1208ERGO    R315714  12.616   2.974   6.979 -0.0198 -0.0512 -0.0792
 1208ERGO    R415715  12.738   2.926   7.242 -0.0788 -0.1902 -0.0741
 1208ERGO    R515716  12.534   2.993   7.204 -0.0752 -0.1816 -0.0862
 1208ERGO    C115717  12.660   3.283   7.417 -0.1425 -0.2915  0.1063
 1208ERGO    C215718  12.710   3.544   7.645  0.0596 -0.0377  0.1585
 1209ERGO   ROH15719   5.841  11.147   9.962 -0.0583 -0.0172  0.0297
 1209ERGO    R115720   5.823  11.149   9.680  0.0029 -0.1071  0.0252
 1209ERGO    R215721   5.589  11.206   9.546  0.0644 -0.0214 -0.0430
 1209ERGO    R315722   5.743  11.393   9.421  0.1959 -0.1522 -0.0801
 1209ERGO    R415723   5.535  11.325   9.225 -0.0836  0.2210  0.0686
 1209ERGO    R515724   5.751  11.321   9.193 -0.1113 -0.0442 -0.1319
 1209ERGO    C115725   5.648  11.569   8.922 -0.0463  0.2394  0.0985
 1209ERGO    C215726   5.512  11.531   8.479 -0.2285 -0.2140 -0.1058
 1210ERGO   ROH15727   4.942   2.503  10.093  0.0113 -0.0534 -0.0190
 1210ERGO    R115728   4.958   2.320   9.877  0.0457 -0.0962  0.0181
 1210ERGO    R215729   4.773   2.316   9.672  0.0046 -0.2201  0.0506
 1210ERGO    R315730   4.994   2.341   9.516 -0.0337 -0.1590  0.0076
 1210ERGO    R415731   4.781   2.262   9.331 -0.0342 -0.2442  0.0544
 1210ERGO    R515732   4.974   2.164   9.356 -0.0002 -0.1752  0.0260
 1210ERGO    C115733   4.993   2.253   8.985 -0.0929 -0.2008  0.0162
 1210ERGO    C215734   4.960   2.124   8.599 -0.0020  0.1153 -0.1087
 1211ERGO   ROH15735   0.349   9.826   6.163  0.0284  0.1219  0.0749
 1211ERGO    R115736   0.406   9.901   6.430  0.1394  0.4652 -0.0385
 1211ERGO    R215737   0.328  10.143   6.536 -0.4682  0.3260 -0.1071
 1211ERGO    R315738   0.214   9.988   6.727  0.2222  0.0777  0.1316
 1211ERGO    R415739   0.244  10.252   6.853 -0.4457  0.2572 -0.0785
 1211ERGO    R515740   0.316  10.061   6.932  0.2370  0.5179 -0.0314
 1211ERGO    C115741   0.088  10.169   7.217  0.2155 -0.0159  0.1623
 1211ERGO    C215742  -0.124  10.388   7.526 -0.3106 -0.1552 -0.1032
 1212ERGO   ROH15743   1.892   0.999   6.512  0.3947  0.0983 -0.1029
 1212ERGO    R115744   2.051   1.087   6.729  0.2496  0.0467  0.0264
 1212ERGO    R215745   1.944   1.221   6.947  0.1140  0.0675 -0.0510
 1212ERGO    R315746   2.069   1.023   7.086 -0.0489  0.0281  0.0408
 1212ERGO    R415747   2.012   1.230   7.286  0.0501  0.1352 -0.0401
 1212ERGO    R515748   2.206   1.139   7.245 -0.0022 -0.0112  0.0297
 1212ERGO    C115749   2.169   1.051   7.614 -0.1400  0.1377  0.0525
 1212ERGO    C215750   2.012   1.027   7.905  0.1679  0.0009 -0.1340
 1213ERGO   ROH15751  11.362  10.231   6.445 -0.0485  0.1878  0.1621
 1213ERGO    R115752  11.582  10.215   6.623  0.0261  0.0626  0.0624
 1213ERGO    R215753  11.604  10.375   6.847  0.2633  0.1151  0.0134
 1213ERGO    R315754  11.632  10.136   6.974  0.1247  0.1241  0.0602
 1213ERGO    R415755  11.796  10.322   7.129  0.3784  0.0071 -0.0857
 1213ERGO    R515756  11.860  10.132   7.044  0.1576 -0.0682 -0.0706
 1213ERGO    C115757  11.935  10.067   7.413  0.3155 -0.0473 -0.0995
 1213ERGO    C215758  11.906   9.889   7.812 -0.1349 -0.1042 -0.1872
 1214ERGO   ROH15759   9.908  17.666   7.105  0.0366  0.0328 -0.2075
 1214ERGO    R115760   9.841  17.479   7.307  0.2167  0.1234 -0.0621
 1214ERGO    R215761   9.888  17.528   7.575 -0.0199  0.4700 -0.0773
 1214ERGO    R315762   9.623  17.472   7.598  0.0498  0.0648 -0.1873
 1214ERGO    R415763   9.728  17.452   7.872 -0.0455  0.3157 -0.1298
 1214ERGO    R515764   9.613  17.300   7.765  0.2384  0.0995 -0.1381
 1214ERGO    C115765   9.386  17.355   8.066  0.0052 -0.1548 -0.2637
 1214ERGO    C215766   9.238  17.196   8.337  0.3628  0.2356 -0.2488
 1215ERGO   ROH15767   5.746   0.547  10.499 -0.0837 -0.2237 -0.0018
 1215ERGO    R115768   5.640   0.619  10.246 -0.0530 -0.0772  0.0262
 1215ERGO    R215769   5.775   0.786  10.071  0.0690 -0.1509  0.0470
 1215ERGO    R315770   5.738   0.579   9.898 -0.1274 -0.0833  0.0060
 1215ERGO    R415771   5.802   0.808   9.727 -0.1642 -0.0532  0.0335
 1215ERGO    R515772   5.628   0.678   9.710 -0.2243  0.0160  0.1134
 1215ERGO    C115773   5.783   0.627   9.365 -0.4844  0.0673 -0.0128
 1215ERGO    C215774   5.811   0.562   9.027 -0.1137 -0.0730  0.3109
 1216ERGO   ROH15775   9.485   2.832  10.228 -0.1004  0.3233 -0.1559
 1216ERGO    R115776   9.464   2.881   9.950 -0.0415  0.2310 -0.1768
 1216ERGO    R215777   9.675   2.843   9.775 -0.0211  0.1210 -0.1274
 1216ERGO    R315778   9.496   2.685   9.644 -0.0345  0.1169 -0.1041
 1216ERGO    R415779   9.662   2.802   9.433 -0.0119  0.0625 -0.1209
 1216ERGO    R515780   9.444   2.808   9.445 -0.0134  0.0889 -0.1284
 1216ERGO    C115781   9.486   2.631   9.110 -0.0189  0.0246 -0.0952
 1216ERGO    C215782   9.470   2.716   8.835  0.0210  0.1939  0.0995
 1217ERGO   ROH15783  15.711  11.444   6.631 -0.3799 -0.0677 -0.0232
 1217ERGO    R115784  15.613  11.178   6.633 -0.1209 -0.1662 -0.0128
 1217ERGO    R215785  15.770  10.961   6.562  0.1301 -0.0322  0.1140
 1217ERGO    R315786  15.694  10.868   6.806  0.0990 -0.0493  0.0977
 1217ERGO    R415787  15.835  10.644   6.682 -0.0089 -0.0873  0.0457
 1217ERGO    R515788  15.634  10.640   6.768 -0.0064 -0.0144  0.0532
 1217ERGO    C115789  15.802  10.372   6.981 -0.1189 -0.1355 -0.0095
 1217ERGO    C215790  16.001  10.217   7.273  0.0056  0.2368  0.1609
 1218ERGO   ROH15791  12.330  16.543  10.408 -0.0965  0.0569  0.1137
 1218ERGO    R115792  12.339  16.455  10.140 -0.3239  0.0483  0.1042
 1218ERGO    R215793  12.178  16.561   9.942 -0.2096  0.3380  0.1458
 1218ERGO    R315794  12.415  16.601   9.815 -0.1644 -0.0573  0.0965
 1218ERGO    R415795  12.217  16.587   9.599 -0.1738  0.0322  0.1253
 1218ERGO    R515796  12.400  16.469   9.616 -0.3301 -0.1811  0.2004
 1218ERGO    C115797  12.463  16.640   9.282 -0.1104 -0.5170  0.0671
 1218ERGO    C215798  12.341  16.663   8.971 -0.1707 -0.1130  0.1476
 1219ERGO   ROH15799   5.057   5.208   6.495 -0.0035  0.2661 -0.0630
 1219ERGO    R115800   4.877   5.117   6.693  0.0341  0.0975 -0.1040
 1219ERGO    R215801   4.925   5.145   6.964  0.0499 -0.0618 -0.0843
 1219ERGO    R315802   4.681   5.265   6.962  0.0232 -0.1158  0.0062
 1219ERGO    R415803   4.732   5.206   7.244  0.1277 -0.1157 -0.0196
 1219ERGO    R515804   4.556   5.149   7.129  0.1045 -0.1471  0.0407
 1219ERGO    C115805   4.391   5.354   7.405  0.1479 -0.1979  0.1031
 1219ERGO    C215806   4.249   5.642   7.535 -0.1472  0.3508 -0.0377
 1220ERGO   ROH15807   7.144  14.988   6.894 -0.0361  0.2678  0.1141
 1220ERGO    R115808   7.023  14.983   7.150 -0.0082  0.0742  0.1251
 1220ERGO    R215809   6.981  14.748   7.290  0.1201 -0.0219  0.0075
 1220ERGO    R315810   7.118  14.878   7.485  0.0770 -0.0565  0.0606
 1220ERGO    R415811   6.884  14.766   7.621  0.1005 -0.1641  0.0101
 1220ERGO    R515812   6.948  14.974   7.624  0.0470 -0.1494  0.0875
 1220ERGO    C115813   6.957  14.899   7.997  0.0487 -0.2795  0.0614
 1220ERGO    C215814   7.015  14.863   8.267 -0.1855  0.0186 -0.3189
 1221ERGO   ROH15815  14.804   5.645   9.412  0.0606  0.0590 -0.0228
 1221ERGO    R115816  14.804   5.662   9.130 -0.0943  0.0378 -0.0254
 1221ERGO    R215817  14.814   5.438   8.968 -0.1121  0.0270 -0.0154
 1221ERGO    R315818  14.591   5.547   8.858 -0.2046 -0.0487  0.0973
 1221ERGO    R415819  14.683   5.352   8.660 -0.1350  0.1180 -0.0310
 1221ERGO    R515820  14.640   5.563   8.625 -0.2718  0.1103  0.0943
 1221ERGO    C115821  14.397   5.404   8.378 -0.2353  0.0998  0.0658
 1221ERGO    C215822  14.189   5.157   8.202  0.1446 -0.2325 -0.2042
 1222ERGO   ROH15823   5.091   7.440   9.829  0.1990  0.4141  0.1307
 1222ERGO    R115824   5.149   7.586   9.593  0.0013  0.2364 -0.0331
 1222ERGO    R215825   5.363   7.524   9.429  0.0410  0.2929 -0.0115
 1222ERGO    R315826   5.171   7.514   9.237  0.0093 -0.1120  0.0353
 1222ERGO    R415827   5.426   7.509   9.090 -0.0153  0.3834 -0.0254
 1222ERGO    R515828   5.260   7.648   9.058 -0.3035  0.0489 -0.0013
 1222ERGO    C115829   5.283   7.491   8.711 -0.0779  0.0560  0.0106
 1222ERGO    C215830   5.432   7.386   8.404  0.1008  0.2882  0.2972
 1223ERGO   ROH15831  10.932   0.109   7.066 -0.1179  0.2079 -0.0620
 1223ERGO    R115832  11.169   0.230   7.162 -0.0852  0.1274 -0.0413
 1223ERGO    R215833  11.167   0.445   7.334 -0.0279  0.1641 -0.0875
 1223ERGO    R315834  11.326   0.285   7.486 -0.1242  0.1290 -0.0222
 1223ERGO    R415835  11.327   0.544   7.624 -0.0282  0.1670 -0.0882
 1223ERGO    R515836  11.502   0.430   7.560 -0.0691  0.0695 -0.0329
 1223ERGO    C115837  11.570   0.451   7.935 -0.1188  0.1356 -0.0274
 1223ERGO    C215838  11.626   0.414   8.232 -0.1032  0.1844 -0.1887
 1224ERGO   ROH15839  11.077   5.752   9.953 -0.0530  0.1203 -0.1117
 1224ERGO    R115840  10.920   5.719   9.719 -0.0449  0.1870 -0.1265
 1224ERGO    R215841  10.941   5.886   9.501  0.0850  0.1469 -0.1449
 1224ERGO    R315842  10.981   5.653   9.367 -0.0413  0.1045 -0.1108
 1224ERGO    R415843  10.835   5.824   9.178  0.0114  0.1388 -0.1196
 1224ERGO    R515844  10.780   5.623   9.240 -0.0733  0.1749 -0.0773
 1224ERGO    C115845  10.811   5.569   8.863 -0.1502  0.0942 -0.0730
 1224ERGO    C215846  10.857   5.544   8.529 -0.0905  0.2107  0.0905
 1225ERGO   ROH15847  15.901   9.104   9.573  0.2691  0.0858 -0.1350
 1225ERGO    R115848  15.784   9.069   9.317  0.0267  0.2760 -0.0556
 1225ERGO    R215849  15.762   9.275   9.135  0.2646  0.3132 -0.0510
 1225ERGO    R315850  15.892   9.100   8.971 -0.1498  0.0669 -0.1306
 1225ERGO    R415851  15.783   9.305   8.791  0.2117  0.3284 -0.0524
 1225ERGO    R515852  15.754   9.089   8.775 -0.2428  0.3862 -0.0851
 1225ERGO    C115853  15.917   9.159   8.437 -0.2082  0.1061 -0.1280
 1225ERGO    C215854  16.028   9.296   8.202  0.2722 -0.0156  0.0718
 1226ERGO   ROH15855   7.429   6.612   6.395  0.0212 -0.2214  0.1232
 1226ERGO    R115856   7.347   6.538   6.656  0.1015 -0.2279  0.1468
 1226ERGO    R215857   7.504   6.578   6.879 -0.0132  0.1857  0.1607
 1226ERGO    R315858   7.283   6.706   6.972 -0.2735 -0.1601  0.0402
 1226ERGO    R415859   7.392   6.566   7.206  0.0352  0.2978  0.1821
 1226ERGO    R515860   7.188   6.553   7.130  0.0469 -0.1960  0.2058
 1226ERGO    C115861   7.120   6.680   7.483 -0.1811  0.0386  0.0813
 1226ERGO    C215862   7.005   6.509   7.707 -0.0344 -0.0177 -0.1369
 1227ERGO   ROH15863   6.112  17.668   6.289 -0.1932 -0.0854  0.2152
 1227ERGO    R115864   6.205  17.724   6.550 -0.0540  0.1501  0.1183
 1227ERGO    R215865   6.046  17.845   6.741 -0.0214  0.1338  0.1568
 1227ERGO    R315866   6.114  17.627   6.889  0.2648  0.2774  0.2429
 1227ERGO    R415867   5.974  17.805   7.077 -0.1225  0.0968  0.1311
 1227ERGO    R515868   6.173  17.718   7.104  0.0118  0.4275  0.2515
 1227ERGO    C115869   5.997  17.577   7.411  0.0874  0.2103  0.1970
 1227ERGO    C215870   5.733  17.398   7.590 -0.3227  0.1174  0.1995
 1228ERGO   ROH15871   7.667   3.452  10.377  0.5795  0.3297 -0.2435
 1228ERGO    R115872   7.518   3.407  10.140  0.2646  0.2185 -0.0321
 1228ERGO    R215873   7.512   3.588   9.931  0.0125  0.1109 -0.1288
 1228ERGO    R315874   7.590   3.373   9.785 -0.1962  0.0249 -0.1130
 1228ERGO    R415875   7.442   3.540   9.596  0.0805  0.2200 -0.1579
 1228ERGO    R515876   7.405   3.330   9.639 -0.1933  0.2609 -0.1864
 1228ERGO    C115877   7.474   3.309   9.264 -0.0756  0.2027 -0.1601
 1228ERGO    C215878   7.555   3.302   8.900  0.0237 -0.0297  0.2834
 1229ERGO   ROH15879   9.786  11.833  10.006  0.0966 -0.0525 -0.1170
 1229ERGO    R115880   9.814  11.693   9.762  0.0922 -0.0151 -0.1378
 1229ERGO    R215881   9.604  11.656   9.586  0.0935  0.0165 -0.1380
 1229ERGO    R315882   9.776  11.768   9.408  0.0925  0.0370 -0.1281
 1229ERGO    R415883   9.567  11.646   9.243  0.1654 -0.0823 -0.1443
 1229ERGO    R515884   9.782  11.614   9.225  0.1857 -0.0096 -0.0905
 1229ERGO    C115885   9.707  11.745   8.875  0.2063 -0.1204 -0.1385
 1229ERGO    C215886   9.788  11.735   8.533 -0.1842 -0.0329  0.4515
 1230ERGO   ROH15887  13.692   9.929   9.866  0.2399  0.0894 -0.0660
 1230ERGO    R115888  13.751   9.860   9.598  0.0452 -0.1421 -0.0534
 1230ERGO    R215889  13.556   9.791   9.415 -0.1273  0.0515  0.0502
 1230ERGO    R315890  13.670   9.989   9.267  0.1204 -0.1901 -0.0902
 1230ERGO    R415891  13.495   9.848   9.079 -0.2491  0.0461  0.0714
 1230ERGO    R515892  13.707   9.889   9.053 -0.1904 -0.3275 -0.0834
 1230ERGO    C115893  13.566  10.066   8.746 -0.0875 -0.1838 -0.0481
 1230ERGO    C215894  13.587  10.051   8.460  0.0571 -0.3148  0.2583
 1231ERGO   ROH15895  14.028   5.644   6.152 -0.0118 -0.1015  0.0229
 1231ERGO    R115896  13.840   5.569   6.350  0.0618 -0.1873  0.0611
 1231ERGO    R215897  13.881   5.356   6.522  0.3060 -0.0200  0.2167
 1231ERGO    R315898  13.835   5.543   6.713  0.0679  0.0640  0.0808
 1231ERGO    R415899  13.931   5.309   6.860  0.3177  0.2729  0.2587
 1231ERGO    R515900  13.747   5.418   6.898  0.1855  0.0910  0.1560
 1231ERGO    C115901  13.916   5.456   7.238  0.1009  0.5223  0.1555
 1231ERGO    C215902  13.959   5.531   7.469  0.0505  0.0371  0.2397
 1232ERGO   ROH15903  11.171   2.412   7.182 -0.0840  0.1689  0.0550
 1232ERGO    R115904  11.128   2.490   7.450 -0.1033  0.1139  0.0673
 1232ERGO    R215905  10.892   2.438   7.583 -0.1001  0.0643  0.0458
 1232ERGO    R315906  11.058   2.324   7.767 -0.0983  0.0492  0.0361
 1232ERGO    R415907  10.797   2.338   7.900 -0.0815  0.1400  0.0759
 1232ERGO    R515908  10.986   2.416   7.976 -0.0446  0.1046  0.0343
 1232ERGO    C115909  10.897   2.173   8.257 -0.0690  0.1701  0.0843
 1232ERGO    C215910  10.619   2.028   8.416 -0.2072 -0.0295 -0.3390
 1233ERGO   ROH15911  12.100   1.829   6.954  0.1962 -0.0265 -0.0894
 1233ERGO    R115912  12.020   1.660   7.166  0.1294 -0.0857 -0.1608
 1233ERGO    R215913  11.903   1.757   7.397  0.2907 -0.1222 -0.0606
 1233ERGO    R315914  11.708   1.578   7.335  0.1181  0.0773 -0.1019
 1233ERGO    R415915  11.696   1.601   7.626  0.2344 -0.0837 -0.0854
 1233ERGO    R515916  11.715   1.417   7.511  0.0411 -0.0336 -0.1996
 1233ERGO    C115917  11.393   1.343   7.701  0.0395  0.1260 -0.1385
 1233ERGO    C215918  11.318   1.212   7.942 -0.1121  0.4003  0.0083
 1234ERGO   ROH15919   7.231  12.880   6.606  0.0830  0.2965  0.0672
 1234ERGO    R115920   7.079  12.958   6.832 -0.0729  0.1504  0.0143
 1234ERGO    R215921   6.872  12.804   6.932  0.0689 -0.0752 -0.0313
 1234ERGO    R315922   7.012  12.824   7.164 -0.0197  0.1093  0.0086
 1234ERGO    R415923   6.731  12.818   7.247 -0.0391 -0.2728 -0.0687
 1234ERGO    R515924   6.880  12.968   7.301 -0.2548 -0.0709 -0.0229
 1234ERGO    C115925   6.781  12.845   7.648 -0.1851 -0.2146 -0.0530
 1234ERGO    C215926   6.735  12.873   7.998 -0.0699 -0.2367  0.3595
 1235ERGO   ROH15927  16.345   5.692   6.241 -0.0099  0.0301 -0.0620
 1235ERGO    R115928  16.326   5.637   6.518  0.0202 -0.1030 -0.0855
 1235ERGO    R215929  16.538   5.539   6.665  0.1102  0.0540 -0.1052
 1235ERGO    R315930  16.486   5.755   6.823 -0.1278 -0.0598 -0.0243
 1235ERGO    R415931  16.577   5.547   7.009  0.4235  0.0694 -0.1382
 1235ERGO    R515932  16.392   5.661   7.022  0.2261 -0.2621  0.0547
 1235ERGO    C115933  16.550   5.753   7.357  0.3824 -0.0283 -0.0814
 1235ERGO    C215934  16.805   5.761   7.672 -0.1475  0.0966 -0.3086
 1236ERGO   ROH15935  13.852   3.065   9.723 -0.2934 -0.1285  0.0249
 1236ERGO    R115936  13.944   3.091   9.456 -0.2009 -0.0621  0.0623
 1236ERGO    R215937  14.206   3.046   9.384 -0.1803 -0.0731  0.1363
 1236ERGO    R315938  14.094   2.875   9.206 -0.1436 -0.0082  0.0506
 1236ERGO    R415939  14.335   2.974   9.072 -0.2639  0.2476  0.0242
 1236ERGO    R515940  14.132   2.977   8.993 -0.2977  0.1793  0.1120
 1236ERGO    C115941  14.305   2.771   8.722 -0.2782  0.4952 -0.1214
 1236ERGO    C215942  14.314   2.765   8.407 -0.0834 -0.0320 -0.0959
 1237ERGO   ROH15943   8.027   0.779   6.732 -0.0425 -0.1125  0.2636
 1237ERGO    R115944   8.059   0.706   7.004 -0.2656  0.0447  0.3356
 1237ERGO    R215945   8.278   0.783   7.154 -0.1438 -0.2643  0.3322
 1237ERGO    R315946   8.088   0.880   7.322 -0.0114  0.2605  0.1967
 1237ERGO    R415947   8.330   0.862   7.486 -0.1329 -0.2253  0.3210
 1237ERGO    R515948   8.136   0.775   7.532 -0.3617  0.2463  0.2701
 1237ERGO    C115949   8.182   0.999   7.838 -0.0023  0.2901  0.1872
 1237ERGO    C215950   8.126   1.269   8.072  0.4347 -0.1019 -0.1686
 1238ERGO   ROH15951  17.019   8.589   6.042  0.1235 -0.2283 -0.1154
 1238ERGO    R115952  16.955   8.588   6.317 -0.0307 -0.1139 -0.1494
 1238ERGO    R215953  16.866   8.362   6.449  0.0379 -0.0977 -0.0748
 1238ERGO    R315954  17.073   8.416   6.616 -0.0884  0.1255  0.0149
 1238ERGO    R415955  16.897   8.239   6.770 -0.0186  0.0143 -0.0263
 1238ERGO    R515956  16.972   8.435   6.832 -0.2147  0.0981 -0.0399
 1238ERGO    C115957  17.110   8.219   7.114 -0.1700  0.2891  0.0863
 1238ERGO    C215958  16.973   8.106   7.412  0.0010 -0.2998 -0.2220
 1239ERGO   ROH15959  15.435   0.516   6.744  0.3192  0.2153 -0.1765
 1239ERGO    R115960  15.618   0.520   6.960  0.2408  0.0544 -0.1024
 1239ERGO    R215961  15.537   0.530   7.224  0.1414  0.1997 -0.1233
 1239ERGO    R315962  15.693   0.309   7.246 -0.1193  0.0223 -0.0327
 1239ERGO    R415963  15.713   0.441   7.507  0.2525  0.2246 -0.1859
 1239ERGO    R515964  15.879   0.381   7.379  0.0722 -0.1031 -0.2475
 1239ERGO    C115965  15.963   0.182   7.693  0.0724  0.0725 -0.1373
 1239ERGO    C215966  16.128   0.262   8.043 -0.0186  0.1645 -0.1938
 1240ERGO   ROH15967   6.641   5.058   9.899  0.1294  0.0480  0.0771
 1240ERGO    R115968   6.661   5.176   9.643  0.1112  0.0269  0.0661
 1240ERGO    R215969   6.867   5.118   9.468  0.0910  0.0031  0.0521
 1240ERGO    R315970   6.663   5.060   9.298  0.0729  0.0006  0.0744
 1240ERGO    R415971   6.901   5.073   9.127  0.0779 -0.1255  0.0669
 1240ERGO    R515972   6.714   5.183   9.099  0.1071 -0.0821  0.0303
 1240ERGO    C115973   6.729   4.993   8.768  0.0533 -0.2027  0.0965
 1240ERGO    C215974   6.783   4.888   8.471 -0.0548 -0.1710  0.0100
 1241ERGO   ROH15975  10.200   1.461   7.113  0.1481  0.1702 -0.0001
 1241ERGO    R115976  10.025   1.346   7.304  0.0485  0.3770  0.0376
 1241ERGO    R215977  10.023   1.074   7.359 -0.4156  0.3334 -0.1245
 1241ERGO    R315978  10.059   1.159   7.614 -0.0927  0.1267 -0.0960
 1241ERGO    R415979   9.887   0.924   7.639 -0.3825  0.3466 -0.1020
 1241ERGO    R515980   9.848   1.122   7.720 -0.0529  0.3455  0.0559
 1241ERGO    C115981   9.842   0.916   8.042 -0.0600  0.1602 -0.0621
 1241ERGO    C215982  10.036   0.800   8.256  0.0544  0.2819 -0.1897
 1242ERGO   ROH15983   4.394  12.244   9.893  0.0212 -0.0200 -0.0425
 1242ERGO    R115984   4.373  12.357   9.635 -0.0313 -0.0457 -0.0499
 1242ERGO    R215985   4.562  12.314   9.437 -0.0662 -0.0582 -0.0823
 1242ERGO    R315986   4.346  12.235   9.293 -0.0909 -0.0803 -0.0325
 1242ERGO    R415987   4.528  12.352   9.096 -0.2188  0.0853 -0.0525
 1242ERGO    R515988   4.319  12.405   9.127 -0.2280 -0.0149  0.0558
 1242ERGO    C115989   4.305  12.298   8.761 -0.3310  0.1481  0.0115
 1242ERGO    C215990   4.303  12.431   8.472 -0.0027  0.1329 -0.0517
 1243ERGO   ROH15991   8.562  17.308   6.871  0.1440  0.3183 -0.1698
 1243ERGO    R115992   8.465  17.261   7.133  0.1597  0.1205 -0.1992
 1243ERGO    R215993   8.535  17.420   7.349  0.0500  0.0485 -0.1173
 1243ERGO    R315994   8.265  17.443   7.377  0.0328 -0.1323 -0.1082
 1243ERGO    R415995   8.372  17.489   7.646  0.0403  0.1657 -0.1483
 1243ERGO    R515996   8.219  17.345   7.590  0.1376 -0.0012 -0.0180
 1243ERGO    C115997   8.025  17.551   7.846  0.0184  0.0640 -0.1578
 1243ERGO    C215998   8.013  17.682   8.197 -0.2362 -0.0738 -0.0154
 1244ERGO   ROH15999   1.823   9.078   9.576 -0.2351  0.0707 -0.1749
 1244ERGO    R116000   1.940   9.131   9.324 -0.2204  0.2427 -0.1332
 1244ERGO    R216001   1.966   8.938   9.127  0.0700  0.2951 -0.1519
 1244ERGO    R316002   1.834   9.121   8.976 -0.1042  0.1594 -0.1668
 1244ERGO    R416003   1.954   8.937   8.782  0.0853  0.2624 -0.1519
 1244ERGO    R516004   1.975   9.154   8.785 -0.1264  0.2862 -0.1628
 1244ERGO    C116005   1.823   9.108   8.438 -0.0692  0.1159 -0.1658
 1244ERGO    C216006   1.649   9.227   8.217 -0.0826  0.0109  0.3202
 1245ERGO   ROH16007  17.800   8.219   5.978 -0.2443  0.0507  0.2346
 1245ERGO    R116008  17.877   8.217   6.250 -0.1475  0.0808  0.2073
 1245ERGO    R216009  18.141   8.232   6.331 -0.1031 -0.1453  0.1035
 1245ERGO    R316010  18.050   8.442   6.478  0.1559  0.0018  0.0611
 1245ERGO    R416011  18.169   8.259   6.674 -0.1735 -0.1715  0.1118
 1245ERGO    R516012  17.967   8.342   6.679 -0.0601  0.1294  0.0410
 1245ERGO    C116013  18.100   8.471   7.012  0.0286 -0.0487  0.0769
 1245ERGO    C216014  18.094   8.306   7.324 -0.0557  0.1137 -0.2168
 1246ERGO   ROH16015  13.864   4.783   9.788  0.2481  0.3025  0.0801
 1246ERGO    R116016  13.791   4.865   9.528  0.2273  0.2100  0.0560
 1246ERGO    R216017  13.617   5.075   9.481  0.0518  0.0560 -0.0024
 1246ERGO    R316018  13.821   5.168   9.328  0.0037  0.2162  0.0297
 1246ERGO    R416019  13.578   5.279   9.205 -0.0840 -0.1553 -0.1420
 1246ERGO    R516020  13.734   5.163   9.104  0.1026 -0.0258 -0.0058
 1246ERGO    C116021  13.748   5.485   8.900 -0.2082 -0.1280 -0.1931
 1246ERGO    C216022  13.677   5.723   8.823 -0.1710 -0.1775  0.2790
 1247ERGO   ROH16023  14.108   9.876   6.259  0.1164  0.3549 -0.0380
 1247ERGO    R116024  14.194   9.950   6.518 -0.0013  0.1032  0.0758
 1247ERGO    R216025  14.024   9.948   6.737 -0.0917 -0.1487  0.0089
 1247ERGO    R316026  14.217   9.790   6.844 -0.1105 -0.2304 -0.0762
 1247ERGO    R416027  14.120   9.953   7.069  0.1586 -0.0921 -0.0620
 1247ERGO    R516028  14.327   9.931   7.004  0.0970 -0.2445 -0.2064
 1247ERGO    C116029  14.357   9.807   7.363  0.2868 -0.1357 -0.1832
 1247ERGO    C216030  14.505   9.863   7.724  0.1447  0.0451  0.0431
 1248ERGO   ROH16031  14.294  16.897   6.865  0.0682 -0.1084  0.0006
 1248ERGO    R116032  14.282  16.943   7.144  0.0511 -0.0237 -0.0137
 1248ERGO    R216033  14.067  17.067   7.265  0.0528  0.0353 -0.0666
 1248ERGO    R316034  14.066  16.844   7.419  0.0189  0.0800 -0.0019
 1248ERGO    R416035  14.090  17.066   7.610 -0.1473  0.1358 -0.0518
 1248ERGO    R516036  14.222  16.893   7.595 -0.0967  0.1659  0.0751
 1248ERGO    C116037  14.102  16.856   7.956 -0.2956  0.2364  0.0174
 1248ERGO    C216038  13.911  16.764   8.173 -0.0560  0.3197 -0.1507
 1249ERGO   ROH16039  17.997  11.635   6.654  0.0410 -0.1501  0.1309
 1249ERGO    R116040  18.036  11.777   6.896  0.3813  0.0059 -0.0098
 1249ERGO    R216041  17.941  11.687   7.139  0.1209  0.4886  0.0825
 1249ERGO    R316042  18.201  11.716   7.214  0.2047 -0.0933  0.0632
 1249ERGO    R416043  18.058  11.656   7.463  0.0068  0.5964  0.1342
 1249ERGO    R516044  18.189  11.826   7.427  0.4652  0.2182 -0.0763
 1249ERGO    C116045  18.369  11.665   7.722  0.0188  0.1129  0.1461
 1249ERGO    C216046  18.215  11.423   7.953 -0.0000 -0.4069 -0.0789
 1250ERGO   ROH16047   2.947  16.965   6.835 -0.0123 -0.0865  0.1040
 1250ERGO    R116048   2.898  17.063   7.096 -0.0501 -0.0203  0.0724
 1250ERGO    R216049   2.823  16.899   7.305 -0.0040  0.0208  0.1216
 1250ERGO    R316050   3.038  17.011   7.428 -0.0424  0.1269  0.0928
 1250ERGO    R416051   2.902  16.862   7.640 -0.0034  0.1515  0.1364
 1250ERGO    R516052   2.958  17.072   7.645 -0.0686  0.1714  0.0711
 1250ERGO    C116053   3.149  16.945   7.950 -0.0392  0.3270  0.1181
 1250ERGO    C216054   3.094  16.843   8.278  0.0126  0.0272  0.0185
 1251ERGO   ROH16055   7.631  11.255   6.235  0.1640 -0.1744 -0.0495
 1251ERGO    R116056   7.445  11.210   6.444  0.1690 -0.0820 -0.0256
 1251ERGO    R216057   7.504  11.057   6.666  0.1552 -0.0274  0.0116
 1251ERGO    R316058   7.425  11.279   6.800  0.2004  0.0229 -0.0432
 1251ERGO    R416059   7.460  11.076   7.008  0.2980  0.1009  0.0246
 1251ERGO    R516060   7.282  11.197   6.974  0.2749  0.0802  0.0500
 1251ERGO    C116061   7.361  11.296   7.334  0.4236  0.2228 -0.0192
 1251ERGO    C216062   7.357  11.247   7.669  0.1101  0.0602  0.0326
 1252ERGO   ROH16063   4.141  14.484   6.551 -0.0671  0.0146  0.1318
 1252ERGO    R116064   4.367  14.458   6.719 -0.0675  0.0090  0.1302
 1252ERGO    R216065   4.401  14.610   6.947 -0.0757 -0.0115  0.1407
 1252ERGO    R316066   4.429  14.367   7.066 -0.0628 -0.0196  0.1230
 1252ERGO    R416067   4.572  14.553   7.242 -0.0057 -0.0298  0.0977
 1252ERGO    R516068   4.652  14.370   7.155 -0.0374 -0.0344  0.0683
 1252ERGO    C116069   4.698  14.291   7.526  0.0470 -0.0478  0.0561
 1252ERGO    C216070   4.807  14.225   7.894 -0.1656 -0.0634  0.2047
 1253ERGO   ROH16071  10.330  14.291  10.186 -0.1842  0.0451  0.0400
 1253ERGO    R116072  10.190  14.365   9.951 -0.0978  0.0391 -0.0135
 1253ERGO    R216073  10.282  14.559   9.777  0.0018 -0.0171 -0.0208
 1253ERGO    R316074  10.253  14.361   9.593  0.0032 -0.0415  0.0041
 1253ERGO    R416075  10.227  14.611   9.440  0.2989 -0.0559 -0.0786
 1253ERGO    R516076  10.085  14.445   9.443  0.1758  0.0444 -0.1464
 1253ERGO    C116077  10.167  14.455   9.071  0.4731 -0.1013 -0.0888
 1253ERGO    C216078  10.163  14.603   8.907  0.1645 -0.0793 -0.0046
 1254ERGO   ROH16079   1.733  16.200   7.086  0.0838  0.2489 -0.0257
 1254ERGO    R116080   1.867  16.186   7.335  0.0428  0.1400 -0.0108
 1254ERGO    R216081   1.977  16.407   7.458 -0.0775  0.1030  0.1556
 1254ERGO    R316082   1.823  16.327   7.667 -0.0786 -0.1018  0.0804
 1254ERGO    R416083   2.068  16.430   7.790 -0.1384 -0.0613  0.1855
 1254ERGO    R516084   1.979  16.234   7.823 -0.0558 -0.1299  0.0472
 1254ERGO    C116085   1.976  16.369   8.180 -0.1748 -0.3495  0.1323
 1254ERGO    C216086   1.908  16.590   8.481 -0.1796  0.1433  0.2957
 1255ERGO   ROH16087  12.403   5.875   6.035  0.1144 -0.0058 -0.0008
 1255ERGO    R116088  12.510   5.760   6.271  0.0953 -0.1757 -0.0736
 1255ERGO    R216089  12.477   5.874   6.520  0.3200 -0.1994 -0.0305
 1255ERGO    R316090  12.379   5.629   6.584  0.0888 -0.1148 -0.0510
 1255ERGO    R416091  12.435   5.756   6.842  0.2200 -0.1951 -0.0416
 1255ERGO    R516092  12.507   5.562   6.775  0.0327 -0.2573 -0.0636
 1255ERGO    C116093  12.319   5.457   7.089 -0.0552 -0.1132 -0.0672
 1255ERGO    C216094  12.284   5.429   7.408  0.0855  0.3139  0.3790
 1256ERGO   ROH16095   2.658  12.549  10.219  0.1175 -0.0295  0.0629
 1256ERGO    R116096   2.617  12.626   9.950 -0.2066 -0.1989  0.0582
 1256ERGO    R216097   2.794  12.786   9.812 -0.6001  0.1194 -0.1143
 1256ERGO    R316098   2.790  12.582   9.633 -0.3078  0.0358 -0.0293
 1256ERGO    R416099   2.831  12.823   9.470 -0.2956 -0.0314 -0.1004
 1256ERGO    R516100   2.675  12.672   9.442 -0.1756 -0.1288 -0.1822
 1256ERGO    C116101   2.848  12.652   9.103  0.1560 -0.1977 -0.0124
 1256ERGO    C216102   2.844  12.784   8.908  0.0190  0.1997  0.1875
 1257ERGO   ROH16103  15.733  16.846   7.061  0.2920  0.0547  0.0416
 1257ERGO    R116104  15.738  16.843   7.344  0.3646  0.2088  0.0435
 1257ERGO    R216105  15.794  17.069   7.494  0.1270  0.3628 -0.0851
 1257ERGO    R316106  15.557  17.008   7.613  0.2251  0.1319 -0.0038
 1257ERGO    R416107  15.704  17.164   7.814  0.0934  0.3680 -0.0968
 1257ERGO    R516108  15.615  16.967   7.842  0.3270  0.2769 -0.0054
 1257ERGO    C116109  15.429  17.162   8.112  0.1658  0.1545 -0.0272
 1257ERGO    C216110  15.223  17.189   8.395  0.3136  0.1535  0.3166
 1258ERGO   ROH16111  16.585   0.741  10.428 -0.0656 -0.3684 -0.2105
 1258ERGO    R116112  16.486   0.649  10.179 -0.1278 -0.1238 -0.2804
 1258ERGO    R216113  16.411   0.820   9.976  0.0214  0.0770 -0.1761
 1258ERGO    R316114  16.586   0.672   9.830 -0.0864  0.0303 -0.2575
 1258ERGO    R416115  16.409   0.795   9.631 -0.1712  0.0292 -0.1721
 1258ERGO    R516116  16.454   0.583   9.652 -0.1964  0.0292 -0.1718
 1258ERGO    C116117  16.572   0.641   9.294 -0.3846 -0.0425 -0.2461
 1258ERGO    C216118  16.628   0.638   8.874 -0.2543 -0.0386 -0.0956
 1259ERGO   ROH16119  14.453   0.787   6.759  0.0780 -0.0848  0.0037
 1259ERGO    R116120  14.438   0.769   7.041  0.0236 -0.1171 -0.0010
 1259ERGO    R216121  14.662   0.753   7.202 -0.0051 -0.0855  0.0447
 1259ERGO    R316122  14.549   0.967   7.325 -0.0771 -0.1221  0.0417
 1259ERGO    R416123  14.691   0.825   7.539 -0.0543 -0.0842  0.0484
 1259ERGO    R516124  14.481   0.883   7.539 -0.0699 -0.1457  0.0335
 1259ERGO    C116125  14.600   1.068   7.851 -0.1503 -0.1178  0.0477
 1259ERGO    C216126  14.745   0.946   8.149 -0.0587  0.1050  0.0222
 1260ERGO   ROH16127  11.717  11.696   6.636  0.2987 -0.1852  0.0351
 1260ERGO    R116128  11.867  11.653   6.872  0.3304 -0.0195  0.0473
 1260ERGO    R216129  12.010  11.854   6.997  0.0955  0.1462  0.0658
 1260ERGO    R316130  11.865  11.778   7.214  0.1561 -0.0249  0.0475
 1260ERGO    R416131  12.109  11.898   7.325  0.0497  0.1441  0.0795
 1260ERGO    R516132  12.029  11.700   7.370  0.2128  0.0714  0.0306
 1260ERGO    C116133  12.031  11.854   7.720  0.0799 -0.0177  0.0704
 1260ERGO    C216134  11.949  11.875   8.027 -0.0252 -0.1795 -0.1376
 1261ERGO   ROH16135   2.782   3.665   6.548 -0.0285  0.0744  0.1552
 1261ERGO    R116136   2.795   3.869   6.744 -0.1063  0.1299  0.1051
 1261ERGO    R216137   2.642   4.099   6.731 -0.1959  0.0744  0.0469
 1261ERGO    R316138   2.566   4.022   6.981 -0.1682  0.1004  0.0617
 1261ERGO    R416139   2.442   4.284   6.943 -0.1780  0.0835  0.0540
 1261ERGO    R516140   2.569   4.224   7.109 -0.1635  0.1067  0.0425
 1261ERGO    C116141   2.254   4.321   7.301 -0.1416  0.1132  0.0722
 1261ERGO    C216142   2.093   4.428   7.563  0.1251 -0.0298 -0.2199
 1262ERGO   ROH16143  17.954  15.823   7.108  0.2268 -0.2835 -0.2230
 1262ERGO    R116144  17.945  15.673   7.348  0.0489 -0.2188 -0.1877
 1262ERGO    R216145  17.978  15.788   7.596  0.2143 -0.2008 -0.2174
 1262ERGO    R316146  17.740  15.666   7.648  0.0572  0.1147 -0.1713
 1262ERGO    R416147  17.909  15.601   7.879  0.0252 -0.1298 -0.2147
 1262ERGO    R516148  17.801  15.460   7.753 -0.1969  0.0221 -0.2000
 1262ERGO    C116149  17.646  15.377   8.092 -0.2324  0.2077 -0.1698
 1262ERGO    C216150  17.568  15.064   8.329 -0.0308  0.0306 -0.3951
 1263ERGO   ROH16151   0.271  17.987  10.461 -0.0493  0.0935 -0.0539
 1263ERGO    R116152   0.219  17.854  10.216 -0.1819  0.1219 -0.0410
 1263ERGO    R216153   0.086  17.975  10.007  0.0965  0.2993 -0.1159
 1263ERGO    R316154   0.306  17.901   9.866  0.0281 -0.1053 -0.0232
 1263ERGO    R416155   0.089  17.909   9.667  0.1369  0.4698 -0.1499
 1263ERGO    R516156   0.224  17.742   9.707 -0.2382  0.1471 -0.1535
 1263ERGO    C116157   0.298  17.802   9.337  0.0962  0.1894 -0.0825
 1263ERGO    C216158   0.324  17.721   8.985  0.1074  0.3706 -0.0616
 1264ERGO   ROH16159  10.930   2.204  10.468 -0.0782 -0.0844  0.0701
 1264ERGO    R116160  10.981   2.216  10.190 -0.2521 -0.0472  0.0379
 1264ERGO    R216161  11.234   2.181  10.083 -0.2279  0.4332 -0.0924
 1264ERGO    R316162  11.110   1.990   9.935  0.0666  0.1413  0.0277
 1264ERGO    R416163  11.220   2.175   9.738 -0.5983  0.4421 -0.0813
 1264ERGO    R516164  11.013   2.109   9.751 -0.4331 -0.0653  0.1426
 1264ERGO    C116165  11.096   1.992   9.398 -0.5375  0.1733  0.0379
 1264ERGO    C216166  11.118   1.834   9.147  0.0869 -0.0599 -0.2182
 1265ERGO   ROH16167  16.269  11.960   9.950 -0.1702  0.1316  0.0909
 1265ERGO    R116168  16.286  11.888   9.677  0.0258  0.1228  0.1048
 1265ERGO    R216169  16.073  11.916   9.503  0.1012 -0.0430 -0.0056
 1265ERGO    R316170  16.254  12.058   9.357  0.0748  0.0733  0.0710
 1265ERGO    R416171  16.062  11.957   9.159  0.1184  0.0752  0.0066
 1265ERGO    R516172  16.278  11.932   9.154  0.1363  0.1474  0.0243
 1265ERGO    C116173  16.225  12.113   8.823  0.1035  0.2531  0.0855
 1265ERGO    C216174  16.472  12.189   8.617 -0.0476  0.1437 -0.2486
 1266ERGO   ROH16175  12.753   9.365   9.839 -0.0461 -0.4466 -0.2059
 1266ERGO    R116176  12.791   9.236   9.590 -0.1725 -0.3143 -0.2971
 1266ERGO    R216177  12.581   9.180   9.418 -0.2376 -0.0190 -0.3310
 1266ERGO    R316178  12.734   9.317   9.240 -0.1262 -0.0254 -0.2387
 1266ERGO    R416179  12.544   9.169   9.075 -0.0656  0.0404 -0.3512
 1266ERGO    R516180  12.760   9.166   9.055 -0.0628  0.0023 -0.2460
 1266ERGO    C116181  12.666   9.290   8.707  0.1392  0.0689 -0.2764
 1266ERGO    C216182  12.711   9.446   8.343 -0.0639 -0.0326  0.1455
 1267ERGO   ROH16183  16.914  17.002   6.835 -0.4118  0.0554  0.0292
 1267ERGO    R116184  16.831  16.946   7.099 -0.2893  0.1217  0.0835
 1267ERGO    R216185  17.007  16.867   7.297 -0.2104  0.0701 -0.0028
 1267ERGO    R316186  16.899  17.077   7.432 -0.0476  0.1333  0.0303
 1267ERGO    R416187  17.000  16.900   7.641 -0.2014  0.0175  0.0020
 1267ERGO    R516188  16.798  16.979   7.625 -0.1356  0.1823  0.0073
 1267ERGO    C116189  16.895  17.116   7.968 -0.0435  0.0461  0.0360
 1267ERGO    C216190  17.079  17.305   8.287 -0.2674  0.0991  0.4492
 1268ERGO   ROH16191   7.732   8.806   7.396 -0.1458 -0.1780  0.2793
 1268ERGO    R116192   7.821   9.070   7.450 -0.1443 -0.1381  0.0900
 1268ERGO    R216193   7.874   9.159   7.705 -0.0735  0.0247  0.0199
 1268ERGO    R316194   8.115   9.225   7.597 -0.1090 -0.0284 -0.0921
 1268ERGO    R416195   8.121   9.340   7.867  0.1049 -0.1677 -0.0334
 1268ERGO    R516196   8.159   9.445   7.680  0.0383 -0.0894 -0.0041
 1268ERGO    C116197   8.490   9.506   7.860  0.1752 -0.3295 -0.1695
 1268ERGO    C216198   8.728   9.652   7.948  0.1864 -0.3131  0.0932
 1269ERGO   ROH16199   4.528  15.720  10.309  0.0382 -0.1155  0.0077
 1269ERGO    R116200   4.573  15.573  10.072 -0.1624 -0.0350 -0.0856
 1269ERGO    R216201   4.401  15.581   9.855 -0.2043  0.2629 -0.0561
 1269ERGO    R316202   4.627  15.648   9.720 -0.1578  0.1102 -0.0520
 1269ERGO    R416203   4.433  15.579   9.511 -0.1102  0.0132 -0.0467
 1269ERGO    R516204   4.633  15.496   9.535 -0.1436 -0.0157  0.0589
 1269ERGO    C116205   4.663  15.641   9.184 -0.0116 -0.2755 -0.0374
 1269ERGO    C216206   4.601  15.628   8.877  0.2045  0.1891  0.1579
 1270ERGO   ROH16207  11.719   1.271  10.314  0.1600  0.0758 -0.0002
 1270ERGO    R116208  11.564   1.133  10.122  0.1764  0.0993 -0.0279
 1270ERGO    R216209  11.542   1.215   9.859  0.3025  0.0561 -0.0427
 1270ERGO    R316210  11.623   0.961   9.807  0.2184  0.0129  0.0237
 1270ERGO    R416211  11.470   1.041   9.570  0.2686  0.0304 -0.0206
 1270ERGO    R516212  11.438   0.862   9.691  0.1865  0.0604  0.0197
 1270ERGO    C116213  11.503   0.700   9.352  0.1698 -0.0250  0.0546
 1270ERGO    C216214  11.405   0.723   9.031 -0.1757  0.2644 -0.2169
 1271ERGO   ROH16215   0.622  12.666  10.021 -0.0333  0.1264 -0.0455
 1271ERGO    R116216   0.622  12.859   9.815  0.1278  0.1235 -0.0484
 1271ERGO    R216217   0.781  12.836   9.590 -0.0634 -0.1363 -0.1567
 1271ERGO    R316218   0.544  12.866   9.459 -0.1127  0.2377  0.0029
 1271ERGO    R416219   0.748  12.900   9.252 -0.1802 -0.1975 -0.1581
 1271ERGO    R516220   0.586  13.038   9.298  0.0882  0.1150 -0.0860
 1271ERGO    C116221   0.507  12.965   8.932 -0.2945  0.1181 -0.0092
 1271ERGO    C216222   0.555  13.038   8.625 -0.0629  0.0780 -0.0843
 1272ERGO   ROH16223  13.981  12.539   6.294 -0.2449  0.1478  0.0229
 1272ERGO    R116224  13.863  12.517   6.550 -0.0738 -0.2325  0.0778
 1272ERGO    R216225  13.957  12.344   6.743  0.4116 -0.1277 -0.0441
 1272ERGO    R316226  13.967  12.569   6.895 -0.0046 -0.1616  0.0448
 1272ERGO    R416227  14.032  12.352   7.081  0.4345 -0.1097 -0.0500
 1272ERGO    R516228  13.876  12.503   7.106  0.1454 -0.4160  0.0286
 1272ERGO    C116229  14.084  12.568   7.420  0.0570 -0.1309  0.0300
 1272ERGO    C216230  14.119  12.518   7.727 -0.1257  0.0541  0.3668
 1273ERGO   ROH16231  12.886  10.145   9.795  0.4133  0.0309 -0.2710
 1273ERGO    R116232  12.726  10.256   9.589  0.2189 -0.0545 -0.1690
 1273ERGO    R216233  12.830  10.423   9.395  0.0043 -0.0026 -0.2401
 1273ERGO    R316234  12.717  10.243   9.226 -0.0138 -0.0636 -0.1640
 1273ERGO    R416235  12.707  10.498   9.081 -0.3350 -0.0476 -0.1223
 1273ERGO    R516236  12.539  10.364   9.120 -0.2020 -0.1799  0.0109
 1273ERGO    C116237  12.529  10.372   8.739 -0.5496 -0.1311  0.0177
 1273ERGO    C216238  12.558  10.538   8.369 -0.1395  0.1358 -0.0104
 1274ERGO   ROH16239  17.505   4.786   9.597  0.2945  0.1998  0.0372
 1274ERGO    R116240  17.495   4.709   9.325  0.1847  0.1294  0.0614
 1274ERGO    R216241  17.324   4.826   9.143  0.0112 -0.0179  0.1333
 1274ERGO    R316242  17.553   4.868   9.002 -0.0947  0.0864 -0.0141
 1274ERGO    R416243  17.351   4.806   8.799 -0.2118  0.0284  0.1107
 1274ERGO    R516244  17.544   4.707   8.825 -0.1517  0.0982 -0.0260
 1274ERGO    C116245  17.582   4.833   8.467 -0.4409  0.1534 -0.0410
 1274ERGO    C216246  17.680   4.924   8.151  0.3083  0.2154 -0.3543
 1275ERGO   ROH16247  16.892  11.038   6.340 -0.0732  0.2177  0.1021
 1275ERGO    R116248  16.784  10.965   6.592 -0.0694  0.0851  0.0673
 1275ERGO    R216249  16.919  11.008   6.829 -0.0573 -0.0542  0.0912
 1275ERGO    R316250  16.690  11.137   6.898 -0.0467 -0.0761  0.1647
 1275ERGO    R416251  16.761  10.981   7.135  0.0109 -0.1065  0.1211
 1275ERGO    R516252  16.569  10.979   7.031 -0.0100 -0.0982  0.1666
 1275ERGO    C116253  16.453  11.086   7.378  0.0606 -0.1574  0.2076
 1275ERGO    C216254  16.121  11.140   7.563 -0.0131 -0.1299  0.4990
 1276ERGO   ROH16255  14.422  10.231   6.175  0.0871 -0.0538  0.0485
 1276ERGO    R116256  14.407  10.402   6.400  0.0846 -0.0463  0.0434
 1276ERGO    R216257  14.197  10.394   6.579  0.0476  0.0042  0.0076
 1276ERGO    R316258  14.395  10.363   6.762  0.0093 -0.0405  0.0406
 1276ERGO    R416259  14.148  10.352   6.919 -0.0156 -0.1155 -0.0162
 1276ERGO    R516260  14.319  10.482   6.955 -0.0382 -0.1155  0.0649
 1276ERGO    C116261  14.307  10.297   7.288 -0.0886 -0.2272  0.0009
 1276ERGO    C216262  14.101  10.210   7.655  0.0586 -0.1080  0.2190
 1277ERGO   ROH16263   1.415  17.021   6.728 -0.1783 -0.0831  0.0972
 1277ERGO    R116264   1.339  17.138   6.974 -0.0613 -0.0006  0.0943
 1277ERGO    R216265   1.412  17.031   7.219 -0.0423  0.0191  0.0925
 1277ERGO    R316266   1.509  17.281   7.263  0.0763 -0.0135  0.0225
 1277ERGO    R416267   1.485  17.163   7.530 -0.2417  0.1547  0.0844
 1277ERGO    R516268   1.401  17.353   7.464 -0.0669  0.1748 -0.1126
 1277ERGO    C116269   1.620  17.474   7.752 -0.2464  0.2030  0.0139
 1277ERGO    C216270   1.834  17.577   8.098  0.1717 -0.0913  0.0031
 1278ERGO   ROH16271  11.371   7.140   6.360  0.0018  0.0710 -0.0972
 1278ERGO    R116272  11.429   7.231   6.621 -0.0888  0.1141 -0.0932
 1278ERGO    R216273  11.308   7.125   6.846  0.0919 -0.0910 -0.1001
 1278ERGO    R316274  11.565   7.086   6.927  0.1607  0.2594 -0.1287
 1278ERGO    R416275  11.413   7.130   7.175  0.0147 -0.3820 -0.0676
 1278ERGO    R516276  11.592   7.238   7.111 -0.1583  0.0547  0.1083
 1278ERGO    C116277  11.715   7.096   7.443  0.0345 -0.2225 -0.0755
 1278ERGO    C216278  11.741   6.998   7.789  0.3401  0.3672  0.0672
 1279ERGO   ROH16279  13.658   1.624   6.785  0.0152  0.0046  0.0809
 1279ERGO    R116280  13.601   1.475   7.019 -0.1513  0.0727  0.0840
 1279ERGO    R216281  13.798   1.356   7.172 -0.2962 -0.3261 -0.0341
 1279ERGO    R316282  13.683   1.498   7.373  0.0679 -0.1368  0.0497
 1279ERGO    R416283  13.768   1.247   7.499 -0.1495 -0.2390  0.0097
 1279ERGO    R516284  13.568   1.333   7.504 -0.0379  0.0302  0.1754
 1279ERGO    C116285  13.643   1.317   7.878  0.2778 -0.0105  0.1138
 1279ERGO    C216286  13.447   1.285   8.206  0.2802 -0.0044  0.0728
 1280ERGO   ROH16287   8.014  16.232   6.749 -0.2021 -0.2119 -0.0886
 1280ERGO    R116288   7.986  16.392   6.981  0.0375 -0.1826 -0.0804
 1280ERGO    R216289   7.752  16.405   7.126  0.0841  0.1009 -0.0428
 1280ERGO    R316290   7.914  16.338   7.333  0.0360 -0.0970 -0.0647
 1280ERGO    R416291   7.695  16.490   7.456  0.1938  0.1350 -0.0304
 1280ERGO    R516292   7.908  16.530   7.477  0.2499 -0.0938 -0.0459
 1280ERGO    C116293   7.814  16.476   7.843  0.2126 -0.0310 -0.0438
 1280ERGO    C216294   7.937  16.641   8.266 -0.0836 -0.1868 -0.1528
 1281ERGO   ROH16295  10.278   2.911   6.534 -0.0410 -0.0623  0.0335
 1281ERGO    R116296  10.343   2.909   6.809 -0.0597 -0.0736  0.0381
 1281ERGO    R216297  10.421   3.136   6.945  0.0472 -0.1006  0.0263
 1281ERGO    R316298  10.217   3.068   7.111  0.0002  0.0146  0.0163
 1281ERGO    R416299  10.411   3.203   7.284  0.0422 -0.0532  0.0167
 1281ERGO    R516300  10.325   3.005   7.316 -0.0504 -0.0080  0.0345
 1281ERGO    C116301  10.214   3.178   7.638 -0.0048  0.0826  0.0017
 1281ERGO    C216302  10.032   3.385   7.886 -0.2742 -0.0064  0.2950
 1282ERGO   ROH16303   2.606   5.873   6.176 -0.1750 -0.1155  0.2011
 1282ERGO    R116304   2.529   5.761   6.425 -0.0607 -0.1063  0.2420
 1282ERGO    R216305   2.694   5.595   6.571  0.0730  0.0342  0.2557
 1282ERGO    R316306   2.647   5.775   6.769 -0.0094  0.0525  0.2187
 1282ERGO    R416307   2.746   5.537   6.908 -0.0388  0.0741  0.2794
 1282ERGO    R516308   2.561   5.644   6.949 -0.0620  0.0652  0.2032
 1282ERGO    C116309   2.732   5.673   7.289 -0.1813  0.1146  0.2585
 1282ERGO    C216310   2.708   5.792   7.577 -0.3155 -0.1108  0.0459
 1283ERGO   ROH16311   2.345  14.318   6.608  0.0158 -0.1173 -0.0264
 1283ERGO    R116312   2.219  14.278   6.859 -0.0730  0.1804 -0.0198
 1283ERGO    R216313   2.345  14.150   7.069 -0.3504 -0.0948 -0.0179
 1283ERGO    R316314   2.280  14.377   7.204  0.1635  0.0699 -0.0271
 1283ERGO    R416315   2.286  14.168   7.409 -0.5069  0.0012 -0.0485
 1283ERGO    R516316   2.122  14.306   7.369 -0.1351  0.4512 -0.1299
 1283ERGO    C116317   2.192  14.392   7.734 -0.1155  0.2115 -0.0749
 1283ERGO    C216318   2.192  14.489   8.092  0.1589 -0.0024  0.2704
 1284ERGO   ROH16319   7.013  16.670  10.341 -0.0149 -0.0625 -0.1237
 1284ERGO    R116320   7.084  16.783  10.092 -0.0637 -0.0031 -0.1121
 1284ERGO    R216321   7.256  16.658   9.915  0.0068  0.0952 -0.1237
 1284ERGO    R316322   7.051  16.693   9.741 -0.0118  0.0091 -0.1182
 1284ERGO    R416323   7.293  16.739   9.581 -0.0540  0.3330 -0.0742
 1284ERGO    R516324   7.122  16.874   9.600 -0.1774  0.1589 -0.0055
 1284ERGO    C116325   7.121  16.819   9.223 -0.1067  0.3908 -0.0402
 1284ERGO    C216326   7.179  16.739   8.806  0.2791 -0.2455 -0.4505
 1285ERGO   ROH16327  13.715   6.129   9.731 -0.0633  0.3053 -0.2063
 1285ERGO    R116328  13.540   6.154   9.510 -0.1085  0.3647 -0.1644
 1285ERGO    R216329  13.572   6.348   9.316  0.0583  0.2014 -0.3055
 1285ERGO    R316330  13.568   6.135   9.148 -0.2488  0.0904 -0.1635
 1285ERGO    R416331  13.524   6.368   8.975  0.0413  0.0406 -0.3125
 1285ERGO    R516332  13.399   6.190   8.987 -0.1985  0.2127 -0.1764
 1285ERGO    C116333  13.491   6.179   8.618 -0.2570 -0.1572 -0.1833
 1285ERGO    C216334  13.614   5.928   8.371  0.0207  0.4061 -0.2065
 1286ERGO   ROH16335   6.794  16.482   6.843  0.3474  0.0897 -0.0429
 1286ERGO    R116336   6.735  16.463   7.119  0.2070  0.0937 -0.0730
 1286ERGO    R216337   6.924  16.395   7.308  0.1329  0.1946  0.0332
 1286ERGO    R316338   6.844  16.626   7.426 -0.0286  0.1718 -0.0271
 1286ERGO    R416339   6.906  16.445   7.649  0.2337  0.3083  0.0234
 1286ERGO    R516340   6.719  16.555   7.617  0.1156  0.1281  0.0561
 1286ERGO    C116341   6.820  16.692   7.959  0.1408  0.3530 -0.0390
 1286ERGO    C216342   6.909  16.862   8.255  0.0938 -0.0189  0.0097
 1287ERGO   ROH16343  11.107  17.350   6.973 -0.2656  0.1736 -0.0548
 1287ERGO    R116344  11.111  17.395   7.252 -0.0518 -0.0417 -0.0193
 1287ERGO    R216345  10.934  17.566   7.378  0.2533  0.1221  0.2060
 1287ERGO    R316346  10.881  17.347   7.531  0.0239  0.0744  0.0633
 1287ERGO    R416347  10.871  17.573   7.718  0.0339 -0.0167  0.1701
 1287ERGO    R516348  10.991  17.392   7.738 -0.0864 -0.0966  0.1595
 1287ERGO    C116349  10.786  17.371   8.059 -0.3092 -0.1419  0.0153
 1287ERGO    C216350  10.737  17.578   8.240  0.1851 -0.0204 -0.2209
 1288ERGO   ROH16351   0.777   8.214   9.379  0.0434 -0.1803 -0.0131
 1288ERGO    R116352   0.826   8.110   9.120  0.2073  0.0548 -0.0782
 1288ERGO    R216353   0.634   8.110   8.921  0.1768 -0.1995 -0.0437
 1288ERGO    R316354   0.827   8.239   8.779 -0.0836  0.2504 -0.0110
 1288ERGO    R416355   0.665   8.100   8.577  0.3430 -0.2773 -0.0282
 1288ERGO    R516356   0.882   8.087   8.602  0.3893  0.2961  0.0762
 1288ERGO    C116357   0.865   8.215   8.244  0.1953  0.0998  0.0116
 1288ERGO    C216358   0.835   8.407   7.938  0.0870  0.2931  0.0549
 1289ERGO   ROH16359  11.505   3.809   9.779 -0.1661 -0.0714 -0.0430
 1289ERGO    R116360  11.568   3.914   9.524 -0.0300 -0.0303  0.0073
 1289ERGO    R216361  11.741   3.789   9.349  0.0441 -0.0117  0.0735
 1289ERGO    R316362  11.532   3.808   9.177  0.1337  0.0384 -0.0329
 1289ERGO    R416363  11.762   3.740   9.008  0.1906 -0.1232  0.0965
 1289ERGO    R516364  11.625   3.908   8.981  0.2807 -0.0622 -0.0192
 1289ERGO    C116365  11.576   3.729   8.647  0.3601 -0.1410  0.0100
 1289ERGO    C216366  11.473   3.620   8.330  0.0398 -0.0348 -0.0101
 1290ERGO   ROH16367  16.050   2.551   6.410 -0.2874  0.0104 -0.0537
 1290ERGO    R116368  15.967   2.433   6.654  0.1003 -0.1977 -0.0133
 1290ERGO    R216369  16.145   2.316   6.830  0.5046  0.3588 -0.0078
 1290ERGO    R316370  16.031   2.486   7.008  0.0106  0.0778 -0.0394
 1290ERGO    R416371  16.129   2.263   7.171  0.2689  0.2105 -0.0411
 1290ERGO    R516372  15.926   2.343   7.169  0.1230 -0.1725 -0.1967
 1290ERGO    C116373  16.012   2.392   7.537 -0.3321 -0.1396 -0.0901
 1290ERGO    C216374  16.001   2.240   7.802 -0.3304 -0.0815  0.0705
 1291ERGO   ROH16375   0.254  17.190   6.935  0.1600  0.1106 -0.0226
 1291ERGO    R116376   0.087  17.175   7.163  0.1364  0.0454 -0.0452
 1291ERGO    R216377   0.179  17.093   7.410  0.1432  0.1135 -0.0291
 1291ERGO    R316378   0.072  17.330   7.492  0.0105  0.0664 -0.0589
 1291ERGO    R416379   0.061  17.157   7.729  0.3761  0.1720  0.0480
 1291ERGO    R516380  -0.105  17.267   7.640  0.1951 -0.0169  0.1363
 1291ERGO    C116381  -0.107  17.416   7.991  0.3873  0.1616  0.0649
 1291ERGO    C216382  -0.104  17.604   8.210 -0.2488 -0.2048  0.0864
 1292ERGO   ROH16383  15.489  15.172  10.561  0.0071 -0.0890  0.1038
 1292ERGO    R116384  15.606  15.247  10.315 -0.1003 -0.0090  0.0769
 1292ERGO    R216385  15.667  15.064  10.118  0.0873  0.0170  0.1135
 1292ERGO    R316386  15.516  15.228   9.962 -0.1133 -0.1855  0.0882
 1292ERGO    R416387  15.660  15.056   9.773  0.3228  0.1391  0.1031
 1292ERGO    R516388  15.656  15.274   9.773 -0.0678  0.1410  0.1926
 1292ERGO    C116389  15.514  15.205   9.425  0.2717  0.0201  0.0733
 1292ERGO    C216390  15.544  15.242   9.125  0.0992 -0.1466  0.2322
 1293ERGO   ROH16391  16.769   9.380   9.356 -0.0457 -0.2843 -0.0686
 1293ERGO    R116392  16.845   9.547   9.141 -0.1967 -0.1071  0.0129
 1293ERGO    R216393  16.966   9.449   8.912  0.1899  0.1501  0.0993
 1293ERGO    R316394  16.761   9.578   8.788  0.0282 -0.2395 -0.0544
 1293ERGO    R416395  16.982   9.584   8.594  0.1792  0.1925  0.1163
 1293ERGO    R516396  16.868   9.755   8.666 -0.2150 -0.0233  0.0368
 1293ERGO    C116397  16.799   9.783   8.292  0.0211 -0.1486 -0.0181
 1293ERGO    C216398  16.755   9.701   7.891  0.2587 -0.0123 -0.0590
 1294ERGO   ROH16399   6.023   6.874   9.927 -0.0031 -0.0550 -0.0895
 1294ERGO    R116400   5.955   6.919   9.656 -0.0757 -0.0379 -0.0681
 1294ERGO    R216401   6.145   6.954   9.459 -0.1298  0.0872 -0.0967
 1294ERGO    R316402   6.010   6.751   9.338 -0.0573  0.0457 -0.1099
 1294ERGO    R416403   6.146   6.889   9.119  0.0186  0.0170 -0.0845
 1294ERGO    R516404   5.933   6.844   9.132  0.0166 -0.0051 -0.1623
 1294ERGO    C116405   6.019   6.661   8.809  0.1732 -0.0629 -0.0897
 1294ERGO    C216406   5.869   6.532   8.557 -0.3168 -0.0023 -0.0475
 1295ERGO   ROH16407   9.360   4.959   6.634 -0.1619  0.0706 -0.0525
 1295ERGO    R116408   9.443   5.090   6.871 -0.1625  0.0330 -0.0316
 1295ERGO    R216409   9.414   4.977   7.121 -0.1302 -0.0220 -0.0531
 1295ERGO    R316410   9.680   5.026   7.140 -0.1352  0.0096 -0.0609
 1295ERGO    R416411   9.604   4.927   7.405 -0.1032 -0.0682 -0.0791
 1295ERGO    R516412   9.710   5.113   7.361 -0.1313 -0.0419 -0.0405
 1295ERGO    C116413   9.966   4.944   7.588 -0.0923 -0.0655 -0.1016
 1295ERGO    C216414  10.093   4.963   7.927  0.0384 -0.1349 -0.0348
 1296ERGO   ROH16415   7.972   5.063   6.385 -0.0690  0.0564 -0.0945
 1296ERGO    R116416   7.945   4.952   6.644 -0.0487  0.2213 -0.0205
 1296ERGO    R216417   8.036   4.698   6.707 -0.3861  0.1119  0.0319
 1296ERGO    R316418   8.170   4.830   6.903 -0.0385  0.0064 -0.1270
 1296ERGO    R416419   8.170   4.551   6.990 -0.5393  0.0514  0.0746
 1296ERGO    R516420   8.103   4.722   7.106 -0.1621  0.2775 -0.0153
 1296ERGO    C116421   8.375   4.590   7.338 -0.3022 -0.0828 -0.0496
 1296ERGO    C216422   8.778   4.646   7.488  0.0770  0.1922  0.1534
 1297ERGO   ROH16423  12.762   3.818   9.708  0.0195 -0.0152  0.0383
 1297ERGO    R116424  12.823   3.773   9.435 -0.0885 -0.1435  0.0344
 1297ERGO    R216425  12.647   3.652   9.261 -0.2710  0.0358  0.0947
 1297ERGO    R316426  12.690   3.877   9.113 -0.0280 -0.0426  0.0410
 1297ERGO    R416427  12.621   3.670   8.916 -0.3224 -0.0041  0.0959
 1297ERGO    R516428  12.798   3.797   8.915 -0.1638 -0.2174  0.0328
 1297ERGO    C116429  12.647   3.891   8.578 -0.1241 -0.1009  0.0461
 1297ERGO    C216430  12.581   3.978   8.262 -0.0172 -0.2491  0.0322
 1298ERGO   ROH16431   7.606   0.556  10.283  0.0886 -0.0303 -0.0114
 1298ERGO    R116432   7.701   0.488  10.025 -0.1118 -0.1236 -0.0617
 1298ERGO    R216433   7.545   0.355   9.839 -0.3807  0.1316 -0.0191
 1298ERGO    R316434   7.610   0.567   9.681 -0.1390  0.0661 -0.0144
 1298ERGO    R416435   7.583   0.343   9.495 -0.1893  0.0453  0.0022
 1298ERGO    R516436   7.754   0.475   9.514 -0.1005 -0.0678  0.0828
 1298ERGO    C116437   7.665   0.535   9.148  0.1489 -0.0665  0.0191
 1298ERGO    C216438   7.800   0.769   8.888  0.0224 -0.3447 -0.2207
 1299ERGO   ROH16439  11.160  14.219   6.966 -0.2611  0.0898  0.0530
 1299ERGO    R116440  11.136  14.061   7.200  0.0778  0.0346  0.0548
 1299ERGO    R216441  11.286  14.110   7.428 -0.0555  0.3967  0.0740
 1299ERGO    R316442  11.042  14.117   7.548 -0.1005 -0.1705  0.0400
 1299ERGO    R416443  11.232  14.075   7.767 -0.0289  0.3089  0.0696
 1299ERGO    R516444  11.057  13.953   7.722  0.2626 -0.1187  0.0606
 1299ERGO    C116445  10.972  14.061   8.077 -0.0556 -0.2747  0.0350
 1299ERGO    C216446  11.072  14.160   8.404 -0.1240 -0.2509 -0.2236
 1300ERGO   ROH16447   2.018   9.660   5.737 -0.0589  0.0069 -0.0374
 1300ERGO    R116448   2.141   9.715   5.986  0.0569 -0.0026 -0.0923
 1300ERGO    R216449   2.309   9.931   6.025 -0.0805  0.1082 -0.1123
 1300ERGO    R316450   2.138   9.986   6.229  0.0048 -0.1024  0.0201
 1300ERGO    R416451   2.386  10.121   6.303 -0.0351  0.0231 -0.0661
 1300ERGO    R516452   2.274   9.980   6.425  0.1292 -0.1109 -0.0647
 1300ERGO    C116453   2.271  10.284   6.656  0.0714 -0.2240  0.0851
 1300ERGO    C216454   2.311  10.508   7.012 -0.1670 -0.2439  0.1802
 1301ERGO   ROH16455   1.869   3.452   6.999  0.1216  0.1045  0.0442
 1301ERGO    R116456   1.930   3.377   7.265 -0.0037  0.2108  0.1035
 1301ERGO    R216457   1.816   3.500   7.485 -0.2658  0.1574 -0.0053
 1301ERGO    R316458   1.749   3.245   7.551 -0.0956  0.1118  0.0026
 1301ERGO    R416459   1.805   3.376   7.807 -0.4395  0.2465  0.0253
 1301ERGO    R516460   1.893   3.191   7.734 -0.2017  0.2986  0.1520
 1301ERGO    C116461   1.736   3.064   8.057 -0.3808  0.2555  0.0506
 1301ERGO    C216462   1.465   2.855   8.252 -0.1494  0.3303 -0.0681
 1302ERGO   ROH16463   0.774   6.239   9.597  0.0100  0.4021 -0.1799
 1302ERGO    R116464   0.845   6.301   9.330 -0.1941  0.2917 -0.2604
 1302ERGO    R216465   0.967   6.118   9.162 -0.0658  0.3124 -0.1814
 1302ERGO    R316466   0.758   6.178   8.998 -0.2163 -0.0501 -0.1345
 1302ERGO    R416467   0.954   6.048   8.823 -0.0618  0.1848 -0.1567
 1302ERGO    R516468   0.861   6.243   8.792 -0.3699  0.0447 -0.1888
 1302ERGO    C116469   0.752   6.064   8.473 -0.2008 -0.2298 -0.0982
 1302ERGO    C216470   0.779   6.008   8.123  0.0093 -0.1573  0.0417
 1303ERGO   ROH16471  11.161  17.814  10.667 -0.0305 -0.1922  0.1270
 1303ERGO    R116472  11.290  17.905  10.433  0.0182 -0.2728  0.1227
 1303ERGO    R216473  11.341  17.740  10.217 -0.1118 -0.3002  0.1139
 1303ERGO    R316474  11.208  17.932  10.079  0.0140 -0.2003  0.1287
 1303ERGO    R416475  11.328  17.762   9.873  0.2528 -0.0186  0.1115
 1303ERGO    R516476  11.349  17.978   9.891  0.2124 -0.0283  0.3124
 1303ERGO    C116477  11.195  17.955   9.542  0.5833  0.2394  0.1238
 1303ERGO    C216478  11.062  17.929   9.258 -0.1999 -0.2820 -0.0121
 1304ERGO   ROH16479  17.252   2.980   6.472 -0.1397  0.0840 -0.1416
 1304ERGO    R116480  17.020   3.017   6.629 -0.1068  0.1513 -0.1101
 1304ERGO    R216481  16.926   2.825   6.803 -0.1322  0.1852 -0.0949
 1304ERGO    R316482  16.939   3.028   6.984 -0.0581  0.1844 -0.0981
 1304ERGO    R416483  16.762   2.829   7.108 -0.0464  0.1886 -0.0481
 1304ERGO    R516484  16.718   3.040   7.075 -0.0371  0.1998 -0.0355
 1304ERGO    C116485  16.680   3.022   7.454  0.0729  0.1900 -0.0239
 1304ERGO    C216486  16.433   3.140   7.703 -0.0470 -0.2622 -0.2150
 1305ERGO   ROH16487  11.189  15.949  10.472  0.0051 -0.1721  0.0706
 1305ERGO    R116488  11.095  16.042  10.222  0.0464 -0.0059  0.1168
 1305ERGO    R216489  11.245  16.209  10.059  0.2129 -0.1745  0.1030
 1305ERGO    R316490  11.199  16.015   9.874 -0.1003 -0.0818  0.0767
 1305ERGO    R416491  11.234  16.259   9.717  0.3767 -0.1126  0.1053
 1305ERGO    R516492  11.066  16.122   9.707  0.1211  0.1846  0.0577
 1305ERGO    C116493  11.185  16.106   9.345  0.1781  0.0103  0.0818
 1305ERGO    C216494  11.171  16.086   9.013 -0.1016  0.0540 -0.4268
 1306ERGO   ROH16495  14.196  14.212  10.507 -0.0195 -0.0513 -0.1969
 1306ERGO    R116496  14.259  14.417  10.322  0.0845 -0.0070 -0.1121
 1306ERGO    R216497  14.413  14.372  10.096 -0.0610 -0.0251 -0.2031
 1306ERGO    R316498  14.199  14.482   9.969 -0.0163  0.2455 -0.0523
 1306ERGO    R416499  14.411  14.477   9.767 -0.2051 -0.2185 -0.2665
 1306ERGO    R516500  14.294  14.650   9.827  0.1279  0.0151 -0.2443
 1306ERGO    C116501  14.210  14.641   9.456 -0.2472 -0.0773 -0.1618
 1306ERGO    C216502  14.182  14.591   9.229 -0.0928 -0.0013  0.3377
 1307ERGO   ROH16503  17.461  10.556   9.642  0.1048  0.2523 -0.0168
 1307ERGO    R116504  17.427  10.589   9.363 -0.0658  0.0411 -0.0241
 1307ERGO    R216505  17.178  10.596   9.243 -0.1539  0.2352  0.1618
 1307ERGO    R316506  17.268  10.832   9.143  0.0629  0.0403 -0.1190
 1307ERGO    R416507  17.065  10.743   8.952 -0.2358  0.1406  0.1455
 1307ERGO    R516508  17.270  10.799   8.906 -0.2008 -0.1618 -0.0973
 1307ERGO    C116509  17.083  11.051   8.688 -0.0797 -0.0972 -0.1275
 1307ERGO    C216510  16.972  11.114   8.360  0.0043  0.2007 -0.0836
 1308ERGO   ROH16511  14.378   7.543   9.456 -0.1309  0.1835 -0.1762
 1308ERGO    R116512  14.235   7.507   9.215 -0.0715  0.2036 -0.2160
 1308ERGO    R216513  14.146   7.720   9.062 -0.0525  0.2213 -0.2145
 1308ERGO    R316514  14.283   7.593   8.864  0.0097  0.2539 -0.1908
 1308ERGO    R416515  14.121   7.793   8.725 -0.1027  0.1184 -0.2323
 1308ERGO    R516516  14.128   7.579   8.683  0.0174  0.1191 -0.1811
 1308ERGO    C116517  14.235   7.715   8.343 -0.0735  0.0892 -0.2205
 1308ERGO    C216518  14.408   7.603   7.999  0.3257  0.0524 -0.1600
 1309ERGO   ROH16519   1.744  12.804  10.108  0.2037  0.0103 -0.0633
 1309ERGO    R116520   1.673  12.899   9.851  0.1833  0.1612 -0.0036
 1309ERGO    R216521   1.822  13.088   9.715  0.2957  0.0811  0.0024
 1309ERGO    R316522   1.822  12.900   9.519  0.0553  0.1447 -0.0607
 1309ERGO    R416523   1.867  13.154   9.379  0.2100  0.1492  0.0044
 1309ERGO    R516524   1.712  13.007   9.335  0.0684  0.2950  0.0199
 1309ERGO    C116525   1.892  13.016   8.999 -0.0656  0.2486 -0.0536
 1309ERGO    C216526   1.784  13.133   8.639 -0.1024 -0.0115  0.1091
 1310ERGO   ROH16527   7.256   8.093   6.731 -0.0794  0.0516 -0.1358
 1310ERGO    R116528   7.324   8.057   7.003 -0.0756  0.1370 -0.1252
 1310ERGO    R216529   7.584   8.070   7.094 -0.0665  0.0937 -0.1446
 1310ERGO    R316530   7.482   8.255   7.265 -0.0013  0.1918 -0.2109
 1310ERGO    R416531   7.742   8.184   7.380 -0.1166 -0.0144 -0.0726
 1310ERGO    R516532   7.549   8.180   7.482 -0.1733  0.1517 -0.1698
 1310ERGO    C116533   7.738   8.424   7.706 -0.0846  0.0147 -0.0930
 1310ERGO    C216534   7.686   8.602   8.011  0.3225  0.0698  0.1225
 1311ERGO   ROH16535  16.550  14.454  10.632 -0.0657 -0.0443 -0.0797
 1311ERGO    R116536  16.732  14.416  10.419 -0.0490  0.1464 -0.0991
 1311ERGO    R216537  16.707  14.210  10.236  0.1412  0.1275 -0.0961
 1311ERGO    R316538  16.717  14.413  10.056 -0.0799  0.1390 -0.0996
 1311ERGO    R416539  16.697  14.170   9.893  0.2569  0.0905 -0.0968
 1311ERGO    R516540  16.848  14.326   9.875  0.0713  0.2886 -0.0721
 1311ERGO    C116541  16.699  14.336   9.524  0.1165  0.0799 -0.1004
 1311ERGO    C216542  16.634  14.226   9.308  0.1616  0.2362  0.0150
 1312ERGO   ROH16543   9.401  13.873  10.011  0.0608 -0.1513 -0.0250
 1312ERGO    R116544   9.248  13.942   9.783  0.0967 -0.0714 -0.0249
 1312ERGO    R216545   9.300  14.169   9.632  0.1753 -0.0653  0.0126
 1312ERGO    R316546   9.311  13.990   9.427  0.1337 -0.0381 -0.0143
 1312ERGO    R416547   9.281  14.250   9.297  0.0503 -0.0250  0.0285
 1312ERGO    R516548   9.156  14.075   9.266  0.0658 -0.0403  0.0482
 1312ERGO    C116549   9.280  14.130   8.909 -0.0615  0.0241  0.0124
 1312ERGO    C216550   9.259  13.955   8.676 -0.0002  0.1250 -0.1467
 1313ERGO   ROH16551  17.433  11.903  10.103 -0.0653  0.0394  0.0364
 1313ERGO    R116552  17.614  11.970   9.897 -0.0457  0.1841  0.1010
 1313ERGO    R216553  17.623  11.835   9.657  0.1734  0.1660  0.1218
 1313ERGO    R316554  17.591  12.083   9.551 -0.0125  0.1266  0.0789
 1313ERGO    R416555  17.740  11.933   9.347  0.2300  0.2370  0.1645
 1313ERGO    R516556  17.796  12.125   9.435  0.0085  0.3058  0.1721
 1313ERGO    C116557  17.778  12.224   9.067  0.0885  0.2414  0.1491
 1313ERGO    C216558  17.682  12.296   8.726  0.0532 -0.2225 -0.4209
 1314ERGO   ROH16559   6.576  11.802   6.689  0.0024  0.1123  0.0729
 1314ERGO    R116560   6.481  11.743   6.949 -0.0559  0.0044  0.0291
 1314ERGO    R216561   6.641  11.764   7.173 -0.1109 -0.0639  0.0797
 1314ERGO    R316562   6.440  11.924   7.262 -0.1488 -0.1161  0.0863
 1314ERGO    R416563   6.550  11.799   7.504 -0.0098  0.0351  0.0969
 1314ERGO    R516564   6.341  11.800   7.441 -0.0304 -0.0829  0.1729
 1314ERGO    C116565   6.308  11.970   7.781  0.0134  0.0439  0.1131
 1314ERGO    C216566   6.391  11.963   8.070  0.0501 -0.0670  0.1361
 1315ERGO   ROH16567   4.523  17.834   6.952  0.0893 -0.0112  0.0100
 1315ERGO    R116568   4.518  17.762   7.226  0.1395  0.0106  0.0173
 1315ERGO    R216569   4.424  17.931   7.423  0.0563 -0.0210  0.0073
 1315ERGO    R316570   4.265  17.719   7.483  0.1718 -0.1012  0.0306
 1315ERGO    R416571   4.318  17.847   7.741 -0.0155  0.0410 -0.0005
 1315ERGO    R516572   4.350  17.637   7.691  0.1426  0.0411  0.0987
 1315ERGO    C116573   4.106  17.599   7.982  0.0512  0.0016  0.0168
 1315ERGO    C216574   3.942  17.431   8.232 -0.0710 -0.0792 -0.0803
 1316ERGO   ROH16575  12.153   4.152   6.164  0.1730  0.0779 -0.0999
 1316ERGO    R116576  12.163   4.382   6.329  0.1028  0.0782 -0.0926
 1316ERGO    R216577  11.999   4.414   6.549  0.1169  0.0056 -0.0603
 1316ERGO    R316578  12.235   4.453   6.679  0.1235  0.0895 -0.1016
 1316ERGO    R416579  12.042   4.621   6.823  0.1174  0.0675 -0.1090
 1316ERGO    R516580  12.233   4.685   6.738  0.0827  0.0941 -0.1452
 1316ERGO    C116581  12.289   4.778   7.103  0.1239  0.1823 -0.1761
 1316ERGO    C216582  12.297   4.928   7.351  0.0766  0.1921  0.1055
 1317ERGO   ROH16583   3.625  17.872   6.607 -0.0257 -0.2769  0.0802
 1317ERGO    R116584   3.571  17.867   6.885  0.0374 -0.1981  0.0945
 1317ERGO    R216585   3.589  18.092   7.045 -0.0978 -0.1131 -0.0062
 1317ERGO    R316586   3.334  18.026   7.112 -0.0353 -0.2778  0.0747
 1317ERGO    R416587   3.459  18.103   7.365 -0.0613 -0.0007  0.0049
 1317ERGO    R516588   3.355  17.917   7.324  0.0852 -0.1167  0.1473
 1317ERGO    C116589   3.145  18.048   7.614  0.0187 -0.0898  0.0873
 1317ERGO    C216590   3.145  17.936   7.995  0.0808  0.2090 -0.2152
 1318ERGO   ROH16591   5.896   5.447   6.402 -0.1723  0.0704 -0.0471
 1318ERGO    R116592   6.067   5.481   6.625 -0.0381 -0.0329 -0.1327
 1318ERGO    R216593   6.024   5.673   6.819  0.1368 -0.0498 -0.0711
 1318ERGO    R316594   6.038   5.460   6.987  0.1486 -0.0877 -0.1203
 1318ERGO    R416595   6.056   5.695   7.162  0.0770 -0.1342 -0.0599
 1318ERGO    R516596   6.195   5.527   7.155  0.1068 -0.1039 -0.0781
 1318ERGO    C116597   6.088   5.507   7.520  0.0533 -0.2189 -0.0996
 1318ERGO    C216598   6.083   5.471   7.881 -0.0124  0.1788  0.3073
 1319ERGO   ROH16599   2.956   3.446   9.778  0.3845  0.0052  0.1429
 1319ERGO    R116600   3.168   3.370   9.607  0.2675  0.0128 -0.0090
 1319ERGO    R216601   3.134   3.199   9.394  0.1144  0.0415 -0.0106
 1319ERGO    R316602   3.248   3.402   9.253  0.0335  0.0536 -0.0589
 1319ERGO    R416603   3.248   3.173   9.069  0.1812 -0.0031  0.0165
 1319ERGO    R516604   3.421   3.295   9.125  0.1083  0.1023  0.0040
 1319ERGO    C116605   3.423   3.349   8.748  0.1443 -0.0177 -0.0131
 1319ERGO    C216606   3.582   3.253   8.472  0.0764 -0.2746  0.2218
 1320ERGO   ROH16607   7.016  10.174   6.477 -0.0547  0.2280  0.1723
 1320ERGO    R116608   7.012  10.293   6.734 -0.0190  0.1520  0.2083
 1320ERGO    R216609   6.940  10.154   6.961 -0.0265  0.0965  0.1700
 1320ERGO    R316610   7.181  10.240   7.053 -0.0075  0.0304  0.1834
 1320ERGO    R416611   7.016  10.210   7.294 -0.1279  0.3506  0.1523
 1320ERGO    R516612   7.126  10.388   7.233  0.0083  0.2313  0.0296
 1320ERGO    C116613   7.286  10.324   7.573 -0.1690  0.4365  0.1547
 1320ERGO    C216614   7.157  10.260   7.892  0.2117  0.1232 -0.3272
 1321ERGO   ROH16615   2.424   4.871   6.334  0.0443 -0.1616  0.0480
 1321ERGO    R116616   2.271   4.812   6.565  0.0269 -0.1260  0.0438
 1321ERGO    R216617   2.378   4.684   6.785  0.0373  0.0120  0.1117
 1321ERGO    R316618   2.281   4.901   6.918 -0.0767  0.0250  0.0114
 1321ERGO    R416619   2.305   4.694   7.123  0.4836  0.2578  0.2107
 1321ERGO    R516620   2.127   4.809   7.076  0.2539 -0.0284  0.3204
 1321ERGO    C116621   2.171   4.902   7.444  0.6365  0.4131  0.1742
 1321ERGO    C216622   2.247   4.801   7.790  0.1200  0.0486  0.0404
 1322ERGO   ROH16623   7.604   8.805   6.656 -0.1068 -0.1858 -0.2565
 1322ERGO    R116624   7.479   8.612   6.820 -0.0916 -0.0530 -0.0859
 1322ERGO    R216625   7.350   8.679   7.055 -0.1439  0.1509 -0.1675
 1322ERGO    R316626   7.142   8.546   6.941 -0.0964 -0.0053 -0.0752
 1322ERGO    R416627   7.059   8.587   7.218 -0.1110  0.1541 -0.1071
 1322ERGO    R516628   7.064   8.398   7.111 -0.0424  0.0836  0.0249
 1322ERGO    C116629   6.695   8.410   7.205 -0.0472  0.0093  0.0147
 1322ERGO    C216630   6.404   8.562   7.374 -0.1809  0.0826  0.2488
 1323ERGO   ROH16631  10.246   8.475  10.140  0.0289 -0.3005  0.0108
 1323ERGO    R116632  10.379   8.473   9.890  0.0346 -0.2675  0.0129
 1323ERGO    R216633  10.366   8.258   9.716 -0.2094 -0.1294 -0.1512
 1323ERGO    R316634  10.283   8.448   9.540  0.0102  0.1037 -0.0099
 1323ERGO    R416635  10.418   8.248   9.374 -0.2224  0.0772 -0.1604
 1323ERGO    R516636  10.459   8.462   9.379  0.0240  0.0258  0.0032
 1323ERGO    C116637  10.370   8.420   9.010 -0.0239  0.4162 -0.0330
 1323ERGO    C216638  10.207   8.236   8.708 -0.0936 -0.1823  0.0176
 1324ERGO   ROH16639   9.015  13.162  10.197  0.1635  0.1359  0.0464
 1324ERGO    R116640   8.892  13.076   9.957  0.1516  0.0186  0.0944
 1324ERGO    R216641   8.649  13.175   9.870  0.1473 -0.0270  0.0610
 1324ERGO    R316642   8.789  13.229   9.643  0.1317 -0.1343  0.0245
 1324ERGO    R416643   8.510  13.291   9.576  0.1584  0.0914  0.1017
 1324ERGO    R516644   8.644  13.159   9.466  0.0244 -0.0160  0.0617
 1324ERGO    C116645   8.561  13.410   9.192  0.1502  0.0596  0.0911
 1324ERGO    C216646   8.398  13.586   8.914 -0.0169  0.0062 -0.0107
 1325ERGO   ROH16647   0.997  11.747   6.530 -0.1972 -0.1034 -0.1337
 1325ERGO    R116648   1.094  11.523   6.674 -0.2123 -0.1406 -0.1806
 1325ERGO    R216649   1.115  11.521   6.950 -0.0351 -0.1314 -0.1907
 1325ERGO    R316650   0.964  11.296   6.927 -0.1613 -0.0587 -0.0819
 1325ERGO    R416651   1.098  11.269   7.185 -0.1635 -0.0249 -0.0841
 1325ERGO    R516652   1.098  11.124   7.023 -0.2549 -0.0935 -0.0187
 1325ERGO    C116653   0.947  10.911   7.301 -0.3567  0.1053  0.0802
 1325ERGO    C216654   0.770  10.773   7.570 -0.0890  0.3249  0.4276
 1326ERGO   ROH16655   0.787   9.343   9.184 -0.0551 -0.1297 -0.0695
 1326ERGO    R116656   0.730   9.287   8.913 -0.1014 -0.1971 -0.0458
 1326ERGO    R216657   0.751   9.477   8.714 -0.2117 -0.2257 -0.0845
 1326ERGO    R316658   0.911   9.291   8.597 -0.1783 -0.1934 -0.0905
 1326ERGO    R416659   0.877   9.499   8.393 -0.0945 -0.1182 -0.0315
 1326ERGO    R516660   0.839   9.286   8.369 -0.0967 -0.1094 -0.1196
 1326ERGO    C116661   1.102   9.338   8.097  0.0050 -0.0252 -0.0063
 1326ERGO    C216662   1.384   9.451   7.772  0.1849 -0.2890  0.1748
 1327ERGO   ROH16663   0.209  11.049   9.905 -0.0728 -0.1249  0.0235
 1327ERGO    R116664   0.326  11.068   9.648 -0.0492 -0.0395  0.0410
 1327ERGO    R216665   0.297  10.871   9.455  0.0728 -0.0328  0.0173
 1327ERGO    R316666   0.208  11.078   9.304 -0.0094 -0.0607  0.0262
 1327ERGO    R416667   0.268  10.867   9.111 -0.1228 -0.1011  0.0329
 1327ERGO    R516668   0.343  11.071   9.107 -0.1203 -0.1025 -0.0501
 1327ERGO    C116669   0.168  11.058   8.768 -0.3138 -0.1670  0.0503
 1327ERGO    C216670   0.120  11.189   8.485 -0.0612  0.1365 -0.2278
 1328ERGO   ROH16671   8.621  11.275   6.544 -0.0774 -0.3290 -0.0491
 1328ERGO    R116672   8.628  11.215   6.821 -0.0462 -0.1977 -0.0201
 1328ERGO    R216673   8.473  11.350   7.007  0.0966  0.0024 -0.0433
 1328ERGO    R316674   8.390  11.100   7.071 -0.0615  0.0900  0.1009
 1328ERGO    R416675   8.369  11.249   7.321  0.0394  0.2428  0.0169
 1328ERGO    R516676   8.474  11.062   7.291 -0.0806  0.1587  0.1193
 1328ERGO    C116677   8.229  10.956   7.563 -0.1423  0.4647  0.1874
 1328ERGO    C216678   8.208  10.628   7.913  0.1511  0.0167 -0.3257
 1329ERGO   ROH16679   9.039  16.258   6.619  0.0623  0.1054 -0.0671
 1329ERGO    R116680   9.043  16.446   6.831  0.0938  0.1401 -0.0981
 1329ERGO    R216681   8.883  16.420   7.055  0.0990  0.1973 -0.0881
 1329ERGO    R316682   9.120  16.442   7.186  0.1063  0.1896 -0.0999
 1329ERGO    R416683   8.917  16.484   7.393  0.1118  0.0024 -0.0518
 1329ERGO    R516684   9.084  16.616   7.347  0.0680  0.0825  0.0101
 1329ERGO    C116685   9.159  16.541   7.713  0.1261 -0.1185 -0.0417
 1329ERGO    C216686   9.318  16.322   7.950  0.0086  0.0304 -0.3916
 1330ERGO   ROH16687   4.261  16.247   6.776 -0.1065  0.0512  0.2310
 1330ERGO    R116688   4.185  16.304   7.043 -0.0746  0.1588  0.2189
 1330ERGO    R216689   4.093  16.110   7.216 -0.2877  0.2655  0.2377
 1330ERGO    R316690   4.292  16.204   7.376 -0.2027  0.0860  0.2373
 1330ERGO    R416691   4.140  16.021   7.547 -0.3021  0.1529  0.2089
 1330ERGO    R516692   4.190  16.228   7.591 -0.1529  0.1034  0.2549
 1330ERGO    C116693   4.355  16.058   7.889 -0.2307 -0.0814  0.1917
 1330ERGO    C216694   4.532  15.935   8.113 -0.0031 -0.0391 -0.1270
 1331ERGO   ROH16695   9.445   9.573   6.520  0.2766  0.0343  0.0577
 1331ERGO    R116696   9.538   9.417   6.737  0.1189 -0.0588  0.0623
 1331ERGO    R216697   9.419   9.425   6.988  0.1012  0.0395  0.0628
 1331ERGO    R316698   9.402   9.157   6.952 -0.1420  0.0585  0.0388
 1331ERGO    R416699   9.377   9.194   7.241  0.1995  0.0228  0.0619
 1331ERGO    R516700   9.518   9.064   7.139 -0.0144 -0.0652 -0.1083
 1331ERGO    C116701   9.335   8.808   7.355  0.0283  0.0309  0.0390
 1331ERGO    C216702   9.218   8.479   7.413  0.2074  0.3394 -0.0795
 1332ERGO   ROH16703   1.803  12.111   9.934 -0.0511 -0.0796 -0.2081
 1332ERGO    R116704   1.935  12.144   9.686  0.0288 -0.0101 -0.1563
 1332ERGO    R216705   2.050  11.934   9.549  0.0497  0.0254 -0.1886
 1332ERGO    R316706   1.893  12.022   9.346  0.1231  0.1071 -0.2115
 1332ERGO    R416707   2.150  11.959   9.219  0.0617 -0.1904 -0.2029
 1332ERGO    R516708   2.041  12.148   9.206  0.2427 -0.0854 -0.2641
 1332ERGO    C116709   2.060  12.056   8.836  0.1376 -0.2395 -0.2329
 1332ERGO    C216710   2.127  11.939   8.537 -0.0848 -0.3997  0.3252
 1333ERGO   ROH16711   8.996   1.829   6.741 -0.2006 -0.0719  0.1253
 1333ERGO    R116712   9.119   1.964   6.958 -0.0889 -0.0195  0.0295
 1333ERGO    R216713   9.037   1.931   7.220  0.0645  0.0225  0.0809
 1333ERGO    R316714   9.298   1.869   7.260  0.0943  0.0565 -0.0526
 1333ERGO    R416715   9.207   1.969   7.519  0.1612 -0.1170  0.0453
 1333ERGO    R516716   9.379   2.039   7.407  0.1070 -0.0098  0.0219
 1333ERGO    C116717   9.551   1.933   7.730  0.2453 -0.1664 -0.1007
 1333ERGO    C216718   9.712   1.978   8.024  0.4117 -0.1491  0.0496
 1334ERGO   ROH16719  10.420   9.156   6.340  0.3074  0.0227 -0.1155
 1334ERGO    R116720  10.550   9.046   6.566  0.1673  0.0592 -0.0168
 1334ERGO    R216721  10.500   9.132   6.824 -0.2034 -0.0940 -0.0365
 1334ERGO    R316722  10.451   8.869   6.868  0.0064 -0.1639 -0.1948
 1334ERGO    R416723  10.450   8.990   7.135 -0.1456 -0.3047 -0.1204
 1334ERGO    R516724  10.569   8.819   7.071  0.0131 -0.1756 -0.1967
 1334ERGO    C116725  10.374   8.660   7.358  0.0851 -0.4930 -0.3180
 1334ERGO    C216726  10.111   8.784   7.654 -0.1075  0.0113 -0.1969
 1335ERGO   ROH16727   0.977   7.834   5.953  0.2835 -0.0040 -0.1104
 1335ERGO    R116728   0.974   7.865   6.235  0.0624 -0.1316 -0.0962
 1335ERGO    R216729   1.000   7.651   6.408  0.1319 -0.1889 -0.1738
 1335ERGO    R316730   1.203   7.800   6.510 -0.0671 -0.0521  0.0312
 1335ERGO    R416731   1.158   7.590   6.710  0.1104 -0.3022 -0.1854
 1335ERGO    R516732   1.161   7.805   6.746 -0.1456 -0.3295  0.0260
 1335ERGO    C116733   1.440   7.695   6.981 -0.0890 -0.2398  0.0003
 1335ERGO    C216734   1.666   7.555   7.147 -0.0012 -0.1527 -0.1238
 1336ERGO   ROH16735   1.852   2.874   9.897 -0.1220 -0.0800 -0.1525
 1336ERGO    R116736   2.023   2.920   9.676 -0.0941  0.0140 -0.1115
 1336ERGO    R216737   2.097   2.719   9.501 -0.0521  0.0839 -0.1716
 1336ERGO    R316738   2.000   2.891   9.314 -0.0381  0.1421 -0.1260
 1336ERGO    R416739   2.045   2.640   9.168 -0.1774  0.1352 -0.1651
 1336ERGO    R516740   2.122   2.837   9.115 -0.1140  0.1124 -0.1670
 1336ERGO    C116741   1.924   2.756   8.799 -0.2372  0.2196 -0.1186
 1336ERGO    C216742   1.943   2.634   8.446 -0.0812 -0.0818 -0.0162
 1337ERGO   ROH16743   4.778  16.315  10.426 -0.3742  0.0627  0.0257
 1337ERGO    R116744   4.713  16.427  10.175 -0.3183  0.0067 -0.0134
 1337ERGO    R216745   4.905  16.517   9.998 -0.2864  0.0996  0.0723
 1337ERGO    R316746   4.780  16.349   9.825 -0.1107  0.0177  0.0217
 1337ERGO    R416747   4.915  16.544   9.654 -0.0066 -0.0038  0.0689
 1337ERGO    R516748   4.703  16.491   9.649  0.0039 -0.0499 -0.0874
 1337ERGO    C116749   4.802  16.402   9.291  0.3212 -0.1409  0.0194
 1337ERGO    C216750   4.843  16.460   8.991  0.1436 -0.3323  0.0591
 1338ERGO   ROH16751   9.407   9.109   9.868  0.0033  0.0853  0.0912
 1338ERGO    R116752   9.482   8.972   9.632  0.0245  0.0878  0.0964
 1338ERGO    R216753   9.362   8.737   9.551  0.0447  0.0773  0.0929
 1338ERGO    R316754   9.322   8.875   9.320  0.0458  0.0729  0.0904
 1338ERGO    R416755   9.313   8.594   9.241 -0.1349  0.0708  0.1235
 1338ERGO    R516756   9.439   8.749   9.154 -0.0780 -0.0090  0.0659
 1338ERGO    C116757   9.246   8.639   8.843 -0.2384  0.0629  0.1388
 1338ERGO    C216758   9.236   8.464   8.493  0.0194  0.0680 -0.2774
 1339ERGO   ROH16759   2.323   4.301   9.861 -0.1682 -0.0542  0.0308
 1339ERGO    R116760   2.360   4.418   9.606  0.1148  0.0463  0.1165
 1339ERGO    R216761   2.610   4.461   9.496  0.2222 -0.3988  0.1954
 1339ERGO    R316762   2.507   4.320   9.288 -0.0387 -0.0454  0.0695
 1339ERGO    R416763   2.662   4.535   9.163  0.6853 -0.4074  0.2578
 1339ERGO    R516764   2.453   4.486   9.124  0.5470  0.1927  0.0842
 1339ERGO    C116765   2.597   4.445   8.773  0.7100 -0.0806  0.1760
 1339ERGO    C216766   2.776   4.429   8.476  0.0268 -0.1234 -0.0697
 1340ERGO   ROH16767  14.682   9.248   5.990 -0.0059  0.0915 -0.0321
 1340ERGO    R116768  14.694   9.235   6.272  0.0381  0.0608 -0.0363
 1340ERGO    R216769  14.495   9.335   6.434  0.0511  0.0122  0.0017
 1340ERGO    R316770  14.498   9.084   6.539  0.1014  0.0022 -0.0210
 1340ERGO    R416771  14.479   9.262   6.772  0.1306 -0.0121  0.0012
 1340ERGO    R516772  14.628   9.105   6.740  0.1447  0.0041 -0.0448
 1340ERGO    C116773  14.474   8.984   7.067  0.2241 -0.0358 -0.0204
 1340ERGO    C216774  14.371   9.199   7.436  0.1014 -0.1248 -0.0972
 1341ERGO   ROH16775  13.520   8.431   5.965  0.1668  0.1396 -0.1102
 1341ERGO    R116776  13.599   8.479   6.232  0.0796  0.0354 -0.0657
 1341ERGO    R216777  13.537   8.307   6.439 -0.0822  0.0127 -0.1374
 1341ERGO    R316778  13.805   8.311   6.481 -0.0966 -0.1196 -0.0200
 1341ERGO    R416779  13.688   8.292   6.750 -0.2412  0.1715 -0.0497
 1341ERGO    R516780  13.832   8.441   6.681 -0.1144  0.0312 -0.1096
 1341ERGO    C116781  14.028   8.287   6.970 -0.3474  0.1397  0.1115
 1341ERGO    C216782  14.149   8.023   7.182  0.4118  0.3049 -0.1595
 1342ERGO   ROH16783   7.276  11.766  10.087  0.1153  0.1557 -0.0702
 1342ERGO    R116784   7.162  11.853   9.844  0.1339  0.1822 -0.0698
 1342ERGO    R216785   7.314  11.950   9.634  0.1830 -0.1288 -0.1828
 1342ERGO    R316786   7.182  11.758   9.493 -0.1312 -0.0308 -0.0310
 1342ERGO    R416787   7.261  11.958   9.293  0.2033 -0.3083 -0.1907
 1342ERGO    R516788   7.060  11.881   9.327  0.0695  0.0452 -0.1279
 1342ERGO    C116789   7.106  11.783   8.961 -0.0797 -0.3208 -0.0528
 1342ERGO    C216790   7.038  11.724   8.658 -0.2312  0.2967  0.0848
 1343ERGO   ROH16791   6.886   3.711   8.284 -0.1808  0.0149 -0.1284
 1343ERGO    R116792   6.968   3.969   8.202 -0.2467 -0.0343 -0.3530
 1343ERGO    R216793   7.232   4.052   8.213 -0.3206  0.1700 -0.0562
 1343ERGO    R316794   7.192   4.107   7.950  0.0408 -0.2165 -0.2043
 1343ERGO    R416795   7.415   4.279   8.028 -0.3581  0.2398 -0.0086
 1343ERGO    R516796   7.231   4.342   7.932 -0.3056 -0.1670 -0.4132
 1343ERGO    C116797   7.484   4.463   7.674 -0.0407 -0.0822 -0.1197
 1343ERGO    C216798   7.651   4.684   7.539  0.4538  0.0024 -0.2264
 1344ERGO   ROH16799   0.121   4.744   6.115 -0.0067  0.0334  0.0169
 1344ERGO    R116800   0.316   4.661   6.302 -0.0168 -0.0590 -0.0126
 1344ERGO    R216801   0.312   4.742   6.566  0.1057  0.0073 -0.0297
 1344ERGO    R316802   0.320   4.475   6.615 -0.0703  0.0117  0.0306
 1344ERGO    R416803   0.323   4.600   6.881  0.0147  0.0715  0.0027
 1344ERGO    R516804   0.466   4.454   6.804 -0.0817 -0.0414  0.0338
 1344ERGO    C116805   0.337   4.266   7.110 -0.2036  0.1131  0.0781
 1344ERGO    C216806   0.387   4.118   7.298 -0.2092  0.3882  0.2875
 1345ERGO   ROH16807   2.846   7.379   5.981 -0.0030  0.1601  0.0097
 1345ERGO    R116808   2.740   7.442   6.235  0.0534  0.1159  0.0445
 1345ERGO    R216809   2.546   7.288   6.358  0.0007  0.1548  0.0126
 1345ERGO    R316810   2.726   7.284   6.563  0.0234  0.0057 -0.0099
 1345ERGO    R416811   2.466   7.231   6.690  0.0317 -0.0341 -0.0117
 1345ERGO    R516812   2.609   7.386   6.746  0.0597 -0.0884  0.0658
 1345ERGO    C116813   2.588   7.193   7.074  0.0711 -0.2841 -0.0469
 1345ERGO    C216814   2.659   7.101   7.417 -0.0256  0.4657  0.1478
 1346W        W16815  14.851  15.226   5.336 -0.3106 -0.3033  0.2583
 1347W        W16816   9.811   9.916   1.156 -0.0367 -0.1079 -0.1114
 1348W        W16817  16.536  11.111  12.179  0.3428 -0.1738 -0.2096
 1349W        W16818   3.712  10.681   0.836 -0.1443 -0.1743  0.0444
 1350W        W16819   6.621   2.819  16.585 -0.1283  0.1550  0.3781
 1351W        W16820  14.765   2.539   5.400 -0.0512  0.2919  0.1708
 1352W        W16821   7.790   3.483  14.593  0.0222 -0.0389 -0.2094
 1353W        W16822  14.680   2.453   2.996 -0.0976 -0.1501  0.1558
 1354W        W16823  12.381   7.588  13.070 -0.1554 -0.0593 -0.2764
 1355W        W16824  15.574   5.129  14.040  0.2295  0.1540 -0.0363
 1356W        W16825   6.493  14.788   0.716  0.1969 -0.1840  0.3051
 1357W        W16826   7.458   2.522   4.426 -0.1197  0.0557 -0.2410
 1358W        W16827  11.897   3.470   4.132 -0.0182 -0.2924  0.1920
 1359W        W16828  17.760  11.046   5.377 -0.0836  0.1045  0.0249
 1360W        W16829   5.158  11.844  16.359 -0.2434  0.0050 -0.0533
 1361W        W16830   4.244   3.262  12.809 -0.2083 -0.0001  0.4745
 1362W        W16831   2.646  17.324  13.696  0.0765  0.0168 -0.0933
 1363W        W16832  13.488  16.059   4.936 -0.0915 -0.0919 -0.1206
 1364W        W16833  14.261   8.759   4.890 -0.0039  0.3404  0.0256
 1365W        W16834   1.441  14.016   3.638  0.0344  0.0653  0.0278
 1366W        W16835   8.124  10.475   0.810 -0.0506 -0.1651 -0.0247
 1367W        W16836   5.480  11.181  16.489  0.2918  0.1680 -0.0956
 1368W        W16837   3.130  14.890  12.698  0.3132 -0.3609  0.4316
 1369W        W16838   6.194  15.863   0.040 -0.0549 -0.1217 -0.1288
 1370W        W16839  11.242  14.034   2.351  0.0574  0.2032 -0.1925
 1371W        W16840  15.768   6.769   0.967  0.1663 -0.1295 -0.0264
 1372W        W16841  17.823  15.542  15.673 -0.1073 -0.0919 -0.0248
 1373W        W16842  12.043  11.193   2.804  0.2202 -0.1254 -0.1493
 1374W        W16843   7.811  13.998  12.385  0.2187  0.0884 -0.2539
 1375W        W16844   9.082   6.094   6.278  0.2881  0.0411 -0.1291
 1376W        W16845  12.067   3.108  15.350 -0.0838 -0.2061  0.0463
 1377W        W16846   1.942   2.258  12.869 -0.0654 -0.0021  0.1663
 1378W        W16847   8.395  12.383  13.930  0.0565 -0.0208 -0.0637
 1379W        W16848  16.560   6.764   1.673 -0.0696  0.0976 -0.0057
 1380W        W16849   2.482   8.687  16.397  0.0103  0.0868 -0.2216
 1381W        W16850  13.367   5.190  16.270 -0.1343 -0.0309  0.0354
 1382W        W16851   1.880  16.810   5.701  0.0144  0.1437 -0.0613
 1383W        W16852  16.119  12.842   1.810  0.1010 -0.0135  0.1645
 1384W        W16853  13.475  12.028  11.014 -0.1701 -0.1451  0.0874
 1385W        W16854  11.567   1.299  15.974  0.3807  0.0595 -0.1778
 1386W        W16855   0.497  17.488  14.435  0.3110  0.0762 -0.1185
 1387W        W16856   4.906   5.946  14.184  0.1030  0.0133 -0.0293
 1388W        W16857  10.408  11.940  14.735  0.2049 -0.2628  0.0176
 1389W        W16858  10.888   7.009   1.002  0.2242 -0.2203  0.0182
 1390W        W16859   3.298   8.384   0.510 -0.1674 -0.0581  0.0712
 1391W        W16860   1.489  15.712   4.556  0.1757 -0.2578  0.1258
 1392W        W16861   7.987  17.675  13.058 -0.4185 -0.1484  0.1160
 1393W        W16862   7.928  16.697  14.022  0.1031 -0.1032 -0.2585
 1394W        W16863   1.626   2.099  13.351  0.1300 -0.2941 -0.1090
 1395W        W16864   6.010   8.346   5.398 -0.2302 -0.0051  0.0888
 1396W        W16865   5.866   1.193  13.230 -0.1182  0.2388 -0.0763
 1397W        W16866  17.318   5.388   2.700  0.1965  0.2075  0.0124
 1398W        W16867  16.551   6.397  13.675 -0.0863  0.0017 -0.0035
 1399W        W16868   5.304   6.323   2.025 -0.0996 -0.3084  0.1576
 1400W        W16869   0.944   2.819   0.270 -0.0244  0.0571 -0.0340
 1401W        W16870  15.828   0.087  13.246  0.0295  0.0127 -0.2687
 1402W        W16871   5.208   8.059   0.087  0.1197  0.1584  0.1663
 1403W        W16872   0.962   1.929  11.903 -0.0598 -0.1108 -0.4247
 1404W        W16873  10.574  16.983  16.011 -0.2846 -0.2298  0.0961
 1405W        W16874   5.366  11.108  13.868 -0.0269  0.1407  0.1778
 1406W        W16875  17.895  17.134   3.313  0.1815  0.3651  0.1502
 1407W        W16876   4.187  13.525  13.853  0.4252 -0.0797  0.1236
 1408W        W16877   0.450   2.048   6.456 -0.1293  0.1690  0.0082
 1409W        W16878  15.650  15.571   5.226  0.1822  0.0245 -0.0626
 1410W        W16879   5.440   8.876  13.879  0.0703  0.1091  0.0523
 1411W        W16880   5.108   8.922   2.309  0.1254 -0.0212  0.0591
 1412W        W16881   1.168   6.606  10.728 -0.3756  0.1801 -0.2103
 1413W        W16882  17.863   1.173  14.069 -0.1732 -0.3327  0.3425
 1414W        W16883   3.618  11.066   1.598 -0.1022  0.2258 -0.1001
 1415W        W16884   9.294  15.859   5.065 -0.2327 -0.2977  0.1357
 1416W        W16885  10.857   4.718  16.288 -0.0256 -0.0200  0.2712
 1417W        W16886   0.882  12.766   0.501 -0.1887  0.1595  0.1113
 1418W        W16887   4.422   3.813   4.095  0.1892  0.4950 -0.2047
 1419W        W16888   0.607  11.189   4.511  0.0802 -0.1225  0.2130
 1420W        W16889  10.009   2.807   4.868  0.2457  0.1771  0.0631
 1421W        W16890   1.946   1.664  11.887 -0.1359  0.4203 -0.0416
 1422W        W16891   7.662  15.759  14.164  0.2647 -0.0830  0.1593
 1423W        W16892  11.168   6.694   0.215 -0.0768  0.2329  0.0118
 1424W        W16893   7.959  11.477  11.706  0.0832 -0.1622  0.0643
 1425W        W16894   2.126  12.741  13.363 -0.0708  0.2860  0.4609
 1426W        W16895  11.692   6.884   5.369 -0.0864  0.1496 -0.2027
 1427W        W16896   2.760   7.342  16.088  0.2346 -0.1581  0.1440
 1428W        W16897   0.127   6.966   3.769 -0.1014 -0.0796  0.0488
 1429W        W16898  16.224  13.324  16.556 -0.0165  0.1069 -0.1577
 1430W        W16899   5.769  14.091   2.644 -0.0108 -0.0504 -0.2346
 1431W        W16900   6.662  15.529  15.814  0.1247 -0.0110 -0.0072
 1432W        W16901  13.104  12.478   3.033 -0.1740  0.1220 -0.0533
 1433W        W16902   9.205  14.629   1.445  0.2090  0.0275 -0.0055
 1434W        W16903   8.111  14.997  12.500 -0.1594  0.1664  0.1134
 1435W        W16904  11.977   8.009   0.648  0.3854 -0.2988 -0.2071
 1436W        W16905  11.465   3.213  14.459  0.3471  0.1491 -0.0596
 1437W        W16906  13.758   7.465  16.576  0.1633  0.1567 -0.0006
 1438W        W16907   5.077  10.350   0.244 -0.0962  0.3250 -0.3065
 1439W        W16908   3.949   6.273   0.219 -0.1603 -0.2358  0.0351
 1440W        W16909   5.997  14.142   1.413 -0.0355 -0.1473 -0.1443
 1441W        W16910   6.141   0.495  15.091  0.2791  0.0760 -0.0485
 1442W        W16911   2.323   1.770   4.531 -0.0842  0.3197 -0.1539
 1443W        W16912   9.498   9.060   1.849  0.3968  0.0836  0.0471
 1444W        W16913   7.355  13.717  13.978  0.1013 -0.0108  0.0561
 1445W        W16914   6.380   9.860  14.293 -0.0983  0.0572  0.0446
 1446W        W16915   6.010  17.010   4.068  0.0992 -0.3052 -0.1254
 1447W        W16916   8.108   3.471   5.925 -0.1002 -0.3364  0.0063
 1448W        W16917   5.897   5.393   3.506 -0.0354 -0.1987 -0.1651
 1449W        W16918   8.464   3.900  15.303 -0.0162  0.1698 -0.1842
 1450W        W16919  10.441   4.247   1.294 -0.1423 -0.2464  0.2513
 1451W        W16920  13.065  11.203   5.008 -0.2177 -0.2179 -0.0863
 1452W        W16921  11.016   7.804  16.551 -0.1933 -0.3937 -0.0340
 1453W        W16922   0.056   2.229   1.433  0.0719 -0.2608 -0.1036
 1454W        W16923   6.447   6.756  16.544  0.1305  0.0334  0.2857
 1455W        W16924   3.776  15.195  11.831  0.0715 -0.2596  0.0200
 1456W        W16925  10.546  16.883   3.608 -0.2284  0.1755  0.1602
 1457W        W16926   1.159  15.926  11.668 -0.2695  0.0243  0.0382
 1458W        W16927   6.128   8.070  12.290 -0.0038  0.1544  0.2365
 1459W        W16928  14.562  17.380   1.935  0.0417  0.0881  0.3082
 1460W        W16929  13.029  11.485   2.046 -0.1329 -0.0935  0.2479
 1461W        W16930   0.960  13.413  13.601 -0.1694 -0.1695  0.1098
 1462W        W16931   0.969  11.483   1.472 -0.1020 -0.2587  0.0459
 1463W        W16932   9.313   8.175   5.934  0.2526 -0.3501  0.0503
 1464W        W16933  10.699   8.041  11.771  0.0929 -0.4508  0.1128
 1465W        W16934  14.583  14.613  12.772  0.0509 -0.1076 -0.0512
 1466W        W16935  15.033  13.967   0.179 -0.0867 -0.2123 -0.0317
 1467W        W16936   2.437   8.330   2.178 -0.0319  0.3485  0.1572
 1468W        W16937  13.944  11.355  15.794  0.2214  0.0231 -0.0955
 1469W        W16938   2.715  17.993   0.528  0.0657 -0.0812  0.0569
 1470W        W16939  13.809   9.417  13.624 -0.5155 -0.1375  0.1482
 1471W        W16940   9.922  14.222   6.247 -0.0167 -0.0899  0.0531
 1472W        W16941   2.320  17.294  11.428  0.2202 -0.1756 -0.4079
 1473W        W16942   7.566  11.693  16.261  0.2440 -0.1523  0.2443
 1474W        W16943  14.538   9.426  14.995  0.1187 -0.1220 -0.1290
 1475W        W16944  15.261  11.399   0.187  0.0046  0.0300  0.1605
 1476W        W16945   2.954  13.130   1.381 -0.2364  0.2193 -0.0547
 1477W        W16946   2.970  11.285  11.854  0.1371  0.2995  0.1591
 1478W        W16947  16.431   2.944   2.738  0.0428  0.1739  0.0561
 1479W        W16948   0.781  17.388  13.014  0.0954  0.2567  0.2093
 1480W        W16949   7.354   9.713  14.039  0.0481 -0.0077 -0.2276
 1481W        W16950   6.659   1.988   2.091  0.0225  0.0787  0.0033
 1482W        W16951  17.725   6.338   2.330  0.1689 -0.3196  0.0738
 1483W        W16952   2.690   2.858  14.368 -0.1242  0.1030 -0.1116
 1484W        W16953  14.876   5.510  15.658  0.1241  0.0289 -0.1564
 1485W        W16954   7.085   0.691   3.690 -0.0194 -0.1616  0.1685
 1486W        W16955  11.115  17.109   1.713 -0.0220  0.0260 -0.0770
 1487W        W16956   3.915   8.306  12.302 -0.1374  0.0370  0.1036
 1488W        W16957  12.836   7.496  14.523 -0.0562 -0.2327 -0.5019
 1489W        W16958  13.223   4.691  12.210  0.0211  0.1896 -0.3247
 1490W        W16959  16.591   8.110  12.277  0.2299  0.0674  0.0783
 1491W        W16960   4.659  12.746  12.725 -0.0068 -0.0134 -0.1000
 1492W        W16961   4.209   5.483  14.761  0.0753  0.2202 -0.3243
 1493W        W16962  17.895   0.212   0.199 -0.5052  0.1175  0.0026
 1494W        W16963  14.849  12.902   2.307  0.0941  0.1408 -0.0586
 1495W        W16964   7.196   1.180   3.986 -0.3457 -0.1737 -0.1102
 1496W        W16965  12.690  16.077  12.118  0.1819  0.0724  0.2042
 1497W        W16966  14.431  11.468   2.628  0.0153  0.0816  0.2134
 1498W        W16967   2.289   6.234  15.785 -0.0765  0.1439 -0.0176
 1499W        W16968   0.722  14.670  11.412 -0.0776  0.3627 -0.2236
 1500W        W16969   2.663   5.457  13.688  0.0318  0.1652 -0.0328
 1501W        W16970   6.353  10.833  11.752 -0.1359 -0.2464  0.0459
 1502W        W16971   6.927  15.613   4.688  0.0187 -0.0563 -0.0413
 1503W        W16972   7.267  13.085  12.535  0.3273 -0.3668  0.2377
 1504W        W16973  17.572   0.571   0.106 -0.3038 -0.0118  0.0866
 1505W        W16974   4.219  10.195  11.598  0.1257  0.3624 -0.1960
 1506W        W16975   6.215   5.882   2.175  0.0883  0.1083 -0.1125
 1507W        W16976   2.572   4.460   5.663 -0.2815  0.1905  0.0348
 1508W        W16977  11.765  15.458   1.290 -0.1044  0.0707  0.3115
 1509W        W16978   5.015  11.125   0.365  0.2378  0.1374 -0.2926
 1510W        W16979  17.409   7.341  15.010 -0.0790  0.1367 -0.0354
 1511W        W16980   2.477  10.867   4.711  0.2041 -0.0599 -0.1252
 1512W        W16981  17.813   0.819   1.109 -0.0561  0.0356 -0.0794
 1513W        W16982   3.327  16.567   3.086  0.2366 -0.1372  0.4601
 1514W        W16983   3.170  17.483   5.898  0.4093  0.4875 -0.0617
 1515W        W16984   8.522  16.138  14.106 -0.0828 -0.0539  0.1186
 1516W        W16985  10.791  16.556   1.619 -0.2057  0.4137  0.3668
 1517W        W16986   3.975   7.135   2.137 -0.1773 -0.0877 -0.0170
 1518W        W16987   1.701  11.527  12.043 -0.1112  0.3134  0.1804
 1519W        W16988   7.713   2.113   2.151  0.3064 -0.0510 -0.1960
 1520W        W16989  12.660   9.634  11.198 -0.0871 -0.1638 -0.1049
 1521W        W16990  15.026   1.938  11.700  0.0580 -0.0551 -0.0561
 1522W        W16991  10.719  12.448   1.728  0.0798  0.1177 -0.0345
 1523W        W16992  12.227   9.850  15.337 -0.2603 -0.0175  0.1062
 1524W        W16993  16.526  16.659  12.118  0.1336  0.2226  0.1490
 1525W        W16994   2.091   7.680  13.894  0.4539 -0.1699 -0.1858
 1526W        W16995  13.461  17.434   2.218  0.1160  0.1901  0.1015
 1527W        W16996   8.179   8.730  14.731  0.0456 -0.1402  0.0341
 1528W        W16997   1.507  15.531   1.417  0.0844 -0.2460 -0.2143
 1529W        W16998   9.371  17.944  15.901 -0.0379 -0.1652 -0.1334
 1530W        W16999   7.857  14.419   3.486 -0.1060  0.0493  0.0645
 1531W        W17000  14.349   8.299  15.187  0.0051 -0.2140  0.1619
 1532W        W17001   8.435   1.490   3.127 -0.0485  0.0343 -0.0255
 1533W        W17002   2.215   6.991   4.851 -0.2902 -0.0633 -0.1841
 1534W        W17003  12.165   3.092  11.619 -0.0686 -0.2502 -0.0961
 1535W        W17004  14.592  12.492   2.509 -0.4274 -0.2014 -0.0124
 1536W        W17005   0.945  14.360   2.174 -0.1608 -0.1170  0.0297
 1537W        W17006  15.505   3.982   0.285  0.0783  0.0877  0.1621
 1538W        W17007  15.183   2.646  14.333  0.0711  0.2698  0.0472
 1539W        W17008   4.523   1.245   1.310  0.2646 -0.0239 -0.2575
 1540W        W17009  15.319  11.604  12.563 -0.0599  0.3473 -0.0366
 1541W        W17010   3.408   2.621   5.834  0.1353 -0.2032  0.0956
 1542W        W17011   7.598  14.854   3.434 -0.0310 -0.0624  0.1710
 1543W        W17012   5.833  17.865   4.944 -0.1323 -0.0096 -0.0734
 1544W        W17013   4.826  10.669   3.552 -0.0884 -0.2624 -0.2623
 1545W        W17014   2.103  16.780   0.569  0.0554 -0.0504  0.2121
 1546W        W17015  16.408  15.996   4.675  0.1460 -0.4938 -0.0315
 1547W        W17016  12.021   0.213   2.288  0.0610  0.0919  0.1301
 1548W        W17017   7.474  11.793   0.736  0.2127  0.0226  0.1026
 1549W        W17018   5.349  12.792  15.489 -0.2732  0.0966  0.0395
 1550W        W17019   1.662   0.618  14.517  0.1268  0.0894 -0.1195
 1551W        W17020  12.998   0.528  14.403  0.2342 -0.5585  0.0252
 1552W        W17021   9.687  16.411   3.551 -0.2519 -0.0475 -0.0624
 1553W        W17022   6.320  11.801   5.168 -0.2449  0.3007  0.1543
 1554W        W17023   1.041   4.356   4.565 -0.1460  0.4314  0.0063
 1555W        W17024  15.958  15.294   5.549 -0.0252 -0.3732 -0.0134
 1556W        W17025   1.790  14.893   4.654 -0.2362  0.2196  0.0339
 1557W        W17026   6.298   2.126  10.789 -0.2112  0.1748  0.0296
 1558W        W17027   4.109   7.975  11.961  0.1280  0.2774  0.3657
 1559W        W17028  13.065  16.261  15.120 -0.1751 -0.0426  0.4257
 1560W        W17029  16.449   8.126  14.539  0.2971 -0.0076 -0.2067
 1561W        W17030  16.066  11.028  14.201  0.1163  0.1875 -0.3208
 1562W        W17031  15.709  10.337   1.053  0.0664  0.0365  0.1713
 1563W        W17032  15.042   6.417  15.371  0.0695  0.2101 -0.2413
 1564W        W17033  12.328  11.709   1.483  0.1044  0.0081 -0.3062
 1565W        W17034  16.119   1.269   0.710 -0.2488 -0.3306  0.2139
 1566W        W17035  12.132  15.658  16.233 -0.1428  0.0333  0.0249
 1567W        W17036  15.036  17.504   1.728 -0.2160 -0.1541  0.1020
 1568W        W17037   2.167   6.546  16.567 -0.1305 -0.1637  0.1871
 1569W        W17038   4.384   9.997   3.819  0.1300  0.0677 -0.2023
 1570W        W17039  11.210   3.516  13.753  0.0162  0.2384 -0.3352
 1571W        W17040   5.823  10.809   4.577  0.4085  0.3928 -0.0395
 1572W        W17041   7.219   1.715  12.728  0.0607  0.0238  0.0462
 1573W        W17042   3.314   5.956  12.518  0.0719  0.0501 -0.2963
 1574W        W17043  11.797   5.463   3.474  0.1491 -0.2133 -0.1293
 1575W        W17044   5.821   4.808  11.517  0.2377  0.0223  0.0691
 1576W        W17045   9.587  15.263   2.361 -0.2665  0.1652  0.0621
 1577W        W17046   4.816   3.992   3.301  0.2867  0.0187  0.1217
 1578W        W17047   7.152  17.816   4.194 -0.3307  0.1305  0.0530
 1579W        W17048  16.476   5.274   1.649  0.1079  0.0308  0.1209
 1580W        W17049  11.866   7.674  11.143 -0.0378  0.0640 -0.2436
 1581W        W17050   2.120   4.792   9.907 -0.1867  0.1559  0.0534
 1582W        W17051   0.861  16.289   0.579  0.0987 -0.0660  0.1522
 1583W        W17052   6.941   9.534  11.819  0.1449 -0.3027  0.0616
 1584W        W17053   6.651  10.339   3.285  0.0080  0.1775  0.1658
 1585W        W17054   4.285  17.165   3.444  0.1174  0.0114 -0.0345
 1586W        W17055  17.426  11.067  15.855 -0.1387 -0.1817 -0.1460
 1587W        W17056   7.273  11.200   4.248 -0.1029  0.0019 -0.0995
 1588W        W17057  14.305   1.195  15.224  0.2284 -0.0280  0.2018
 1589W        W17058  14.426   5.525  12.142 -0.0539 -0.0459  0.2767
 1590W        W17059  15.098  12.486   5.378  0.2519 -0.0795  0.2145
 1591W        W17060   4.928   3.327  11.759 -0.0050 -0.0926 -0.1699
 1592W        W17061   2.662   8.766  10.657  0.2810  0.1999  0.2607
 1593W        W17062  16.544  17.541  11.673  0.2522  0.1779  0.0541
 1594W        W17063  12.045   7.796   5.183  0.2492 -0.0495 -0.1535
 1595W        W17064  17.695   4.273   1.893  0.1787  0.0296  0.0260
 1596W        W17065   2.690   0.403   1.905 -0.1886 -0.1963  0.4222
 1597W        W17066  14.753   3.779   5.083  0.1626 -0.1957 -0.0193
 1598W        W17067   5.464   5.336  15.408  0.0007  0.0964  0.0575
 1599W        W17068  17.714  17.205   5.344  0.0123 -0.2546 -0.1925
 1600W        W17069   1.476  10.212  13.335  0.0033  0.1273 -0.0995
 1601W        W17070   0.069   4.991  12.520  0.0563 -0.2445 -0.1898
 1602W        W17071  11.279  13.054   5.142 -0.0249 -0.0382 -0.0626
 1603W        W17072  17.905  10.455   0.870 -0.0825 -0.2314  0.1916
 1604W        W17073   9.857  17.010  15.227 -0.0486  0.0291 -0.0005
 1605W        W17074  12.677   5.922   4.680  0.0592  0.1981 -0.1598
 1606W        W17075  12.991  16.757   4.445 -0.0304 -0.1805  0.2415
 1607W        W17076   8.831   4.784  11.894 -0.3917 -0.1677  0.1966
 1608W        W17077  15.425   5.215  15.016  0.1778  0.1701  0.2844
 1609W        W17078  16.387   1.851  13.163 -0.3694  0.0180 -0.2088
 1610W        W17079   2.461  13.488   0.082  0.0021  0.1198 -0.0411
 1611W        W17080  12.044   3.613   3.338  0.1362 -0.0102  0.2816
 1612W        W17081  11.548   2.211   4.149  0.2914  0.0108 -0.0892
 1613W        W17082   9.129  16.875  14.973  0.1709 -0.0672 -0.2397
 1614W        W17083  13.400  12.764   0.076  0.0847 -0.4542 -0.0903
 1615W        W17084  17.423   4.221  12.726 -0.0806  0.0866  0.1077
 1616W        W17085   0.271   7.087  11.663 -0.0306 -0.0073  0.1407
 1617W        W17086   0.639  16.750   0.825  0.3256  0.1172 -0.0771
 1618W        W17087   5.089  15.453   5.417 -0.0016  0.0267  0.0980
 1619W        W17088  17.866   8.702  15.865  0.1794  0.0795 -0.1733
 1620W        W17089   6.138   3.721   4.231  0.0403 -0.1406  0.0671
 1621W        W17090   3.489  12.129   4.922 -0.1666  0.2526  0.1402
 1622W        W17091   0.568   6.361   2.721 -0.1807 -0.1379 -0.1086
 1623W        W17092  10.352   3.100  11.782 -0.3688 -0.1172 -0.1174
 1624W        W17093   9.994   1.462  14.086 -0.0094 -0.2991  0.0736
 1625W        W17094   1.019  10.151   0.771 -0.4376 -0.2662 -0.3788
 1626W        W17095  15.812  14.894   2.425 -0.1437 -0.0784  0.0342
 1627W        W17096   0.684   0.253   5.912  0.1293 -0.4014  0.0844
 1628W        W17097   1.259  17.246  12.046  0.3933 -0.2403 -0.2596
 1629W        W17098  11.656   4.204   4.672  0.3928 -0.0584 -0.0501
 1630W        W17099  17.334   0.205  14.504 -0.2813  0.1446 -0.0504
 1631W        W17100   1.075   8.782   1.270 -0.3710 -0.2842 -0.0631
 1632W        W17101   6.018   8.863   0.675 -0.1242 -0.1147  0.2361
 1633W        W17102  16.051   1.718   1.029 -0.1816 -0.1476  0.2259
 1634W        W17103   9.607   0.842  13.634 -0.2683  0.1014  0.1766
 1635W        W17104   4.679   3.705   0.957 -0.4810 -0.2295 -0.0697
 1636W        W17105   2.453   3.101  13.245  0.1236 -0.1294  0.0313
 1637W        W17106  11.759  17.066   1.532  0.0929  0.0711 -0.1498
 1638W        W17107   6.944   9.987  11.356 -0.0694 -0.0458  0.0437
 1639W        W17108  17.365   9.366  11.012  0.0537 -0.3096 -0.0063
 1640W        W17109  13.052   2.715  15.727 -0.2210  0.2009 -0.1769
 1641W        W17110  11.652  12.191  16.609  0.0627 -0.1560 -0.4380
 1642W        W17111  15.946   6.643   1.479 -0.2357 -0.1517  0.2845
 1643W        W17112   4.013  13.407  15.592  0.3752  0.0682  0.3797
 1644W        W17113   0.707   2.999  12.006 -0.0784 -0.0306 -0.0235
 1645W        W17114   3.545  16.526   0.313 -0.4663 -0.2807 -0.1479
 1646W        W17115  17.064  17.961  14.833  0.1100 -0.0779 -0.2333
 1647W        W17116  13.529   1.934  13.056  0.1670 -0.0405  0.1584
 1648W        W17117  12.218   0.445  13.275  0.0321 -0.1122  0.0636
 1649W        W17118  11.414   7.112   1.006  0.3394 -0.2998  0.0526
 1650W        W17119   9.417  11.780   5.904  0.0381 -0.1982 -0.0053
 1651W        W17120   8.851   0.798   4.211 -0.1436  0.3386 -0.0456
 1652W        W17121   3.610  12.632  11.915 -0.0212  0.2147  0.1267
 1653W        W17122  12.965  10.276  12.358  0.0565  0.0847  0.2637
 1654W        W17123   4.630   4.114  16.366 -0.0469 -0.4873 -0.1365
 1655W        W17124  13.450   0.923   4.558  0.0056 -0.1939  0.0646
 1656W        W17125  12.524   7.637   2.974 -0.1009  0.2068  0.3222
 1657W        W17126   6.463  16.794   4.199 -0.0043 -0.1152  0.1758
 1658W        W17127   2.488  10.979   4.190  0.0533  0.3537  0.2029
 1659W        W17128  17.290  17.268   1.630 -0.1157 -0.1437  0.0567
 1660W        W17129  13.208  10.673   3.516  0.5383  0.0632  0.0414
 1661W        W17130  14.527   6.914  12.357 -0.4438  0.2472 -0.1782
 1662W        W17131   7.522   9.776  15.799 -0.0368 -0.2364  0.0520
 1663W        W17132   5.368   8.164  11.680  0.0550  0.1312  0.1884
 1664W        W17133  13.088   3.736  12.879  0.0198  0.3038 -0.0971
 1665W        W17134  11.430  13.950   2.811  0.2021 -0.1675 -0.1478
 1666W        W17135   2.774   4.646   3.429 -0.2951 -0.2269  0.0343
 1667W        W17136  16.713   4.894   2.304 -0.2032  0.1364  0.3419
 1668W        W17137   0.143   3.826   5.752  0.0565  0.1322  0.1613
 1669W        W17138   5.922   7.380   3.377 -0.0428  0.1123 -0.0878
 1670W        W17139   5.670   0.863  13.634 -0.0010  0.3804 -0.0274
 1671W        W17140   9.705   7.030  14.660  0.1926  0.1623 -0.0650
 1672W        W17141  15.639   9.603   2.756  0.3573 -0.0324 -0.0957
 1673W        W17142   7.451   3.280   3.183  0.0797 -0.1831  0.1784
 1674W        W17143  10.619  15.704   0.196 -0.0208 -0.0958 -0.2196
 1675W        W17144   6.941   5.111   3.888 -0.0748 -0.3122  0.2700
 1676W        W17145  14.474   0.244   0.442 -0.0951  0.1102  0.1067
 1677W        W17146  12.571   7.734  10.661  0.0190 -0.0177  0.1894
 1678W        W17147  18.001   1.301  13.577  0.1342 -0.2689 -0.0295
 1679W        W17148   2.483   4.373   3.129  0.1755 -0.1320  0.0675
 1680W        W17149  14.320  10.138   4.883 -0.2464  0.1851  0.1872
 1681W        W17150  15.172   1.252   5.613  0.3311  0.1279 -0.1657
 1682W        W17151   4.966  17.522  15.939  0.0236 -0.3757  0.0704
 1683W        W17152   2.202  17.784  14.666 -0.1636  0.1280  0.0529
 1684W        W17153   2.571   3.260   1.015  0.2343 -0.3388  0.2252
 1685W        W17154   2.446   9.519   2.044  0.3949 -0.0310 -0.0414
 1686W        W17155   7.812  13.239  14.640 -0.0712  0.2338 -0.0058
 1687W        W17156   6.909  15.166   0.744  0.0272  0.1148 -0.0991
 1688W        W17157  15.330  13.701  13.427  0.1032 -0.0059 -0.0937
 1689W        W17158  16.949  13.624  16.124  0.1019  0.1444  0.0363
 1690W        W17159   6.283  16.655   5.414 -0.3938  0.1146 -0.4570
 1691W        W17160   4.755  16.445  12.905  0.3858 -0.0324 -0.1452
 1692W        W17161   0.919   7.705   2.430  0.0336  0.1303  0.1408
 1693W        W17162  14.157  11.438  11.454  0.2953 -0.0551  0.1800
 1694W        W17163  13.134   6.561   2.273  0.1371 -0.3653  0.1916
 1695W        W17164   5.206   3.749  12.051  0.0335 -0.0610  0.3679
 1696W        W17165  12.475   5.932  10.714  0.2777  0.0702  0.1585
 1697W        W17166  13.540  11.330   0.155  0.0235 -0.2493  0.0330
 1698W        W17167  17.261  16.818   1.001  0.3124 -0.0476  0.0645
 1699W        W17168   0.879   4.795   2.369 -0.1301  0.0596  0.3870
 1700W        W17169  13.664  14.216   4.093 -0.3173  0.0497 -0.0631
 1701W        W17170   2.342   0.150   1.005 -0.0913  0.0969  0.0820
 1702W        W17171   4.426   2.906   5.056 -0.0969  0.0229 -0.1425
 1703W        W17172   4.186  13.257   0.719 -0.1311 -0.0463  0.0813
 1704W        W17173  12.076   5.357   1.092  0.2114  0.1682 -0.0894
 1705W        W17174   4.314   6.438   2.706  0.1323  0.1944  0.0112
 1706W        W17175   8.215  11.977  13.702 -0.3090 -0.3446  0.2182
 1707W        W17176   7.083   7.830   1.184  0.0298 -0.3051 -0.0573
 1708W        W17177  13.269   6.537   4.378 -0.3603  0.0280 -0.0110
 1709W        W17178   9.685   8.516   5.864 -0.2842 -0.0189  0.0847
 1710W        W17179  12.858   7.617  15.430 -0.1446  0.2072 -0.1486
 1711W        W17180  17.415  15.409   6.104 -0.0156 -0.2167  0.0393
 1712W        W17181  17.861   5.791  12.924  0.0252 -0.1801 -0.2192
 1713W        W17182  10.162  17.921   5.505 -0.1468 -0.0185 -0.2683
 1714W        W17183   1.412  10.365   1.311  0.0332 -0.0379  0.0920
 1715W        W17184   8.990   6.094   2.975 -0.1568 -0.1317 -0.1836
 1716W        W17185   8.177  13.353   4.617  0.1789  0.3542 -0.0805
 1717W        W17186   7.562  16.241   2.704 -0.1621  0.1670  0.0552
 1718W        W17187   4.355   7.151  14.828  0.1017  0.1351 -0.1461
 1719W        W17188  10.402   0.234   1.025 -0.0510 -0.1049  0.2188
 1720W        W17189  10.186   4.981  15.400 -0.0811  0.0633  0.0743
 1721W        W17190   2.875   1.275  11.669  0.0131 -0.4027 -0.1835
 1722W        W17191   5.987  12.497  14.858  0.3912  0.3172 -0.0708
 1723W        W17192   1.205   8.564  11.007  0.2535  0.0302 -0.0320
 1724W        W17193   6.985   9.080   4.582 -0.1218  0.0205 -0.2326
 1725W        W17194  13.900   8.337  16.217  0.1197 -0.3083  0.2255
 1726W        W17195  14.073  17.162   1.252  0.1797  0.0893  0.0714
 1727W        W17196  10.830   5.733  11.542  0.0156 -0.2124 -0.0279
 1728W        W17197   0.054  11.046  11.912  0.3085 -0.0961  0.0892
 1729W        W17198   4.244  10.899   2.864 -0.1036 -0.1125 -0.1986
 1730W        W17199  10.613   3.201  14.437  0.2418  0.3433  0.2869
 1731W        W17200   6.433   8.025   1.759 -0.1709  0.0702  0.1009
 1732W        W17201  15.859   3.650   4.206  0.3093  0.1949 -0.2626
 1733W        W17202  11.253   9.071   4.403  0.0397 -0.1401 -0.0832
 1734W        W17203   8.576  17.295  16.614  0.0127  0.1074  0.0879
 1735W        W17204   6.973  15.445  15.423  0.0251  0.0228 -0.2436
 1736W        W17205  17.160  12.562   5.430 -0.3930 -0.1705  0.1420
 1737W        W17206  17.784   8.791   2.998 -0.0271 -0.1076 -0.1877
 1738W        W17207   6.346   7.532   3.079  0.0252  0.3371  0.0756
 1739W        W17208  12.866   3.960   4.209  0.0011 -0.0270  0.1207
 1740W        W17209   4.840   3.609  10.354 -0.1451  0.0977  0.1483
 1741W        W17210   4.282  15.551  16.153  0.3575  0.3098  0.1824
 1742W        W17211   5.897  12.162  14.109 -0.1002  0.0022  0.1745
 1743W        W17212  15.240   9.733   1.550 -0.1777  0.1155 -0.1285
 1744W        W17213   2.011   5.989   5.239 -0.5241 -0.0730 -0.5275
 1745W        W17214  17.903   0.067  14.933  0.2031  0.1497  0.0328
 1746W        W17215   8.846  16.439  11.713  0.0179 -0.0570 -0.1484
 1747W        W17216  12.446   7.499   4.982 -0.2456  0.3058  0.1467
 1748W        W17217   4.631   9.271  16.178  0.1248  0.1159  0.0322
 1749W        W17218  11.228   9.055  12.067  0.0555  0.1698 -0.3442
 1750W        W17219  12.671   3.796  14.373  0.1931 -0.0787  0.1134
 1751W        W17220  14.437   9.531   3.803 -0.0772 -0.0580  0.2253
 1752W        W17221  13.176   5.998   2.029  0.0597 -0.2097 -0.0084
 1753W        W17222  14.200  13.801  12.185 -0.1104  0.1014  0.0110
 1754W        W17223  17.481   1.717   2.625 -0.0466  0.0534  0.0168
 1755W        W17224   4.255   1.622  11.329 -0.2499  0.1968  0.0789
 1756W        W17225  15.193   3.699  11.636  0.1204  0.0143 -0.0826
 1757W        W17226  14.937  16.870   0.907  0.1530 -0.1740  0.0532
 1758W        W17227   6.917   6.880  10.979  0.1523 -0.1253 -0.0208
 1759W        W17228  14.639   0.862  15.439  0.0079  0.1881  0.1230
 1760W        W17229  14.012   6.938   4.823  0.0956 -0.0781 -0.1480
 1761W        W17230   8.608  17.281  11.466  0.0512  0.1055  0.0053
 1762W        W17231   6.542   3.140   5.036  0.0664 -0.1463  0.0783
 1763W        W17232  15.341   6.323   2.042 -0.2104  0.0151  0.0392
 1764W        W17233   5.389   3.799  16.543 -0.0809  0.4228  0.3965
 1765W        W17234   0.280   8.395  16.041 -0.0477  0.1036 -0.1349
 1766W        W17235   2.002   2.927   1.837  0.0516 -0.2447 -0.0386
 1767W        W17236   2.691   4.855   1.957  0.3346 -0.0305 -0.0997
 1768W        W17237  12.316  10.940   2.085  0.0211 -0.0865  0.0374
 1769W        W17238   7.097  16.443  14.255  0.0527 -0.3775  0.2707
 1770W        W17239   2.275  14.259  15.270 -0.0148 -0.2473  0.1640
 1771W        W17240   9.840   2.969  13.127  0.1979  0.1421  0.1035
 1772W        W17241   6.379  13.833   1.656 -0.1032 -0.1994 -0.2062
 1773W        W17242   8.992   2.783   1.395 -0.1494 -0.0409 -0.0665
 1774W        W17243   0.515  16.175  14.325  0.0338 -0.1877  0.0810
 1775W        W17244   2.275  12.617  14.413  0.0668  0.1866 -0.0952
 1776W        W17245   6.066  11.110  12.744  0.0409 -0.0232 -0.1274
 1777W        W17246   3.406  13.498   2.840 -0.2776 -0.3518  0.1821
 1778W        W17247   4.340   4.589   3.555  0.0247 -0.0040  0.0573
 1779W        W17248   6.365  10.258  10.100  0.0769 -0.2563  0.0259
 1780W        W17249  11.275  16.637   0.417 -0.0107 -0.1029  0.0927
 1781W        W17250   5.105  15.025   3.186  0.1287  0.1383 -0.0278
 1782W        W17251   0.472   8.864   4.809  0.0224  0.0563 -0.1981
 1783W        W17252   5.932   9.499   4.720  0.1968 -0.0734 -0.4467
 1784W        W17253   5.407   6.229   6.259 -0.1324 -0.0059  0.4521
 1785W        W17254  14.024   5.658   4.912  0.1620  0.0789 -0.0463
 1786W        W17255  11.509  14.133   1.004  0.1331 -0.0329 -0.0190
 1787W        W17256   0.473   2.266   4.065 -0.0386 -0.1205 -0.2305
 1788W        W17257   5.170  14.377   6.184  0.0620  0.0849 -0.0607
 1789W        W17258   9.500  16.877  11.967  0.0781 -0.1631 -0.0439
 1790W        W17259  17.001   3.625   3.332  0.0866  0.1026  0.4349
 1791W        W17260   0.766  11.660   1.921  0.0278 -0.1611 -0.2659
 1792W        W17261   8.114   4.007   3.946  0.3619 -0.0129 -0.3066
 1793W        W17262   9.043  12.689   3.964 -0.1018 -0.0057  0.3005
 1794W        W17263   8.701  13.052   3.936 -0.2970  0.1760  0.1366
 1795W        W17264   6.393   5.649  10.719 -0.2840  0.2348 -0.3657
 1796W        W17265  14.393   2.324  13.786  0.0267  0.2108 -0.1558
 1797W        W17266  17.182   7.939  14.165  0.1865 -0.1199  0.0375
 1798W        W17267   8.076   4.088   1.126 -0.0805  0.0280 -0.3500
 1799W        W17268  10.509   8.784  15.829 -0.0094 -0.0037  0.2467
 1800W        W17269  16.747   2.267  13.811  0.1747 -0.2026 -0.0668
 1801W        W17270  17.606   2.824  12.918  0.3303 -0.0497  0.0623
 1802W        W17271   1.791  17.665   3.726  0.1071  0.0322 -0.2195
 1803W        W17272  17.262  16.991  15.754 -0.1016 -0.2920 -0.2733
 1804W        W17273   8.705  10.186   1.828 -0.0826 -0.2485  0.2910
 1805W        W17274   0.501   5.664  14.006  0.0421 -0.3823 -0.2640
 1806W        W17275  11.182   8.372   5.551  0.0362 -0.1467 -0.0045
 1807W        W17276  12.901   5.458   1.458  0.1582 -0.4879  0.0471
 1808W        W17277  10.533   6.711  11.670  0.1254  0.0398 -0.0866
 1809W        W17278  16.393  14.145  14.286  0.2000 -0.0529  0.0258
 1810W        W17279   5.429  15.949  13.549  0.0719 -0.1427  0.1100
 1811W        W17280   1.874   8.739  12.868  0.1889 -0.2629  0.3538
 1812W        W17281   3.468  16.070   3.222  0.1113 -0.0448  0.2224
 1813W        W17282  10.982   6.220  14.791 -0.0777 -0.2225 -0.1880
 1814W        W17283  13.641   5.055   3.902 -0.0240  0.0306 -0.0988
 1815W        W17284  17.572   0.138  16.458  0.1559  0.3136  0.1809
 1816W        W17285  17.134  16.295  13.574 -0.3908 -0.0654  0.0086
 1817W        W17286   7.275   5.769  11.739  0.4332 -0.0674  0.0247
 1818W        W17287   5.456  14.520  14.132  0.0302  0.4577  0.3226
 1819W        W17288   3.119  17.551  15.061 -0.0641 -0.0026  0.2694
 1820W        W17289  13.450   3.519  11.384 -0.2607  0.4186  0.1276
 1821W        W17290   0.378   8.888   2.097 -0.2627  0.0437  0.1096
 1822W        W17291  13.908   7.755   3.308 -0.0457 -0.3553 -0.1707
 1823W        W17292  16.861  14.912   1.268 -0.0632  0.3435  0.2063
 1824W        W17293   9.881   3.784  13.409 -0.1006  0.1080 -0.2621
 1825W        W17294   5.298  11.585  13.407 -0.1285  0.2130  0.2810
 1826W        W17295  15.147  14.180  15.225  0.1572 -0.0074 -0.0948
 1827W        W17296  17.012   8.269  16.063  0.0626  0.0087  0.1226
 1828W        W17297   7.604  10.493   5.773  0.1932 -0.0382 -0.0851
 1829W        W17298   5.177  14.450   1.749 -0.1083  0.1035 -0.0424
 1830W        W17299  12.349   0.732  15.278 -0.2787  0.1277  0.1592
 1831W        W17300  14.397   8.126   3.303  0.0846  0.1242  0.1541
 1832W        W17301  12.158  12.960  13.487 -0.0410  0.0720  0.1131
 1833W        W17302  14.798   3.370   2.547 -0.3370  0.2404  0.0111
 1834W        W17303  17.603  11.881   1.857 -0.2050 -0.0154  0.3106
 1835W        W17304  13.744  11.432   4.761 -0.1306  0.2126 -0.0165
 1836W        W17305   7.454   5.222   0.049  0.2176 -0.0718 -0.0233
 1837W        W17306  11.685   6.385   4.012 -0.1018 -0.0123 -0.3045
 1838W        W17307   5.150   6.552   5.316 -0.0126 -0.2332  0.0969
 1839W        W17308  14.547   3.289   0.035 -0.0439 -0.1602  0.1605
 1840W        W17309  16.358  10.974   2.575  0.1755  0.1444  0.0256
 1841W        W17310   8.628  16.806   2.856  0.0560 -0.2958 -0.1193
 1842W        W17311  12.564   0.052   3.828 -0.0486 -0.1138  0.0438
 1843W        W17312  15.549  17.175   4.407  0.1543 -0.0495 -0.3435
 1844W        W17313   5.163   1.881  13.285 -0.0710  0.1766 -0.1141
 1845W        W17314  14.268   7.121  11.213  0.1960 -0.0769 -0.0793
 1846W        W17315  13.079  11.112   1.485  0.1853  0.1371  0.2696
 1847W        W17316  14.223  15.562   1.820 -0.3271 -0.1037 -0.4237
 1848W        W17317  15.115   6.781  14.599  0.0084 -0.2121  0.0605
 1849W        W17318  13.453   7.371   1.217 -0.0073  0.1526  0.1687
 1850W        W17319  15.298   1.265  16.110  0.1069  0.0057 -0.1215
 1851W        W17320  15.512   0.014   0.589 -0.0036  0.0852 -0.2038
 1852W        W17321  14.233  10.603   5.164  0.0286 -0.1194  0.2821
 1853W        W17322   3.583  10.198  14.042 -0.0419  0.1311 -0.1029
 1854W        W17323   8.064  10.429  12.526 -0.0429  0.0482 -0.1513
 1855W        W17324  15.166   8.315   1.858  0.1071  0.5329 -0.0486
 1856W        W17325   1.087   7.399   3.213  0.2333 -0.1273  0.0772
 1857W        W17326   4.663  14.188   0.284 -0.2409  0.1571 -0.1677
 1858W        W17327   8.480   9.993   4.630  0.1165 -0.2820  0.2256
 1859W        W17328  10.326   2.661   0.198 -0.2066 -0.3485  0.1354
 1860W        W17329  14.595  16.957  15.984 -0.0569 -0.1488 -0.2112
 1861W        W17330  16.041   2.277   5.924  0.0084  0.0824 -0.1805
 1862W        W17331  12.915  13.980   3.773  0.0216  0.0338  0.0658
 1863W        W17332   7.379  15.491  12.205  0.0463 -0.0129 -0.0703
 1864W        W17333  13.423   7.212   2.835 -0.2094  0.0451 -0.0005
 1865W        W17334   4.548  11.525   0.946  0.2935  0.0169 -0.0106
 1866W        W17335  16.122  13.181  12.877 -0.1582  0.0537 -0.2213
 1867W        W17336   4.929  15.484   0.751 -0.0920 -0.1730 -0.0873
 1868W        W17337   7.856   3.425  12.731  0.0614  0.1378  0.1469
 1869W        W17338   7.642   2.515   1.457  0.2129 -0.2900  0.1133
 1870W        W17339   3.444   7.178  15.563  0.0034  0.1245  0.0554
 1871W        W17340   9.956   5.547  13.137  0.3101  0.0522 -0.0257
 1872W        W17341  11.580   7.551  16.536 -0.2841  0.2214  0.0876
 1873W        W17342  13.704  16.107   1.424 -0.0531  0.3583 -0.0105
 1874W        W17343   6.998  14.501   4.811 -0.2335 -0.1618 -0.0737
 1875W        W17344   7.262  10.927  14.448 -0.3214 -0.0208 -0.0788
 1876W        W17345  16.726   5.484   5.271  0.1580  0.0823  0.0085
 1877W        W17346  15.599  17.183  12.999  0.0578  0.0349  0.0149
 1878W        W17347   0.959  14.731   3.930 -0.0167  0.0105  0.1638
 1879W        W17348   9.787   4.106   4.732 -0.1573  0.0286 -0.0952
 1880W        W17349   6.781  14.573   3.417  0.1479 -0.1889  0.6371
 1881W        W17350  13.645   9.203  16.514 -0.2603  0.1460 -0.0319
 1882W        W17351  15.249   1.591   5.233 -0.1102  0.0308 -0.2384
 1883W        W17352   7.184   1.190   0.844  0.1777  0.1527 -0.1109
 1884W        W17353   8.744   0.531  16.140 -0.1468 -0.1567  0.0663
 1885W        W17354  15.902   6.285  12.125 -0.1485 -0.0810  0.0419
 1886W        W17355   2.622   4.424   4.246  0.2316  0.3248  0.3836
 1887W        W17356  15.828   5.074   2.355 -0.2274  0.0971 -0.2862
 1888W        W17357   1.054   6.432  12.748  0.0934  0.0532 -0.0264
 1889W        W17358   7.410  10.940  12.684 -0.3133 -0.0672 -0.0715
 1890W        W17359   8.747  11.197   4.494  0.2282 -0.1525 -0.2778
 1891W        W17360   1.176   9.182  11.808 -0.1138  0.2590 -0.0353
 1892W        W17361   1.567   5.839   2.113  0.0349  0.1245 -0.2708
 1893W        W17362   3.459   9.044  11.112 -0.1753 -0.0303  0.1114
 1894W        W17363  11.408  10.406   5.294  0.2685 -0.0189  0.0363
 1895W        W17364  17.129  10.152  14.784  0.0467 -0.1118 -0.0127
 1896W        W17365  10.683  14.779   2.479 -0.2631  0.0255  0.0229
 1897W        W17366   1.515   1.354  13.724  0.2721 -0.2173  0.0251
 1898W        W17367   2.269   7.385   4.046  0.0730 -0.0253 -0.0452
 1899W        W17368  12.738  12.203  15.524 -0.1048  0.1254 -0.0906
 1900W        W17369  11.538  15.211  11.568  0.2364 -0.0611 -0.0387
 1901W        W17370   7.660   5.841   4.025 -0.2951  0.0017  0.1990
 1902W        W17371   1.965  10.619  15.753  0.0797  0.2893  0.0060
 1903W        W17372  10.553   8.017   0.283 -0.0227 -0.0348  0.0598
 1904W        W17373  10.609  15.862  12.283  0.4527 -0.2039  0.1014
 1905W        W17374   7.540   7.227  14.043 -0.0942 -0.1210  0.0586
 1906W        W17375  15.997  17.067   4.561 -0.2293  0.3047 -0.1699
 1907W        W17376  13.026   1.792   3.113  0.0432 -0.1401 -0.2068
 1908W        W17377   4.765  15.835   5.265  0.0108 -0.1037  0.2931
 1909W        W17378   2.181  16.200   6.915 -0.0931  0.1351  0.3411
 1910W        W17379   1.406  14.490   3.920 -0.0804 -0.3109 -0.0337
 1911W        W17380   8.713  13.054  11.614 -0.1611 -0.0080  0.2169
 1912W        W17381   9.672  10.052  12.333  0.1787 -0.5101 -0.3059
 1913W        W17382  16.585  14.074  15.419 -0.0242 -0.2236 -0.0203
 1914W        W17383  14.116  13.539   1.329 -0.0984 -0.1031 -0.1008
 1915W        W17384   3.912   3.563  12.558 -0.0540  0.1462  0.0685
 1916W        W17385   5.598   3.326   2.434 -0.2584  0.3395 -0.1048
 1917W        W17386   1.544   5.793  15.146  0.0127 -0.0787  0.3659
 1918W        W17387   2.220  11.771  15.124  0.3028 -0.1384  0.1789
 1919W        W17388   5.262   5.260   0.075 -0.0365  0.0596 -0.1130
 1920W        W17389   1.882  16.082   4.764 -0.1943 -0.2818 -0.2143
 1921W        W17390   9.220   1.923  14.245 -0.0980 -0.0238  0.0714
 1922W        W17391  17.741  14.936   5.886  0.1945  0.1064  0.1069
 1923W        W17392   7.123  12.432   4.559 -0.1905 -0.0247 -0.1093
 1924W        W17393   2.632   8.521   5.272  0.0291  0.1150  0.2053
 1925W        W17394  15.231  10.557  15.951 -0.2516  0.1187 -0.0320
 1926W        W17395   1.367   2.946   0.608  0.2902 -0.1127  0.0937
 1927W        W17396  11.819   6.773   2.618  0.1152 -0.0142 -0.0717
 1928W        W17397   9.613  13.980   2.883  0.0290 -0.0661  0.0276
 1929W        W17398  16.269   7.564   5.149 -0.2026  0.0738 -0.1923
 1930W        W17399  10.714   8.669   5.467 -0.2499  0.0288  0.0310
 1931W        W17400  14.948   1.921   1.571 -0.2555  0.1707  0.0804
 1932W        W17401  11.487   2.417   5.748  0.0706  0.1475  0.1054
 1933W        W17402   4.672  14.171  16.398  0.1670 -0.1561 -0.0337
 1934W        W17403   5.192  10.737   5.163  0.1188  0.1717  0.0814
 1935W        W17404   1.432  10.765   0.665  0.3333  0.2198 -0.0544
 1936W        W17405  10.105   4.734  11.106  0.1324  0.2223 -0.3133
 1937W        W17406   2.958   7.443  12.817 -0.0494  0.1078 -0.0332
 1938W        W17407   7.192  16.566   3.500  0.1871  0.4407 -0.0658
 1939W        W17408  14.977   4.113   0.335  0.2482 -0.2443 -0.0753
 1940W        W17409   8.359   4.821  11.655  0.5413  0.1178 -0.2217
 1941W        W17410   8.382   7.191   0.850  0.0126 -0.0467  0.4004
 1942W        W17411  11.282  11.165  14.627  0.0221 -0.3081  0.1115
 1943W        W17412   5.087  13.271   1.702 -0.0601  0.1941 -0.0141
 1944W        W17413   5.831  12.263   1.487 -0.1839 -0.1716  0.1018
 1945W        W17414  13.444   7.819  15.217  0.0538 -0.2488 -0.1604
 1946W        W17415   8.005   9.735   2.260 -0.0283 -0.4060 -0.0490
 1947W        W17416   9.257  12.511  12.472  0.1391 -0.2096  0.0016
 1948W        W17417  10.079  15.886   5.176  0.0683  0.1701 -0.0241
 1949W        W17418   9.573   2.479   2.069  0.0845 -0.0293  0.0446
 1950W        W17419  15.985   0.149   3.473  0.1932  0.2466 -0.1497
 1951W        W17420  11.875   2.181  15.512 -0.0776 -0.0802  0.0460
 1952W        W17421   5.431   0.107   5.051 -0.0621  0.1172 -0.0210
 1953W        W17422   9.757  12.152  11.234  0.2287  0.2479  0.2811
 1954W        W17423   9.367   9.822   5.866 -0.2272 -0.4066 -0.0345
 1955W        W17424  16.270  10.786  15.106  0.0323 -0.1916 -0.0905
 1956W        W17425  14.343   6.956  15.523 -0.1620  0.0216 -0.3861
 1957W        W17426   3.203   2.899   3.165 -0.0774 -0.1948  0.0710
 1958W        W17427   9.433  14.311   2.445 -0.0476 -0.3749  0.0145
 1959W        W17428   4.343   7.005   2.605 -0.0889 -0.1767 -0.3964
 1960W        W17429   9.995  11.097   3.697 -0.0350  0.0533 -0.2409
 1961W        W17430  10.011  12.461  11.522 -0.0337 -0.0888 -0.2128
 1962W        W17431   1.982   9.361  14.140 -0.0764  0.2575  0.1955
 1963W        W17432   2.469   2.685   5.387  0.1494  0.0875  0.2705
 1964W        W17433  15.605   8.823   2.825 -0.0901  0.0672 -0.0564
 1965W        W17434  14.835   8.464   1.248  0.0001  0.0681 -0.1089
 1966W        W17435   3.504   2.627  14.769 -0.0998  0.1681 -0.1460
 1967W        W17436   4.385  14.063   3.642 -0.1240  0.0506  0.0772
 1968W        W17437   8.974   7.679  11.887 -0.1288  0.0978 -0.0965
 1969W        W17438   4.632   1.435   5.901  0.0696 -0.0812 -0.2119
 1970W        W17439  11.686  17.408   5.409 -0.1391  0.1986  0.0784
 1971W        W17440   4.470   0.053  15.448  0.1307  0.2175  0.0523
 1972W        W17441  17.695  13.760   6.208 -0.2631 -0.1893  0.0636
 1973W        W17442   6.116  10.735  15.909  0.1286 -0.2026  0.1417
 1974W        W17443   5.790  17.508   4.270  0.0818  0.2637 -0.0429
 1975W        W17444   3.161   4.149  16.064 -0.4234 -0.0865 -0.1298
 1976W        W17445   4.917   0.323  15.426  0.0329  0.0273  0.2376
 1977W        W17446   8.435   1.040  12.097  0.3717  0.0706 -0.5359
 1978W        W17447  12.454  10.834   4.523  0.2639 -0.3395  0.3228
 1979W        W17448  12.884  14.697   0.062 -0.0377 -0.2029  0.2371
 1980W        W17449  17.043  16.072   1.734 -0.1954 -0.0358 -0.0221
 1981W        W17450   5.147   5.661  15.604  0.0729  0.1539  0.4425
 1982W        W17451  10.986   9.181   6.151  0.0462 -0.0430 -0.3840
 1983W        W17452  16.404  17.896   3.484  0.0004  0.4004 -0.1090
 1984W        W17453  10.222   3.593  12.652 -0.1477  0.1559 -0.1005
 1985W        W17454  13.117   0.560  12.316 -0.1955 -0.2682  0.1983
 1986W        W17455   2.043   2.391   3.610 -0.0632 -0.2274 -0.0039
 1987W        W17456   0.471   6.745  13.393 -0.1245  0.1548  0.2220
 1988W        W17457  11.740   7.193   3.971 -0.2181 -0.0325 -0.3667
 1989W        W17458  13.974   7.826  12.401  0.0318  0.2057  0.1370
 1990W        W17459  16.034  14.470  14.031 -0.3581  0.0176 -0.0580
 1991W        W17460   3.188  13.649  14.720  0.5250  0.0025  0.1416
 1992W        W17461  12.937  17.974  13.397 -0.0135  0.2564  0.1295
 1993W        W17462   9.604  16.499   2.735 -0.1375 -0.1948 -0.3813
 1994W        W17463   5.110  14.887  15.230 -0.0828 -0.1679 -0.2688
 1995W        W17464   7.283  11.175  13.412  0.1584  0.1862  0.3637
 1996W        W17465   3.653  11.613   5.638  0.0319 -0.0464  0.1060
 1997W        W17466   0.299   5.673   5.847  0.0145 -0.1152  0.1600
 1998W        W17467   1.281   1.514  14.665  0.0631 -0.0207 -0.2912
 1999W        W17468   8.253   4.299   1.577  0.3001 -0.0554  0.2458
 2000W        W17469  16.561   5.817  11.759  0.1140  0.3880  0.1989
 2001W        W17470   3.636  17.499  15.128  0.2852 -0.2379  0.0153
 2002W        W17471  10.489  11.576   5.359 -0.2168 -0.1571 -0.2219
 2003W        W17472  17.742  17.394  15.012  0.1801  0.5102  0.1261
 2004W        W17473   8.450   1.409  12.684  0.5011 -0.0689 -0.0735
 2005W        W17474  12.577   1.351   0.308 -0.0675  0.1361 -0.0399
 2006W        W17475  15.060  13.381  16.142  0.3921 -0.1957  0.1660
 2007W        W17476   4.706   3.191   5.501  0.0572  0.2364  0.2541
 2008W        W17477   5.447  11.994   2.712  0.1692  0.0098 -0.1330
 2009W        W17478  13.539  16.063   3.716  0.2219 -0.0569 -0.0202
 2010W        W17479  11.842  11.747   5.595  0.0658 -0.1151 -0.2524
 2011W        W17480   4.344  16.130  16.242 -0.0657  0.0417  0.1629
 2012W        W17481  17.160   4.486  16.526 -0.1903 -0.2042  0.0586
 2013W        W17482  13.797  16.772   0.314  0.5503  0.3235 -0.1661
 2014W        W17483   2.359   9.281  12.946 -0.2164 -0.0098  0.0064
 2015W        W17484   6.170  10.097   1.174  0.0367 -0.2011 -0.2015
 2016W        W17485   4.242  10.197  13.407  0.1320  0.3338 -0.0646
 2017W        W17486   3.722   5.715   1.016  0.2194  0.1788  0.2234
 2018W        W17487  16.984   7.438  15.281  0.0811 -0.2394  0.0400
 2019W        W17488   5.289   9.904   2.064  0.2489 -0.2942 -0.2521
 2020W        W17489   3.625   2.911  16.179  0.1781 -0.0178  0.1316
 2021W        W17490   6.026   6.555  12.893 -0.0186 -0.2135 -0.0798
 2022W        W17491  14.484  13.150   6.011 -0.0232 -0.0663  0.2202
 2023W        W17492  13.097   1.781   5.110  0.0087  0.2309  0.0514
 2024W        W17493  15.841  11.851  13.747 -0.0328 -0.1672  0.1078
 2025W        W17494   2.842  10.060  16.041 -0.2733 -0.0196  0.1490
 2026W        W17495   2.537  14.900   0.061 -0.2511  0.0721 -0.2720
 2027W        W17496   9.262  14.770   2.863 -0.1358  0.0357 -0.0087
 2028W        W17497  10.408   8.320  16.042 -0.0384  0.0358 -0.0166
 2029W        W17498   7.220  16.746  13.462 -0.0474  0.3808 -0.0407
 2030W        W17499  11.372   1.438  10.627 -0.2167 -0.0543 -0.1392
 2031W        W17500  14.543   7.755  16.401  0.2132  0.1844  0.1871
 2032W        W17501   8.036   4.701   5.021 -0.0125 -0.0182 -0.0883
 2033W        W17502   9.956   8.204  15.783 -0.0835  0.3772 -0.1063
 2034W        W17503   9.310  10.441  16.595  0.0184 -0.2454 -0.1863
 2035W        W17504   2.541  16.624  15.430  0.1457  0.0585 -0.0988
 2036W        W17505  15.928   0.404   2.347 -0.0242  0.0392 -0.1233
 2037W        W17506  12.434   0.037   3.300  0.4090  0.2321 -0.3643
 2038W        W17507  12.476   4.835  11.554  0.0988  0.0888 -0.1239
 2039W        W17508   4.541   4.204   5.360 -0.2982 -0.0647 -0.1630
 2040W        W17509   4.429  10.386   4.911  0.3388  0.0474  0.3400
 2041W        W17510  11.632   3.043  11.831 -0.1510 -0.1655  0.0630
 2042W        W17511   5.196  13.096  11.482 -0.1536  0.0490  0.2772
 2043W        W17512   5.841   3.643   0.839 -0.1396  0.0900  0.1801
 2044W        W17513   7.653   1.714  13.112 -0.1356 -0.0659 -0.1557
 2045W        W17514  16.128   1.598   2.758  0.0610  0.2287  0.0372
 2046W        W17515   7.583   6.825   3.201  0.1398  0.0227  0.1032
 2047W        W17516   2.777  16.931  16.416  0.0511 -0.2819 -0.1622
 2048W        W17517  17.371   9.118   3.419  0.0518 -0.3444  0.0784
 2049W        W17518  13.392  10.701  13.785  0.0882  0.1837 -0.1648
 2050W        W17519   7.062   2.484  13.331  0.1130 -0.3178  0.2749
 2051W        W17520   1.560   9.930  12.794  0.0163 -0.5109  0.1489
 2052W        W17521   7.349   6.546   3.499  0.1454 -0.2970 -0.1911
 2053W        W17522   6.662   2.754   1.602  0.2014 -0.3494  0.0136
 2054W        W17523  16.620  14.583   4.337  0.0294  0.0958 -0.4349
 2055W        W17524  15.874  14.431  12.402  0.3607 -0.3034 -0.1308
 2056W        W17525   3.126   1.526  13.788  0.0769 -0.0657  0.2363
 2057W        W17526   8.313  11.496  13.958 -0.1372  0.1917  0.0266
 2058W        W17527  10.936   6.519   2.039  0.2840  0.4207 -0.1400
 2059W        W17528  15.210   0.793  12.875 -0.0850  0.0554  0.4497
 2060W        W17529  11.842  11.684   1.626  0.2613  0.0554  0.2678
 2061W        W17530   6.127   7.438   5.360  0.1353  0.3110  0.2311
 2062W        W17531   5.070   5.008   1.088  0.0239 -0.1806 -0.1436
 2063W        W17532  10.809   0.833  14.417  0.1724 -0.3168 -0.0903
 2064W        W17533   4.012  11.302  12.159  0.0050 -0.1244  0.1925
 2065W        W17534   3.340  10.868   0.611  0.0378 -0.4019  0.0799
 2066W        W17535  15.285   0.107   5.390  0.0945  0.0012 -0.0144
 2067W        W17536  11.458   6.610  14.558 -0.0972 -0.1335 -0.0745
 2068W        W17537  15.659   0.797  12.602  0.2082 -0.1540 -0.0056
 2069W        W17538  12.540   4.751   2.303 -0.1658  0.2636 -0.3334
 2070W        W17539  14.303   5.996   4.136  0.1652 -0.1422 -0.1209
 2071W        W17540  16.211   4.954  11.629 -0.1346  0.0849  0.0046
 2072W        W17541  15.355  13.223  11.761  0.0243 -0.0492  0.2430
 2073W        W17542   1.207   3.627  16.005 -0.0131 -0.1089  0.2100
 2074W        W17543   6.760   4.755  15.878  0.1775 -0.4060 -0.0075
 2075W        W17544   4.728   6.857  15.029 -0.1601 -0.1837 -0.2011
 2076W        W17545   3.380  12.640  15.612  0.1525  0.0175  0.1989
 2077W        W17546  12.717   6.530  12.170  0.1020  0.2803  0.0193
 2078W        W17547  14.238  12.064  13.326  0.2272 -0.1693  0.1573
 2079W        W17548   4.979   3.067  12.147 -0.0078  0.2475 -0.0014
 2080W        W17549   3.769   0.106  15.152 -0.1320 -0.1039 -0.1538
 2081W        W17550   5.380   6.803   4.440  0.1093  0.1064 -0.1725
 2082W        W17551   6.345   4.038  14.215 -0.1281 -0.1368 -0.0505
 2083W        W17552  12.569   8.000  13.710  0.1330 -0.1673 -0.1562
 2084W        W17553  16.222   3.273   3.520  0.1196 -0.1062  0.0047
 2085W        W17554   2.339  10.422   2.881  0.1128  0.2991  0.3272
 2086W        W17555   1.551  12.316  15.052 -0.0605 -0.5465  0.0484
 2087W        W17556   7.816  10.482   1.166  0.0530  0.3216 -0.2775
 2088W        W17557   9.408   7.300   0.075 -0.0704 -0.0393  0.0683
 2089W        W17558   0.285   5.725  15.379 -0.0723  0.1059 -0.1194
 2090W        W17559   1.345  10.057  16.566 -0.0812  0.3093 -0.2455
 2091W        W17560  13.000  17.087  14.524 -0.1393 -0.0604 -0.0698
 2092W        W17561  11.923   0.119  13.501  0.0712  0.1087 -0.1033
 2093W        W17562   9.787  15.536  11.776 -0.3175 -0.1454 -0.0825
 2094W        W17563  16.054   2.732   2.141 -0.0063 -0.0588  0.0894
 2095W        W17564  17.026  13.269  16.483 -0.0657  0.1295  0.2244
 2096W        W17565   5.427  13.622   0.236  0.2250  0.2012  0.0071
 2097W        W17566   4.776  14.075  15.580  0.0415  0.2685 -0.2180
 2098W        W17567   0.296  13.301   5.827 -0.2325  0.2426 -0.1286
 2099W        W17568   1.232   1.796   0.113  0.1565  0.1125  0.0645
 2100W        W17569  11.423  16.134   0.554  0.1953  0.1590  0.2100
 2101W        W17570  11.660   5.050  14.309 -0.1031 -0.0505 -0.0182
 2102W        W17571  14.696   1.482  12.570 -0.2238  0.1471 -0.0696
 2103W        W17572  10.703  10.297  14.127  0.0059 -0.1440  0.1004
 2104W        W17573   3.839  13.012  10.977  0.0878  0.2857  0.1589
 2105W        W17574   4.780   7.920  14.634 -0.1449  0.3442  0.0086
 2106W        W17575   3.341  14.099  13.073 -0.0588  0.3148  0.1943
 2107W        W17576   4.525   9.898   4.277 -0.2866 -0.3291 -0.3685
 2108W        W17577   9.029   3.929   4.023  0.1303  0.1378 -0.3474
 2109W        W17578  16.074  15.140   1.987  0.1642  0.1549  0.1757
 2110W        W17579   1.554   1.518   4.661 -0.1182 -0.0302 -0.0200
 2111W        W17580   2.213   8.257  11.225 -0.1683 -0.1408  0.0089
 2112W        W17581   1.145  14.212   6.188  0.2168 -0.3722 -0.1341
 2113W        W17582   4.422   8.656   2.578  0.1099  0.0732 -0.2899
 2114W        W17583   9.253   5.603   6.142 -0.4245  0.1083  0.0929
 2115W        W17584  14.307   3.100  10.613 -0.3029  0.0666 -0.1731
 2116W        W17585   2.210   1.225  14.802  0.3760  0.2272  0.1521
 2117W        W17586  14.116   1.595  15.371 -0.1874 -0.0478  0.1204
 2118W        W17587  11.805  13.718  12.599  0.2263  0.1040  0.0847
 2119W        W17588  13.987  12.879   3.444 -0.3911  0.1304  0.3586
 2120W        W17589   3.355  11.767  14.780  0.1662  0.0496  0.0928
 2121W        W17590   8.210   0.865   1.029 -0.2564  0.0615  0.1935
 2122W        W17591   8.879   3.012   1.813  0.2367  0.2822 -0.1159
 2123W        W17592   9.585   6.963   1.183 -0.3495 -0.0654 -0.0665
 2124W        W17593  15.118   7.806   1.925  0.0060  0.4141 -0.1168
 2125W        W17594  11.330   4.940  12.650  0.0064 -0.0209  0.0659
 2126W        W17595  12.216  12.117   4.508 -0.0385 -0.0541  0.1143
 2127W        W17596   6.701   0.058   4.454  0.2228  0.1767  0.1916
 2128W        W17597  10.659   2.991  15.169  0.1593  0.0306 -0.1105
 2129W        W17598   5.504  16.163  13.965 -0.0358 -0.0178  0.0561
 2130W        W17599   2.214   0.579   2.000 -0.0384 -0.1348  0.1003
 2131W        W17600  15.865   4.013   3.361  0.1638 -0.0438  0.2219
 2132W        W17601   0.100  16.220   4.383 -0.0920  0.0448 -0.1474
 2133W        W17602   0.365  16.207   1.602 -0.3247 -0.2278 -0.0808
 2134W        W17603  17.893   4.474   0.414 -0.1093 -0.0683 -0.1028
 2135W        W17604   0.882  14.701   4.818 -0.1816 -0.0248  0.2121
 2136W        W17605   8.436  11.175  15.233 -0.1221  0.3072  0.0554
 2137W        W17606  11.202  17.288   0.960 -0.1234 -0.0455 -0.2339
 2138W        W17607   1.246   2.730   3.313 -0.0409 -0.1772 -0.2163
 2139W        W17608  17.141   0.462  16.254 -0.0113  0.0913 -0.0632
 2140W        W17609   9.237   3.813  11.762 -0.3335 -0.0455 -0.0657
 2141W        W17610   3.642   4.956   1.905 -0.1774  0.0192 -0.2509
 2142W        W17611  14.248   6.837  11.677  0.0055 -0.2181 -0.0108
 2143W        W17612  17.056   3.029  14.403  0.0763 -0.0999 -0.0002
 2144W        W17613   6.088   3.061   3.498  0.0401 -0.2183 -0.2298
 2145W        W17614   9.482   3.006   0.075 -0.1718  0.1406 -0.0772
 2146W        W17615   6.205   5.151   4.877 -0.0402 -0.1800 -0.3135
 2147W        W17616  13.090   0.042   0.747  0.2126 -0.3251 -0.2175
 2148W        W17617   5.547  17.168   4.012  0.0981 -0.1152  0.2861
 2149W        W17618   3.022   3.104  12.602 -0.1030  0.0783 -0.1627
 2150W        W17619   0.537  17.328   4.624  0.0487 -0.2040  0.0355
 2151W        W17620   3.360  13.832   5.511 -0.3829 -0.1637 -0.0729
 2152W        W17621   7.758   9.402  11.673  0.1540  0.1825  0.1177
 2153W        W17622   2.698   0.135  12.189 -0.0732  0.1715 -0.3060
 2154W        W17623  11.962   8.890  13.843  0.0712 -0.0545  0.2079
 2155W        W17624   7.333   1.059  16.216 -0.2557 -0.0859  0.0822
 2156W        W17625   6.425   8.613   3.821 -0.1324 -0.3262  0.0519
 2157W        W17626   7.210   1.248   4.458  0.5762  0.0750  0.3805
 2158W        W17627  13.804  14.877  14.501 -0.0378  0.2897  0.1059
 2159W        W17628   3.654   1.146  15.372 -0.0797 -0.4112 -0.1996
 2160W        W17629   8.201  12.808  15.584 -0.0097 -0.1649  0.1192
 2161W        W17630   0.431   1.772   2.596 -0.0846 -0.1454 -0.0866
 2162W        W17631   2.470   3.856  15.172 -0.0255 -0.2940  0.0333
 2163W        W17632  17.664  11.012  15.367 -0.1984  0.1776 -0.0746
 2164W        W17633  10.506  15.684  14.804  0.2319 -0.2433 -0.2823
 2165W        W17634   0.800   6.084  12.972 -0.1562 -0.1686 -0.2906
 2166W        W17635  14.653   8.431  13.386  0.3159  0.2004  0.1738
 2167W        W17636   5.722   5.977  14.279  0.0970 -0.1039 -0.2158
 2168W        W17637   3.887  12.857  15.458  0.1115 -0.1237  0.4891
 2169W        W17638   9.618  16.628  14.967  0.0621  0.0069  0.1138
 2170W        W17639   0.565   1.258   5.205 -0.0333 -0.2379 -0.1576
 2171W        W17640  16.858  16.442  11.806 -0.0023  0.1156 -0.2385
 2172W        W17641  15.565  14.494   0.883 -0.3325 -0.0127  0.2727
 2173W        W17642  15.411   7.764   0.186 -0.3906  0.2569  0.0415
 2174W        W17643   4.821   6.087   2.045 -0.0515  0.1739 -0.2030
 2175W        W17644   0.049  10.742  11.489  0.4085 -0.3959 -0.1833
 2176W        W17645  13.250   1.440   1.573  0.0692 -0.0256 -0.2562
 2177W        W17646  16.821   4.640   1.079  0.1719  0.1738 -0.0627
 2178W        W17647  10.641  15.389   6.072 -0.0575  0.2396  0.0277
 2179W        W17648  13.872   9.110   3.036  0.2516  0.2106  0.0255
 2180W        W17649  10.266  15.971  14.445 -0.0783  0.0023  0.2891
 2181W        W17650   8.406  12.618  11.770  0.1389  0.0945 -0.0041
 2182W        W17651   9.552   4.710  11.329 -0.2482 -0.0946 -0.1253
 2183W        W17652   7.029   8.644  13.112  0.3597  0.0114  0.3514
 2184W        W17653   7.694  10.913   2.472 -0.1304  0.1837  0.0629
 2185W        W17654  14.066   7.085   0.381  0.3095  0.4506  0.1706
 2186W        W17655   8.838   9.569   0.212 -0.0724  0.0182  0.1906
 2187W        W17656  13.179   4.354   5.685 -0.0829  0.0443  0.0431
 2188W        W17657  14.006  16.263  13.474  0.1376  0.0409  0.0835
 2189W        W17658  14.422   6.819   5.589  0.2585  0.1146  0.0869
 2190W        W17659   5.228   9.755  12.116  0.1270  0.1594  0.1956
 2191W        W17660   4.546   5.535  13.346  0.1830 -0.2912  0.1573
 2192W        W17661  17.639   5.002  16.251 -0.1701  0.0344 -0.0784
 2193W        W17662  14.923  11.551   1.859  0.2258  0.0131 -0.1318
 2194W        W17663   8.934  16.130   3.262 -0.0392  0.2449  0.0228
 2195W        W17664  12.208   9.092  16.365  0.0462 -0.0467 -0.0167
 2196W        W17665  12.482  16.452   1.984  0.1147 -0.3097 -0.1951
 2197W        W17666  14.769  13.022  15.968  0.0575 -0.1386 -0.2629
 2198W        W17667   3.862   0.563  12.696  0.0980 -0.0308 -0.2185
 2199W        W17668  11.400   2.239  15.702  0.0169 -0.2160  0.0595
 2200W        W17669   3.905  17.169   5.230  0.2112  0.3035 -0.0917
 2201W        W17670   1.300   6.680   5.434 -0.0189  0.2134  0.0081
 2202W        W17671   5.065   8.177  15.093 -0.1707  0.0906  0.1119
 2203W        W17672  15.781   4.359  12.243 -0.1330  0.0888 -0.2052
 2204W        W17673   2.016  12.377   3.987 -0.1716 -0.1073 -0.1985
 2205W        W17674  10.574  13.197  11.778 -0.1275 -0.0751  0.1325
 2206W        W17675   1.510  17.112   2.116  0.1481 -0.0807 -0.3293
 2207W        W17676  13.965   3.110   2.418  0.0480  0.0171 -0.0114
 2208W        W17677   9.860  17.569   5.755 -0.1407 -0.1263 -0.0569
 2209W        W17678   0.948   3.648   0.212 -0.1525 -0.4118  0.3925
 2210W        W17679   0.395   2.921  16.405 -0.2745 -0.1660  0.1096
 2211W        W17680  15.883  13.492  12.363  0.0659 -0.0181  0.0525
 2212W        W17681  11.010   1.458   1.633  0.1143 -0.0332 -0.2912
 2213W        W17682  13.485  14.488  14.658  0.0823 -0.1517 -0.1603
 2214W        W17683  12.657   9.961  13.593 -0.0226 -0.1072  0.5392
 2215W        W17684   8.786  17.693   3.799  0.0525  0.2053  0.2528
 2216W        W17685   8.235  16.738  15.064  0.0243  0.1648 -0.0621
 2217W        W17686   2.227  15.813   4.544 -0.4560  0.2030 -0.1233
 2218W        W17687  17.824  10.862  14.416 -0.0925  0.1720 -0.0537
 2219W        W17688   5.191   1.169  12.065  0.2483 -0.0569 -0.3402
 2220W        W17689  17.595   6.989   5.234 -0.0753 -0.0738  0.0488
 2221W        W17690   4.970   5.156  15.277 -0.0127 -0.1751  0.0655
 2222W        W17691  12.830  15.806   0.264 -0.0060 -0.2267 -0.1024
 2223W        W17692  15.667  11.611  15.194  0.0614  0.0334  0.1888
 2224W        W17693   9.231  15.796  15.585 -0.1372 -0.0942  0.1802
 2225W        W17694   0.622   9.212   0.098  0.0678  0.0320  0.0691
 2226W        W17695  10.886   9.397  12.014  0.0707  0.0333 -0.1967
 2227W        W17696   5.085  15.453  12.546  0.3019 -0.1141 -0.5997
 2228W        W17697   8.644   6.604  12.228 -0.0276  0.0362 -0.0214
 2229W        W17698   9.643   1.114  14.033  0.2589 -0.1862 -0.1973
 2230W        W17699  10.993   2.796  16.035 -0.0945  0.0002 -0.1996
 2231W        W17700   0.137  11.196  11.217  0.0945 -0.0617 -0.2880
 2232W        W17701  16.936  11.872   2.558  0.0877 -0.2679  0.0575
 2233W        W17702   7.683  13.513  16.381 -0.0794  0.1050 -0.1666
 2234W        W17703  11.522  14.182   0.240  0.1439  0.0538  0.0258
 2235W        W17704  11.727  17.022   4.899 -0.1904  0.1118 -0.0583
 2236W        W17705   7.666   4.968  13.569  0.2694 -0.2243  0.3055
 2237W        W17706  11.146   6.211   2.425  0.4960  0.1653  0.0284
 2238W        W17707   2.417  15.922  12.158 -0.0950 -0.1135  0.1743
 2239W        W17708   9.203   7.317   4.492  0.3247  0.2554  0.0887
 2240W        W17709   0.200   5.455   0.350  0.2160  0.1418 -0.0665
 2241W        W17710   4.991   5.741  13.416 -0.1206  0.3530  0.0341
 2242W        W17711   7.522   2.054   1.281  0.1104  0.0195 -0.1166
 2243W        W17712   2.505  10.388   2.261  0.1394 -0.1337 -0.1644
 2244W        W17713   7.900   9.257  16.505 -0.2368  0.1179 -0.0275
 2245W        W17714   1.442   9.596   2.500 -0.1333  0.0152 -0.0583
 2246W        W17715   1.265   7.391   2.748  0.1382  0.0817  0.1259
 2247W        W17716   8.865  10.940  15.129 -0.1021 -0.1184  0.0651
 2248W        W17717   4.311  12.419  12.883 -0.2060  0.2164 -0.1512
 2249W        W17718   0.243  16.432  16.588 -0.0016 -0.0821 -0.0508
 2250W        W17719   0.229   2.646   3.549  0.0937  0.0416 -0.4877
 2251W        W17720  17.619   1.104  11.716 -0.0343  0.1383 -0.0990
 2252W        W17721   6.042  15.633  11.941  0.2821 -0.0549 -0.2130
 2253W        W17722   5.281   4.940  15.674 -0.0500 -0.0572  0.2725
 2254W        W17723   4.275   0.554  14.709 -0.0044  0.1440  0.1140
 2255W        W17724  10.196   8.968  16.202 -0.0932 -0.2952  0.1491
 2256W        W17725  11.279  15.762  13.540  0.0032 -0.0294  0.0628
 2257W        W17726  15.823  14.597  14.803 -0.0757 -0.0991  0.1585
 2258W        W17727  11.530  13.593  12.200  0.2961 -0.1721 -0.2060
 2259W        W17728   1.772   2.005   4.548 -0.2210  0.2379  0.0471
 2260W        W17729  17.284  12.060   4.055  0.1393 -0.2902 -0.0200
 2261W        W17730  16.808   9.651   1.270  0.0342  0.2479  0.2554
 2262W        W17731   6.650   0.969   5.569  0.0370  0.0454 -0.2457
 2263W        W17732  10.189  14.695   1.319  0.0182  0.0810  0.0746
 2264W        W17733   7.771   7.889  15.153  0.1851  0.0673 -0.3320
 2265W        W17734  13.815   9.055  15.423  0.1939  0.2198 -0.2984
 2266W        W17735   6.225   5.061  16.583  0.0201 -0.0546 -0.0460
 2267W        W17736   1.554   9.918  14.565 -0.3315 -0.3770 -0.2501
 2268W        W17737   7.954  17.395  11.373  0.0723  0.1886 -0.0826
 2269W        W17738  16.074   1.828  12.761 -0.0455 -0.0492  0.0503
 2270W        W17739   2.129  14.609   0.214 -0.4286  0.1070  0.0377
 2271W        W17740   9.644  16.762   4.661  0.1614 -0.1955 -0.0885
 2272W        W17741   7.852  12.961   1.309  0.2297  0.0770  0.0794
 2273W        W17742   4.654   3.277  13.401  0.2329 -0.0914 -0.2777
 2274W        W17743  13.333  15.975   0.073 -0.3723 -0.1543 -0.0587
 2275W        W17744   8.322  10.678   1.721  0.1217 -0.0246 -0.1150
 2276W        W17745   1.445  16.632   5.523 -0.0727 -0.0829  0.3683
 2277W        W17746  13.223  16.796   2.085 -0.3431  0.0383  0.1674
 2278W        W17747   8.257  17.311  15.401 -0.2273 -0.1900 -0.1432
 2279W        W17748  10.402   4.942  12.655  0.0582  0.1145  0.2028
 2280W        W17749   6.565   4.469  13.406  0.1330  0.3257 -0.2519
 2281W        W17750   9.024  14.703  12.074  0.2177  0.1960  0.0075
 2282W        W17751   2.920   9.540  11.705  0.1347 -0.0601  0.0538
 2283W        W17752  17.104   1.912  10.695  0.0926  0.1926 -0.2862
 2284W        W17753   9.404   6.786  15.349 -0.0645  0.0224  0.0685
 2285W        W17754   3.949   9.952   5.590  0.1096 -0.0198  0.1268
 2286W        W17755  12.325  13.311  13.178  0.2455  0.1790 -0.4085
 2287W        W17756   0.794  11.833   3.172 -0.4005  0.1404 -0.2169
 2288W        W17757   8.298   1.895   4.736  0.1280  0.1074  0.0237
 2289W        W17758   4.023   5.776  15.616  0.0465 -0.0674 -0.0956
 2290W        W17759  10.870   0.078  12.492 -0.1664  0.0314  0.1017
 2291W        W17760  12.314   9.180   1.277  0.1131  0.0592 -0.2026
 2292W        W17761  15.230  11.448  15.002 -0.1288  0.1254  0.2614
 2293W        W17762   8.645  14.145   4.714  0.1030  0.1790  0.0432
 2294W        W17763  15.338  16.430   5.219 -0.1284  0.2427 -0.1287
 2295W        W17764  14.792   5.380  13.172  0.0387 -0.2396  0.0562
 2296W        W17765   7.650   7.239  12.591  0.3383 -0.0197  0.1062
 2297W        W17766   0.489   9.388   3.984 -0.0114 -0.1574 -0.0453
 2298W        W17767  10.584  12.349   0.694  0.2214  0.0124 -0.1220
 2299W        W17768  10.374  10.037   3.228 -0.1334 -0.2507  0.2083
 2300W        W17769  15.661  15.502  12.012 -0.3348 -0.2978  0.0276
 2301W        W17770  17.372   5.556  10.917 -0.0580 -0.0585  0.0830
 2302W        W17771   6.290  12.039  13.655 -0.4978  0.2985  0.0840
 2303W        W17772  17.178   5.877   2.482 -0.2514  0.3435  0.0835
 2304W        W17773  13.821  16.127  13.913  0.0386 -0.1159  0.2385
 2305W        W17774   6.820   7.647  13.344  0.0211  0.2939 -0.1151
 2306W        W17775   1.624  11.618   2.097 -0.1701 -0.1071 -0.0428
 2307W        W17776  16.987   1.167   0.142 -0.2534 -0.2531  0.0497
 2308W        W17777   0.568  14.069  12.482  0.0365 -0.3729 -0.0614
 2309W        W17778  16.067  15.774  11.787 -0.1761 -0.0050 -0.3216
 2310W        W17779  17.226  10.865  14.458 -0.2274 -0.2567 -0.2494
 2311W        W17780  17.342   5.759  14.977  0.1565 -0.4410 -0.2981
 2312W        W17781  14.060  12.390  13.731 -0.0002  0.3196  0.2388
 2313W        W17782   5.143  13.601  14.554  0.1907 -0.1916 -0.0514
 2314W        W17783  11.991   5.465  14.271 -0.1618 -0.3066 -0.0505
 2315W        W17784   3.099   4.409   3.823  0.1568 -0.2448  0.1067
 2316W        W17785   6.380   0.194   1.028  0.4072  0.1527  0.0778
 2317W        W17786  17.502   9.826  16.509  0.0607 -0.1080 -0.1144
 2318W        W17787   6.270   6.768  13.279 -0.1906  0.1000 -0.0853
 2319W        W17788   3.907   9.906  15.972 -0.1911 -0.0492  0.1899
 2320W        W17789  15.541   4.143   2.551  0.1401 -0.0043  0.1698
 2321W        W17790   3.810  10.309   1.669  0.1194  0.1956  0.1208
 2322W        W17791  14.655   4.585  12.665  0.1849  0.0822 -0.0752
 2323W        W17792  10.813  11.968   4.885 -0.0947  0.0879  0.1716
 2324W        W17793   3.229   8.904   1.980 -0.2294 -0.0873 -0.0282
 2325W        W17794   0.866   0.381   1.009 -0.1334 -0.0672 -0.2331
 2326W        W17795  16.545  17.983   2.744 -0.0593  0.0433  0.1491
 2327W        W17796   7.163  14.945  13.738  0.1152 -0.0128 -0.0946
 2328W        W17797   4.673   8.620   3.178  0.2658  0.0563  0.1051
 2329W        W17798   1.335  17.470  15.424  0.1575  0.0526  0.2575
 2330W        W17799  11.326  12.293   4.244 -0.0139  0.2454  0.1283
 2331W        W17800  11.304   2.276  13.460  0.1315  0.1161 -0.2419
 2332W        W17801  12.900   6.376   0.932  0.0878 -0.0716  0.0148
 2333W        W17802  13.634   8.755   5.054  0.1773  0.0655 -0.0991
 2334W        W17803   3.545   0.838  13.465 -0.0353  0.0529  0.1984
 2335W        W17804  12.403  10.986   3.133 -0.0328 -0.1777 -0.0671
 2336W        W17805   6.062  10.391  14.973  0.0287 -0.0763  0.0812
 2337W        W17806   4.701   8.595   3.698 -0.0490  0.2877  0.3667
 2338W        W17807  10.299   0.323  16.139  0.1070 -0.3876 -0.1942
 2339W        W17808  13.244  13.898  12.008 -0.0124 -0.1450 -0.1872
 2340W        W17809   4.927   9.635   1.819  0.1119 -0.3254  0.0652
 2341W        W17810  12.681   3.531  10.983  0.0991  0.0573  0.1448
 2342W        W17811  13.266  16.380  11.289 -0.0170 -0.1599  0.0894
 2343W        W17812  10.111  10.594  13.790 -0.2150  0.1899 -0.0331
 2344W        W17813  13.392   9.466  14.182 -0.2615 -0.0848  0.1752
 2345W        W17814  17.805  10.481  11.904 -0.2007 -0.1544 -0.1604
 2346W        W17815  12.443   9.444   3.910 -0.0252 -0.0114 -0.0018
 2347W        W17816   6.695   8.637  14.568  0.0705  0.2292  0.0548
 2348W        W17817   6.822  17.139   6.191  0.2839 -0.3714 -0.5262
 2349W        W17818  17.526  12.235  14.102 -0.1266 -0.0110  0.0726
 2350W        W17819   6.517  15.936  14.882  0.1400  0.2399 -0.0370
 2351W        W17820  11.072  13.496   5.590  0.2103  0.4721 -0.0813
 2352W        W17821  15.082   8.212  15.004 -0.0340 -0.1946  0.0697
 2353W        W17822  16.846  15.067   5.594 -0.0013  0.1273 -0.1773
 2354W        W17823  16.698  16.957   5.448 -0.0978 -0.0239  0.0342
 2355W        W17824   6.552   8.501   3.345  0.2547  0.0363 -0.2851
 2356W        W17825  11.783  13.155  12.333 -0.1501  0.0850  0.0414
 2357W        W17826  17.921   4.126  12.709  0.0239  0.0003 -0.2255
 2358W        W17827   5.028  15.924  14.156  0.0676 -0.1315  0.2795
 2359W        W17828   6.529   5.867  13.921 -0.3704 -0.0246 -0.3614
 2360W        W17829  12.181   2.248   0.241  0.1034  0.0503 -0.0913
 2361W        W17830   8.294   3.833  15.726  0.4173 -0.1850  0.0855
 2362W        W17831   5.340  17.601   5.678  0.0603 -0.2642 -0.0595
 2363W        W17832  12.422  13.148   2.353  0.2168  0.0049 -0.1821
 2364W        W17833  12.406   2.748  10.639 -0.1916 -0.1286  0.2158
 2365W        W17834   7.160   2.570  13.858 -0.0580 -0.2714 -0.0151
 2366W        W17835  17.591  16.063   6.201 -0.4896  0.0528  0.0022
 2367W        W17836   2.237   2.676  14.967  0.0576 -0.1505  0.1115
 2368W        W17837   0.783  15.496  14.858  0.0278 -0.1485 -0.2383
 2369W        W17838   5.631   0.406  15.008 -0.1640  0.0013 -0.1788
 2370W        W17839   3.876   9.618  14.704 -0.2070 -0.4391  0.1109
 2371W        W17840  16.927   8.157   3.495  0.1233 -0.0675  0.1889
 2372W        W17841   1.288  14.129   3.166 -0.2491  0.0471 -0.2527
 2373W        W17842   0.707  15.424   2.564 -0.0677 -0.1765 -0.1220
 2374W        W17843  14.970  14.778   2.302 -0.4039 -0.0597 -0.2457
 2375W        W17844   1.846  10.485   0.991  0.0189 -0.1895  0.0360
 2376W        W17845  15.898  17.976  14.849  0.0271 -0.2229  0.1183
 2377W        W17846   9.901  17.794   4.156 -0.0364 -0.0732  0.0482
 2378W        W17847   2.382  12.046   3.179 -0.0506  0.3219 -0.0860
 2379W        W17848   4.552   0.491   3.842  0.0168  0.0339  0.1651
 2380W        W17849  16.773   7.794   3.128 -0.1282 -0.0359 -0.0031
 2381W        W17850  13.031   9.121  13.948 -0.2128 -0.1335 -0.0713
 2382W        W17851  11.990   9.634   0.377  0.0285 -0.0438  0.0561
 2383W        W17852   7.374   3.321  13.717  0.1193 -0.0220 -0.0488
 2384W        W17853   3.351  12.498  14.111 -0.1125  0.0837 -0.1716
 2385W        W17854   3.150   9.129  12.252 -0.2979 -0.3527 -0.3636
 2386W        W17855   9.586   6.658   5.106  0.1437 -0.0345  0.0246
 2387W        W17856  16.869   2.320  12.751  0.0981 -0.2634 -0.0844
 2388W        W17857  14.735   4.927   4.538  0.0807  0.2448  0.1346
 2389W        W17858   4.614  10.899  11.136 -0.0250 -0.0384  0.1825
 2390W        W17859  12.920  10.320   5.490 -0.0877 -0.4658 -0.0882
 2391W        W17860   5.724   8.226   3.958  0.1156  0.4102  0.0873
 2392W        W17861   5.283   6.607  10.568  0.1117  0.1667  0.0760
 2393W        W17862  13.974   1.796  13.945 -0.2351 -0.3578  0.0657
 2394W        W17863  12.174  10.790   2.636  0.1561  0.2637  0.1150
 2395W        W17864   2.042   5.630   2.022 -0.0597 -0.3140 -0.1325
 2396W        W17865   6.112  15.119   1.753  0.3202 -0.1282 -0.0375
 2397W        W17866   6.754   9.877   5.109 -0.0360 -0.1100 -0.1199
 2398W        W17867   9.960   1.245   0.137 -0.0699  0.0943  0.0202
 2399W        W17868  12.574   3.728  15.227 -0.0195 -0.0028  0.0900
 2400W        W17869   7.707   0.121  13.838  0.2005  0.2194  0.0962
 2401W        W17870   8.785  13.202  14.403 -0.1063 -0.1047 -0.2081
 2402W        W17871  16.573   9.164  14.742 -0.3753 -0.2732  0.0195
 2403W        W17872   5.546  17.639  16.154 -0.0693 -0.3024 -0.0775
 2404W        W17873   5.420  15.631  13.978  0.1874  0.0786 -0.0274
 2405W        W17874  15.021   4.585   0.212  0.1483 -0.0939  0.0482
 2406W        W17875   6.128   7.727  13.798 -0.1991 -0.0558 -0.1511
 2407W        W17876  11.901  14.471   5.309  0.1738  0.1980 -0.1135
 2408W        W17877  13.625   7.664  16.057 -0.1485 -0.0179  0.0591
 2409W        W17878   1.577   9.237  15.947  0.0813 -0.1692 -0.2141
 2410W        W17879  10.277  14.642  16.222 -0.1496 -0.0532 -0.2913
 2411W        W17880   5.700   8.411   0.699  0.0184 -0.1165  0.1424
 2412W        W17881   6.371   0.529   1.415  0.3246  0.1487  0.0741
 2413W        W17882  16.131   0.442  13.389 -0.0711 -0.1111  0.0391
 2414W        W17883  12.840  14.303   6.284  0.3151 -0.1806  0.2472
 2415W        W17884  17.953   9.612   1.466  0.1388 -0.2313 -0.2419
 2416W        W17885  11.036  16.857  11.535  0.2198  0.0946  0.0068
 2417W        W17886   4.590   5.262  11.653 -0.0665 -0.1478  0.3554
 2418W        W17887  15.359   9.353  13.703 -0.0663 -0.2429 -0.0217
 2419W        W17888  16.521   5.774   1.478  0.1395  0.1204  0.0993
 2420W        W17889  17.278   6.323  14.863  0.1080 -0.0802 -0.1586
 2421W        W17890   0.558  13.458   0.201 -0.0016  0.0832 -0.1579
 2422W        W17891  15.229  11.350  13.844 -0.4154 -0.1445  0.1826
 2423W        W17892   5.874   4.129  15.444 -0.2399  0.0203  0.1828
 2424W        W17893  13.962   4.148  16.232  0.2175 -0.1804  0.0430
 2425W        W17894   5.096  10.014  13.098 -0.0706 -0.2476 -0.2718
 2426W        W17895  14.404   4.817   6.000 -0.2644 -0.1102  0.3423
 2427W        W17896   9.258   6.017   2.040  0.1065 -0.0023 -0.2631
 2428W        W17897   0.829  11.904  11.851  0.0098 -0.0127 -0.0846
 2429W        W17898   4.548   0.371  10.929  0.1149 -0.1022 -0.0335
 2430W        W17899  12.507   1.342   4.823  0.2330  0.1625  0.3182
 2431W        W17900  11.655   6.072  11.601 -0.2338 -0.1909  0.2182
 2432W        W17901   4.653  12.748   0.115  0.1128 -0.2331 -0.4447
 2433W        W17902   7.869   0.078  14.711 -0.0965 -0.1978 -0.1946
 2434W        W17903  10.506  15.460  12.036  0.2054  0.1225 -0.0646
 2435W        W17904  13.409  12.127   5.798  0.6048  0.2137 -0.2628
 2436W        W17905  15.369  14.664   2.582 -0.3562 -0.1705  0.0923
 2437W        W17906   2.309   4.986   2.572  0.1382  0.1440 -0.1776
 2438W        W17907  17.563  11.010   3.357 -0.0412 -0.3072  0.0704
 2439W        W17908   7.616  10.936   1.085 -0.0783 -0.0777 -0.1710
 2440W        W17909   0.143  12.594  14.476  0.1390  0.2243 -0.1438
 2441W        W17910   0.437  11.305   2.046 -0.1332  0.1871  0.0160
 2442W        W17911   7.949   9.945   1.079  0.3028 -0.0596 -0.2095
 2443W        W17912  10.944   4.153  16.016  0.1426 -0.0808  0.1219
 2444W        W17913   2.633  10.866   1.175 -0.1380 -0.0464 -0.2957
 2445W        W17914  14.512   3.115   5.863  0.0041  0.0073 -0.0729
 2446W        W17915  13.853  12.321   5.144 -0.1955 -0.2598  0.1440
 2447W        W17916  11.071  11.256   0.744 -0.2410 -0.0652 -0.2311
 2448W        W17917   3.033  11.901  16.195  0.2061 -0.2623  0.2969
 2449W        W17918  11.250  17.106   5.629  0.0446 -0.1034  0.1530
 2450W        W17919   4.985   2.301   0.008  0.1186 -0.3211 -0.1726
 2451W        W17920   4.188   4.677  10.220  0.0345 -0.0214 -0.1165
 2452W        W17921   3.427   3.258  13.878 -0.0405  0.1521  0.1384
 2453W        W17922   0.083   2.203   2.579  0.0975 -0.1048  0.0164
 2454W        W17923   7.709  16.451   3.901 -0.0268  0.0041  0.2285
 2455W        W17924   6.056  10.700   1.128  0.0626  0.4600 -0.2682
 2456W        W17925   5.923   3.184  13.825 -0.1670  0.0522 -0.0280
 2457W        W17926  13.345  14.696   1.142 -0.1842 -0.3779  0.1101
 2458W        W17927  15.275   3.398   5.451 -0.1772  0.2271  0.2086
 2459W        W17928  13.853  10.092  14.765 -0.0633  0.0224  0.0525
 2460W        W17929   6.036   2.750   0.839 -0.0502  0.0620 -0.1938
 2461W        W17930   3.485   9.931  11.264 -0.1275 -0.0397  0.0615
 2462W        W17931   9.036  12.443  15.968  0.1839  0.0996  0.1186
 2463W        W17932   8.505  10.229  14.067  0.2062  0.1643  0.1991
 2464W        W17933  17.368   2.482  12.433 -0.0848  0.2391 -0.0159
 2465W        W17934  12.630   2.570   4.587  0.1544 -0.2677 -0.1168
 2466W        W17935   0.124   5.986  16.357 -0.2227 -0.1939  0.0529
 2467W        W17936  17.848  16.641   0.292  0.0724 -0.2476 -0.0368
 2468W        W17937  14.568  15.646   3.105  0.0251  0.1793  0.4630
 2469W        W17938   5.842   4.760   1.744 -0.1213  0.3490  0.1869
 2470W        W17939  17.131   5.137   3.572  0.0108  0.0153 -0.0016
 2471W        W17940  12.482   0.936   1.794 -0.0422 -0.1043  0.0591
 2472W        W17941   7.927   3.566  11.227  0.2456 -0.1380  0.0004
 2473W        W17942   1.285  13.413  15.532  0.1363  0.0159 -0.0281
 2474W        W17943  15.707  10.059   0.580  0.3418  0.1923 -0.2510
 2475W        W17944  14.825   2.609   3.961 -0.1015  0.1109 -0.1234
 2476W        W17945  14.183  10.922  12.272  0.0150 -0.1618  0.1309
 2477W        W17946   6.054  14.602   1.587 -0.2229 -0.1887 -0.1554
 2478W        W17947  12.288   6.287   4.452  0.1112 -0.0637  0.0532
 2479W        W17948  15.806  10.289  14.517 -0.1269 -0.0116 -0.0899
 2480W        W17949   8.561  15.376  15.435 -0.1124 -0.1682 -0.0357
 2481W        W17950  17.641  11.766  11.470 -0.1612  0.1513 -0.2492
 2482W        W17951  13.577   2.661   2.476  0.1301 -0.0315  0.0926
 2483W        W17952   0.952   0.487  11.633 -0.1372 -0.0706 -0.1354
 2484W        W17953  15.594  14.226  16.106 -0.0867 -0.3597 -0.2606
 2485W        W17954  14.128   9.173   1.288 -0.1690 -0.2174 -0.2438
 2486W        W17955   5.087   6.580  15.297 -0.1619  0.1019  0.2433
 2487W        W17956   2.015  11.860  11.798  0.4120  0.2548  0.0467
 2488W        W17957   8.196  13.415  11.820  0.0280  0.3223  0.0423
 2489W        W17958   7.913   0.741   1.412  0.1555  0.1174  0.0706
 2490W        W17959   1.678   4.261   2.739  0.0490 -0.1038  0.0478
 2491W        W17960  13.079  12.066   3.296 -0.1033 -0.0878 -0.1737
 2492W        W17961   2.368   0.104   4.501 -0.4063 -0.2262  0.3966
 2493W        W17962  14.669   7.690  10.941  0.1096 -0.1807  0.0232
 2494W        W17963   7.132  15.543  13.104  0.0692 -0.1754 -0.2389
 2495W        W17964   9.805   6.677   0.380  0.0656  0.2407  0.2848
 2496W        W17965   8.669  12.718   0.078  0.1714  0.0533 -0.1818
 2497W        W17966  12.055  14.785   2.813 -0.0664 -0.2489  0.1005
 2498W        W17967  10.716   8.331   2.656 -0.3281  0.1404  0.1571
 2499W        W17968   8.238  14.423  13.203 -0.0035  0.1225 -0.2190
 2500W        W17969  17.248  16.013  16.476 -0.0147 -0.0966 -0.1593
 2501W        W17970   1.164  17.172   3.105  0.2360 -0.1048 -0.0508
 2502W        W17971   4.599  10.828  16.333 -0.1563  0.2561 -0.1669
 2503W        W17972   5.416  15.696   0.657 -0.2300 -0.1255 -0.1519
 2504W        W17973   5.242   2.665   3.959 -0.2188  0.0373 -0.0508
 2505W        W17974  16.398   5.153  15.057 -0.1217  0.0600 -0.3151
 2506W        W17975  12.187   7.060   5.658  0.1256 -0.2405  0.0953
 2507W        W17976   1.035   7.262  10.729  0.1231  0.2009  0.1439
 2508W        W17977   1.649   3.050  11.313  0.1032  0.3219 -0.2861
 2509W        W17978   8.051   4.023  14.510  0.1232 -0.0479 -0.2728
 2510W        W17979  12.118  13.160  10.677 -0.1696  0.0779  0.0244
 2511W        W17980  15.336   6.927  13.055 -0.0437  0.1296 -0.3173
 2512W        W17981   1.603  12.428  11.424  0.0368 -0.0381 -0.0937
 2513W        W17982   6.746  15.020  14.027 -0.2157  0.1316  0.0960
 2514W        W17983  17.790   2.848   5.147  0.2555 -0.0217  0.0656
 2515W        W17984   8.007  14.607   6.183 -0.1751  0.1373  0.2473
 2516W        W17985  12.213   0.694  12.803 -0.0130 -0.1490  0.0175
 2517W        W17986   6.457  17.344   2.427 -0.1971  0.0981  0.1279
 2518W        W17987  10.161   2.452  14.319 -0.1124 -0.1690 -0.1718
 2519W        W17988   7.768   0.392   3.387 -0.0752  0.3346  0.1664
 2520W        W17989   6.024   1.048  13.935  0.1491  0.3175  0.0328
 2521W        W17990   5.373   8.186  14.686 -0.0291  0.2137  0.1012
 2522W        W17991  11.651  10.793   2.636 -0.1172 -0.0267 -0.1421
 2523W        W17992  15.741   2.776   3.850 -0.1464 -0.2338  0.3438
 2524W        W17993   4.512  11.538  12.169 -0.1313 -0.3468 -0.0516
 2525W        W17994   0.632  16.531  12.313 -0.2130  0.4216 -0.0222
 2526W        W17995  17.090  12.616  11.568  0.1989 -0.1872  0.1300
 2527W        W17996   4.514   5.766  13.837  0.0173  0.0907  0.0771
 2528W        W17997   1.943   4.349   3.217 -0.0547  0.2385 -0.0840
 2529W        W17998   5.731   3.733   5.786  0.0476 -0.2284 -0.3240
 2530W        W17999  12.066  15.490   5.530 -0.1654  0.1250  0.1385
 2531W        W18000   8.089  16.868  13.532  0.1838 -0.0173 -0.0199
 2532W        W18001   8.204   4.358  16.580 -0.2884  0.1806 -0.1694
 2533W        W18002   7.935   0.357  10.683  0.0989  0.0130 -0.0588
 2534W        W18003   5.381  13.377  16.278  0.0543  0.3349 -0.1531
 2535W        W18004  13.913   3.424   3.684 -0.0316 -0.0213 -0.0722
 2536W        W18005  13.155   5.263  14.193 -0.0119  0.1969 -0.0551
 2537W        W18006   9.449  17.275   0.502  0.1147  0.3209 -0.4357
 2538W        W18007  17.447   7.892  12.315  0.0062  0.0955  0.3191
 2539W        W18008   3.689  16.877  12.831  0.0772  0.1332 -0.0540
 2540W        W18009  10.837   3.030   3.908 -0.3740  0.0440  0.1746
 2541W        W18010   1.942  11.164  11.265  0.0081  0.2175  0.1167
 2542W        W18011   5.331  10.268   5.219 -0.1341  0.0011  0.1082
 2543W        W18012  15.060   5.580  14.631 -0.2574  0.1586  0.0589
 2544W        W18013   2.105   5.720   0.384  0.2315  0.1221 -0.0241
 2545W        W18014  16.751   0.458   2.821 -0.1156  0.2587  0.0413
 2546W        W18015   7.467  12.302   0.815 -0.2368 -0.1211 -0.0596
 2547W        W18016  15.685   1.309   5.800 -0.1427 -0.1990 -0.0413
 2548W        W18017   1.239  10.807  14.246  0.2535  0.1163 -0.0990
 2549W        W18018   9.672   6.977  14.139  0.2217 -0.1169  0.2458
 2550W        W18019   6.017  15.475  12.417  0.0513  0.0976 -0.0385
 2551W        W18020   8.225  17.967   1.460  0.1448  0.1506  0.3235
 2552W        W18021  11.277   0.148  12.971 -0.0255  0.0420  0.0055
 2553W        W18022  16.268   6.025  14.635 -0.0958 -0.0380  0.3382
 2554W        W18023  17.504  17.432  16.340 -0.0250 -0.3009 -0.0881
 2555W        W18024   1.669  13.777  12.599  0.1135 -0.0779 -0.1281
 2556W        W18025  11.816  16.185  12.525 -0.3009 -0.0841  0.0274
 2557W        W18026   4.107   0.670  13.275  0.3069 -0.0252 -0.1550
 2558W        W18027   5.054  14.627   4.976 -0.1128 -0.0876  0.3287
 2559W        W18028   1.351  15.602   5.116  0.4057 -0.2692 -0.2801
 2560W        W18029   3.077   3.264  16.008 -0.1266 -0.0114 -0.2310
 2561W        W18030   7.680   0.963   4.265  0.0271 -0.1539  0.1386
 2562W        W18031  14.510  12.156  11.696  0.0694  0.4394 -0.0260
 2563W        W18032   5.753   0.471   5.101 -0.4706  0.0330  0.4937
 2564W        W18033   2.954   2.886  13.372  0.0184 -0.0148 -0.1038
 2565W        W18034  12.340   9.161   4.336  0.0873  0.3875 -0.1009
 2566W        W18035   7.393   6.269  14.051 -0.3113 -0.0912  0.1403
 2567W        W18036   1.154  15.720   2.596  0.0948 -0.1782  0.1509
 2568W        W18037   7.271  15.909   2.376  0.1777 -0.0839  0.2638
 2569W        W18038  10.944   9.000   0.960  0.2075  0.1128  0.1876
 2570W        W18039  10.310   8.536  11.135  0.0959  0.2140 -0.1625
 2571W        W18040  17.406  13.221   3.047 -0.1706 -0.2851  0.1481
 2572W        W18041  12.950  13.922   1.796  0.0536  0.1076  0.2083
 2573W        W18042  13.231   4.258  13.098 -0.1758  0.2783 -0.1818
 2574W        W18043   3.078   4.453   2.983 -0.1386  0.1520 -0.1421
 2575W        W18044  14.026   7.382  13.413 -0.1548  0.3210  0.1096
 2576W        W18045   2.807   9.479  15.989 -0.2528 -0.0458 -0.2427
 2577W        W18046   4.351   0.893   5.731  0.0057  0.1455 -0.1740
 2578W        W18047   9.368  10.372  14.656  0.0644 -0.3656  0.0648
 2579W        W18048   1.245   5.607  13.719  0.1554  0.0039 -0.0260
 2580W        W18049   6.597  12.767  11.379  0.1208  0.0538  0.0152
 2581W        W18050   8.365   7.921   1.408  0.0141  0.0127 -0.0793
 2582W        W18051  15.275   3.875  16.033 -0.2742 -0.0586  0.2352
 2583W        W18052   0.509   3.477   3.191  0.0192 -0.1224  0.0857
 2584W        W18053   5.262   5.202  10.893 -0.1455 -0.0286 -0.0467
 2585W        W18054   1.857   0.830  12.988  0.1372  0.1887 -0.0423
 2586W        W18055  16.515  11.107  12.662 -0.0700 -0.1681  0.1604
 2587W        W18056   9.134   1.589   3.616 -0.0781 -0.1713 -0.2704
 2588W        W18057  16.376  12.304   4.211 -0.1755  0.0904  0.2068
 2589W        W18058   5.966   1.882   4.621  0.3361  0.1053 -0.4212
 2590W        W18059  10.283   6.185   3.510  0.2133 -0.0856 -0.0827
 2591W        W18060  15.738  15.086  15.055  0.0364  0.0136  0.0432
 2592W        W18061  13.518   3.203   3.382 -0.1378  0.1484  0.2966
 2593W        W18062   7.583   8.833  14.882 -0.1983 -0.1052  0.0301
 2594W        W18063   2.343   2.137   3.202 -0.0832 -0.1273  0.1029
 2595W        W18064  10.729  16.534   2.804  0.1278  0.0019  0.1600
 2596W        W18065   9.270   6.399  15.635  0.2167  0.2104 -0.1663
 2597W        W18066   7.614   3.535  12.208  0.0428  0.4258 -0.2191
 2598W        W18067  10.856  15.616   4.300  0.2899  0.1689  0.1003
 2599W        W18068   3.893   1.697  14.001 -0.0997 -0.0258  0.0438
 2600W        W18069   1.888   3.022   0.220  0.0219  0.0451  0.1645
 2601W        W18070   2.662  13.990   3.034  0.3152 -0.0355  0.1119
 2602W        W18071   8.479  15.616  14.021 -0.1758  0.0637 -0.1653
 2603W        W18072  16.910   9.200  13.038 -0.1295  0.0787 -0.3301
 2604W        W18073  15.316   6.163   3.896  0.2307  0.0690 -0.4488
 2605W        W18074   4.184  10.500   2.558  0.2179 -0.2388  0.4257
 2606W        W18075   3.531   8.380   2.973  0.1054  0.0206 -0.0518
 2607W        W18076  11.576   6.977  11.538 -0.0604  0.1071 -0.0955
 2608W        W18077   8.460   6.622   2.368  0.2414  0.1666  0.0228
 2609W        W18078  15.120   7.973  10.855 -0.0347 -0.1343  0.0143
 2610W        W18079   4.047   7.382  13.009 -0.2053 -0.2432 -0.1551
 2611W        W18080  16.497  12.556  16.198 -0.3471  0.2663  0.0834
 2612W        W18081   4.640  14.418   0.769  0.1492 -0.0069  0.1167
 2613W        W18082   0.211   9.390  16.044  0.3639 -0.1662 -0.0028
 2614W        W18083  14.656   8.578   4.629  0.1097 -0.0948  0.2312
 2615W        W18084   2.384   3.255   4.484 -0.0255  0.2029  0.0449
 2616W        W18085  11.688  15.705   2.139 -0.3158  0.0579  0.0311
 2617W        W18086  12.945   5.712   2.438 -0.1777 -0.0283  0.3742
 2618W        W18087   6.728   8.676  15.330 -0.0141  0.2294 -0.0737
 2619W        W18088  10.961   2.041  13.196  0.0246  0.0062 -0.1063
 2620W        W18089  16.627  11.504  14.786 -0.0134 -0.1999  0.0183
 2621W        W18090   9.575   2.836   2.971 -0.0950  0.1967  0.3112
 2622W        W18091  13.038   1.466   3.587  0.0089 -0.0696  0.0943
 2623W        W18092  13.160  15.100   6.448  0.0018 -0.1995 -0.0289
 2624W        W18093   1.044   1.431   4.138  0.1803 -0.1366  0.1346
 2625W        W18094   3.296   8.808  14.538  0.0641  0.0151 -0.1179
 2626W        W18095   6.279   5.091  13.743  0.0279  0.0048 -0.0018
 2627W        W18096  16.476   5.264   4.559  0.1999  0.1670  0.0170
 2628W        W18097  15.074  12.523  12.920  0.1788  0.0470  0.1021
 2629W        W18098   1.042  17.463   1.229  0.1701 -0.4288 -0.2092
 2630W        W18099   9.547   8.229   3.078 -0.0708  0.0649 -0.0899
 2631W        W18100  14.975   2.828   2.286  0.0938 -0.2183 -0.0679
 2632W        W18101  10.415  17.059  11.539 -0.0091  0.0621  0.1283
 2633W        W18102   4.105  13.320  11.747  0.0403  0.0711  0.0989
 2634W        W18103  17.069  12.984   0.367  0.2686 -0.0061  0.1213
 2635W        W18104   9.328  16.571   4.089 -0.0767  0.2252 -0.3617
 2636W        W18105  16.099  14.802  12.636 -0.2044 -0.0636 -0.0721
 2637W        W18106  17.322  11.469   1.513 -0.0173  0.0474  0.1199
 2638W        W18107   9.407   3.222   2.285 -0.0275  0.0946  0.1744
 2639W        W18108   0.716   2.019   1.829  0.0735  0.1447  0.3397
 2640W        W18109   9.354   3.846   1.986 -0.2098  0.1770  0.1481
 2641W        W18110  10.092   4.184  14.254  0.0198 -0.0908 -0.2747
 2642W        W18111   1.655   2.515   5.621  0.1752  0.1590  0.0275
 2643W        W18112   1.451   0.445   4.126  0.0113 -0.2035  0.2465
 2644W        W18113   6.427   0.021   3.243  0.0858  0.0403 -0.2514
 2645W        W18114   0.066   9.403  14.212 -0.1510  0.1153 -0.0576
 2646W        W18115   4.176  14.261  13.042  0.1166  0.1738  0.1338
 2647W        W18116   8.073   6.003   4.251  0.0683  0.2746  0.0600
 2648W        W18117   4.265  15.930   3.515 -0.1729  0.3033 -0.0335
 2649W        W18118   3.056   3.560   1.069  0.0699  0.2154  0.2556
 2650W        W18119   6.579   1.502   5.176 -0.1148  0.2025 -0.0124
 2651W        W18120  13.726   1.575   1.580 -0.0275 -0.1964  0.0671
 2652W        W18121  12.041   2.178   0.759 -0.0498  0.1933  0.2047
 2653W        W18122  11.439   4.141   2.798 -0.1109  0.0580  0.3562
 2654W        W18123  10.987   8.969  16.139 -0.1976 -0.0112  0.0933
 2655W        W18124  12.704  16.588  13.225 -0.1493 -0.0053  0.1964
 2656W        W18125   9.022  12.447  14.047 -0.2089  0.1832  0.2257
 2657W        W18126   8.266  11.235  10.837 -0.2830  0.1240  0.0788
 2658W        W18127  13.596  17.667   3.096 -0.0602 -0.1231 -0.0686
 2659W        W18128   4.242  13.206   5.413  0.2177  0.1097  0.2905
 2660W        W18129   0.163   8.981   3.952  0.2875 -0.1242  0.1293
 2661W        W18130  12.444   0.042  14.580 -0.1906 -0.1069 -0.2135
 2662W        W18131   9.159   0.868  15.612  0.0344 -0.1033  0.1819
 2663W        W18132   7.850  12.043   0.371  0.0629  0.1761 -0.4363
 2664W        W18133   8.741  12.376   4.722 -0.0484  0.0935  0.1116
 2665W        W18134  10.371  15.043   5.814 -0.1322 -0.0891 -0.2871
 2666W        W18135  13.171  17.740  16.244 -0.1117  0.1386  0.1844
 2667W        W18136   7.434   8.041  12.354  0.2153  0.3425 -0.1863
 2668W        W18137   0.140   6.352   0.972  0.0441 -0.1553 -0.1247
 2669W        W18138   1.678  17.369   4.363  0.2645 -0.1288 -0.0957
 2670W        W18139   7.873   8.340   4.379 -0.0404  0.2105 -0.1025
 2671W        W18140   9.917  17.981   4.634 -0.0319 -0.2567  0.1749
 2672W        W18141   4.520  14.327   2.951  0.3408 -0.1018  0.3470
 2673W        W18142  17.722  17.201  12.904  0.0208 -0.1330 -0.1396
 2674W        W18143   1.815   0.775  15.055 -0.1348  0.1923 -0.0532
 2675W        W18144   5.289   6.763   0.294  0.0462  0.0597 -0.1073
 2676W        W18145   1.053  12.096  15.857 -0.0477  0.0495 -0.1542
 2677W        W18146  12.931   7.708   2.027  0.2566  0.2417 -0.0106
 2678W        W18147  12.690  14.186  12.825  0.1346 -0.1771  0.1682
 2679W        W18148   1.485   5.395   2.484 -0.1748  0.1353 -0.3089
 2680W        W18149  11.078   9.579  11.287 -0.3156  0.2938  0.2139
 2681W        W18150  16.591   0.646  14.157 -0.1089  0.0313  0.1056
 2682W        W18151   3.332   0.951   0.017 -0.0791  0.2216 -0.2354
 2683W        W18152   0.902   2.094  15.766 -0.2023 -0.1733  0.0384
 2684W        W18153   7.274   6.411  14.525 -0.0936 -0.1525 -0.1029
 2685W        W18154  12.002   8.066   1.966 -0.1069  0.2743  0.1401
 2686W        W18155  15.045  15.599  13.166 -0.0551  0.0374 -0.0335
 2687W        W18156  16.757   6.629  13.228  0.1335  0.0565  0.1228
 2688W        W18157   0.334  14.452   2.961  0.2619  0.0776 -0.1579
 2689W        W18158  10.956  10.267  14.679  0.1377  0.3535  0.1716
 2690W        W18159   1.073   5.355  16.581 -0.0063  0.3150  0.0448
 2691W        W18160  16.029  14.496   6.450  0.5728  0.2134  0.2642
 2692W        W18161   9.758   8.516   1.471  0.2330  0.3757  0.0134
 2693W        W18162  12.139  13.692  15.034 -0.0090 -0.0527 -0.3296
 2694W        W18163  11.132  12.867  11.023  0.0119 -0.0424 -0.0222
 2695W        W18164  11.717  12.982   4.841 -0.1418 -0.2683 -0.1892
 2696W        W18165  16.622   9.681   5.333 -0.0533 -0.0077  0.1548
 2697W        W18166  14.764  12.073   0.104 -0.1104  0.0001  0.0067
 2698W        W18167  13.868   5.342   3.582  0.0628 -0.1590 -0.2405
 2699W        W18168   6.036   6.455   5.028 -0.0337  0.0704  0.0192
 2700W        W18169  17.457   3.658   4.288  0.0037  0.0053  0.1767
 2701W        W18170  17.434  14.096  14.298  0.1477 -0.1997  0.1709
 2702W        W18171  10.743   9.945  12.306 -0.0700  0.0042  0.1792
 2703W        W18172  15.994  15.286  11.604  0.1523 -0.1586 -0.0801
 2704W        W18173   5.515   2.392   6.291 -0.4082 -0.0019  0.3111
 2705W        W18174   1.376   7.289  12.426 -0.1745 -0.0700  0.3085
 2706W        W18175  13.733  10.612   5.352  0.2155 -0.2792  0.1997
 2707W        W18176  11.000   1.942   1.783 -0.0866 -0.0884 -0.1600
 2708W        W18177   3.677   4.882   4.953 -0.1237 -0.0126  0.1771
 2709W        W18178  16.624   8.130   0.648 -0.0424  0.2281 -0.1717
 2710W        W18179   3.656  13.071  16.527 -0.4071  0.0033 -0.2426
 2711W        W18180  13.383  13.245   4.635  0.2891  0.0942  0.1035
 2712W        W18181   5.261  12.345  16.141 -0.1458  0.0543  0.2594
 2713W        W18182  17.459  17.129  11.138  0.0879  0.2696 -0.1634
 2714W        W18183  12.800   6.432   4.256  0.1533  0.2164 -0.0771
 2715W        W18184   9.801  10.572  15.047  0.0159 -0.1156 -0.0478
 2716W        W18185  12.797  14.069   2.249  0.2151  0.1275 -0.1087
 2717W        W18186   6.593  16.569   0.790 -0.3409 -0.0030  0.2002
 2718W        W18187  14.806  10.890   3.737  0.0738  0.0671 -0.2463
 2719W        W18188  16.607  16.092   3.019 -0.1784 -0.1080 -0.2942
 2720W        W18189  15.760  14.337   2.346  0.0007  0.0270 -0.0466
 2721W        W18190  17.385   8.464  15.635 -0.1040  0.0986  0.0408
 2722W        W18191  12.283   4.277   0.551 -0.0448 -0.1102 -0.1432
 2723W        W18192   0.877   3.489   3.534  0.1331  0.1920 -0.1087
 2724W        W18193   4.645  17.213   4.349  0.0013  0.1167 -0.0809
 2725W        W18194  15.925   5.541   4.765 -0.0724 -0.0726 -0.2448
 2726W        W18195  14.384   8.707  16.105  0.1828  0.0361  0.0832
 2727W        W18196   8.623   8.946   1.717 -0.1303 -0.1560  0.1417
 2728W        W18197   7.678   9.417   2.534  0.0593  0.0953 -0.0771
 2729W        W18198   6.117  10.455   4.847  0.0173 -0.0141  0.0244
 2730W        W18199   4.034  10.350  15.686  0.0158 -0.0786  0.0185
 2731W        W18200   9.219   2.966  16.057 -0.1843 -0.2040 -0.2264
 2732W        W18201   3.666   5.387   5.115  0.0075 -0.1132  0.2703
 2733W        W18202  10.129   2.242   5.340 -0.2591  0.0408  0.2445
 2734W        W18203   6.368   5.302  11.210  0.0570 -0.1578 -0.0543
 2735W        W18204   8.703  11.115  14.125  0.1228  0.0777  0.0161
 2736W        W18205   4.051   1.219   3.943  0.0601 -0.0508 -0.0091
 2737W        W18206  14.523   0.754   1.932  0.0952 -0.2111 -0.5412
 2738W        W18207   0.405  12.850  11.653 -0.0481 -0.2356 -0.0985
 2739W        W18208   6.557   3.468   0.438  0.1177  0.0081  0.2374
 2740W        W18209  14.594  15.015  15.337 -0.0144 -0.3169  0.0740
 2741W        W18210   6.675  16.456   2.587 -0.0068 -0.1100 -0.1771
 2742W        W18211  11.377   3.432   0.833 -0.4450 -0.0033 -0.0441
 2743W        W18212   2.736  16.229   0.250 -0.1130 -0.1023  0.3065
 2744W        W18213   3.470  10.655  13.475 -0.2137  0.2770  0.0741
 2745W        W18214   2.254   1.525  12.298  0.1268 -0.2437  0.1637
 2746W        W18215   1.081   1.691   6.129 -0.0482 -0.0322  0.0200
 2747W        W18216  12.879   3.702  12.365  0.3265  0.1250  0.1156
 2748W        W18217   6.339  17.217   6.500 -0.0154 -0.5974 -0.0040
 2749W        W18218  16.531   7.252  13.958  0.1767  0.1157  0.2438
 2750W        W18219   0.391   2.372  12.709 -0.1857  0.1891  0.0699
 2751W        W18220  10.184  11.932  16.165 -0.4219  0.0377  0.4893
 2752W        W18221   2.184   9.822  12.274 -0.0405 -0.0305 -0.1270
 2753W        W18222   9.810   3.144  11.251 -0.4883 -0.0954 -0.0670
 2754W        W18223  10.521  12.808  13.479  0.0290 -0.2026 -0.3317
 2755W        W18224  11.857   7.531  13.102  0.2227  0.1430  0.0842
 2756W        W18225   0.500   3.596   1.633 -0.0381 -0.3424  0.0764
 2757W        W18226   8.136  16.759   2.945 -0.4834  0.1139  0.2017
 2758W        W18227   9.428   1.095   3.385 -0.0157  0.4391  0.2849
 2759W        W18228   5.523   3.149  11.499 -0.1077 -0.0867  0.1399
 2760W        W18229   3.862   7.554   1.041 -0.0550 -0.1455  0.1760
 2761W        W18230   4.974   7.837   0.932 -0.1870  0.1200  0.0313
 2762W        W18231  11.587  16.607  16.115  0.1499 -0.1319 -0.0792
 2763W        W18232  10.501   1.771  13.466 -0.2627  0.0269  0.2966
 2764W        W18233  15.934   2.207   4.407 -0.0373  0.1765 -0.1890
 2765W        W18234  16.355  11.056   3.052  0.0992  0.1453 -0.0110
 2766W        W18235  17.510  13.757  14.689  0.3042  0.0004  0.2356
 2767W        W18236   3.806   6.336  15.312 -0.1338  0.1729  0.1040
 2768W        W18237   2.169  12.019   1.585 -0.2725 -0.4148  0.2027
 2769W        W18238  14.902  10.347  11.662  0.0309 -0.3837  0.0430
 2770W        W18239   0.672   9.835   3.939 -0.2486 -0.3417 -0.1178
 2771W        W18240  16.004   3.781  13.516 -0.2797 -0.1177 -0.1528
 2772W        W18241  15.232  10.475  15.092  0.2041  0.1532 -0.0911
 2773W        W18242  13.916  13.298   0.404 -0.1391 -0.1668 -0.1923
 2774W        W18243  12.287  17.893   5.825 -0.1627 -0.0016  0.2117
 2775W        W18244   1.754   6.885   4.593  0.1652  0.0418  0.3060
 2776W        W18245   0.077   7.376   2.044 -0.0156 -0.1515  0.1800
 2777W        W18246   1.216  15.526  14.649  0.2152  0.1004  0.0584
 2778W        W18247   9.011  17.378  13.726  0.1411  0.5041  0.2566
 2779W        W18248   0.316   4.726   0.835 -0.0982  0.3581 -0.2081
 2780W        W18249  11.936  17.429  12.855  0.1363  0.0179  0.1826
 2781W        W18250   6.026   4.991   3.990 -0.0473 -0.0742 -0.0813
 2782W        W18251   8.506  14.215   0.667 -0.2015 -0.1847 -0.1253
 2783W        W18252   7.014   1.886  11.912  0.1126 -0.0883  0.2330
 2784W        W18253   6.899   3.897   0.303  0.1428 -0.1763  0.1274
 2785W        W18254   6.465   0.125  14.440  0.0466  0.1865 -0.0709
 2786W        W18255  17.155  12.218   2.913 -0.2229  0.0006  0.0960
 2787W        W18256  11.659  10.357  13.968 -0.0237  0.0115  0.0476
 2788W        W18257   9.444  13.566   4.697  0.0687  0.0883  0.1539
 2789W        W18258  13.028   7.304  11.632  0.1376 -0.1545  0.2322
 2790W        W18259   1.482   0.377  13.726 -0.1477  0.2300 -0.0103
 2791W        W18260   1.332   0.942   4.989  0.0206  0.1927 -0.2162
 2792W        W18261  13.835  16.092  11.988  0.1051  0.1976 -0.1590
 2793W        W18262  17.905   0.774   4.864  0.0942 -0.2117 -0.2116
 2794W        W18263  13.264  16.125  11.973  0.0442 -0.1948  0.1919
 2795W        W18264   7.584  11.713  11.990 -0.0607 -0.0703 -0.0883
 2796W        W18265  16.391   1.250   4.476  0.2073  0.0049  0.0702
 2797W        W18266   7.454   2.074  14.973 -0.0475  0.0514 -0.0343
 2798W        W18267   9.544  14.830   4.180 -0.0518  0.1589  0.1336
 2799W        W18268  16.239   6.502   2.087 -0.0908 -0.1229  0.0749
 2800W        W18269   6.940  11.302   0.884 -0.1526  0.2063 -0.2189
 2801W        W18270  17.611  16.189  12.691  0.0451  0.0735  0.1370
 2802W        W18271  16.391  10.338  11.899 -0.1063 -0.0149 -0.0130
 2803W        W18272  12.581   8.674   3.437 -0.0298 -0.3638 -0.1735
 2804W        W18273   7.590   8.810  11.253  0.0039  0.0332  0.1622
 2805W        W18274   4.272   3.705  11.153  0.2438 -0.2676 -0.2775
 2806W        W18275  13.357   7.279  12.513 -0.0077  0.0002 -0.0744
 2807W        W18276   8.386   2.773   5.319 -0.0697  0.0486  0.0350
 2808W        W18277  10.593  15.038  13.579 -0.0422  0.0631 -0.1727
 2809W        W18278   7.626  16.834   3.569  0.2897 -0.2255 -0.0762
 2810W        W18279   9.809   4.729  15.560 -0.1803 -0.0305  0.3630
 2811W        W18280   0.898  10.450  13.458 -0.2935  0.1646  0.1368
 2812W        W18281   6.786   9.057   3.426 -0.2111  0.0342  0.0617
 2813W        W18282   0.942  15.256   5.016 -0.3271  0.1990  0.0777
 2814W        W18283  12.389   9.214  12.948 -0.0855 -0.1705  0.2705
 2815W        W18284   6.321   5.351   4.173  0.0807 -0.2048 -0.0419
 2816W        W18285  17.636   0.751   2.503  0.4191 -0.3272  0.1899
 2817W        W18286   9.451  10.910   2.038 -0.1458  0.1269 -0.0209
 2818W        W18287  15.549  10.531   4.562 -0.2859 -0.1657  0.0208
 2819W        W18288   0.579   5.879   2.405 -0.3865  0.2293  0.2678
 2820W        W18289  10.764   7.822   2.629 -0.0516  0.1298  0.1056
 2821W        W18290   1.947  10.508   5.317 -0.0082 -0.1747  0.1438
 2822W        W18291  11.116  12.927  14.112 -0.0359 -0.3992  0.0499
 2823W        W18292   2.956   1.152   1.425  0.1298 -0.0947 -0.2612
 2824W        W18293   5.215   8.916  10.424 -0.2050 -0.0626 -0.0660
 2825W        W18294   1.511   1.598  13.231 -0.2652  0.0115  0.0573
 2826W        W18295  12.194  14.043   5.179 -0.0241  0.0236  0.0411
 2827W        W18296   5.903   0.765  14.567  0.0395  0.1649  0.1032
 2828W        W18297   5.868  14.324  11.676 -0.0553  0.2506 -0.2314
 2829W        W18298  11.852   4.972   5.077 -0.2032  0.0003  0.1748
 2830W        W18299   3.316   5.221  12.532  0.1165 -0.5297 -0.1375
 2831W        W18300  10.582   0.412   4.358 -0.0785 -0.0244 -0.4156
 2832W        W18301   4.484  12.592  11.548  0.0415 -0.1491  0.1266
 2833W        W18302   2.761  13.305   3.621 -0.1957  0.0369  0.0209
 2834W        W18303  17.332  12.931  14.766  0.1085 -0.1897  0.2348
 2835W        W18304  13.493   8.818   3.876 -0.3143  0.1289 -0.0586
 2836W        W18305  11.094   0.617   5.138 -0.0164  0.1472  0.0968
 2837W        W18306   7.266   0.998  12.941  0.1692  0.1962 -0.1532
 2838W        W18307   3.773  11.370  11.178  0.0093  0.4816 -0.0974
 2839W        W18308   8.830   8.374   5.911  0.1049 -0.0227  0.2051
 2840W        W18309  10.825  10.412   5.422  0.2832 -0.0872 -0.2353
 2841W        W18310  13.679  16.679  13.196 -0.1939  0.2711  0.1419
 2842W        W18311  12.562  16.183   2.990 -0.1029  0.0646 -0.1297
 2843W        W18312   4.411  11.919   1.158  0.0897 -0.1918  0.1373
 2844W        W18313   8.241   4.920   5.686 -0.1007  0.0698 -0.0575
 2845W        W18314   0.792  16.042  15.621 -0.4119 -0.2927 -0.1570
 2846W        W18315   9.790   6.034   2.318  0.0800  0.1176 -0.0205
 2847W        W18316   2.987   1.132   2.301 -0.2730  0.0357 -0.3102
 2848W        W18317  13.161  16.920   2.596  0.1448 -0.0479 -0.0192
 2849W        W18318   3.228   4.455  11.259  0.2926  0.0732 -0.2528
 2850W        W18319   5.593  14.456   1.339  0.2721 -0.0842 -0.1475
 2851W        W18320   2.129   5.437  13.262  0.2108 -0.1369 -0.0190
 2852W        W18321   0.430  13.689   5.051  0.0808  0.0853  0.1459
 2853W        W18322   6.479  16.089   1.786  0.0277 -0.2844  0.1206
 2854W        W18323  14.600   3.383   3.031 -0.0603 -0.3461 -0.3071
 2855W        W18324   3.925   8.558   2.594  0.3699 -0.0200  0.2469
 2856W        W18325  12.726  14.674  15.965  0.0290 -0.1478 -0.0651
 2857W        W18326  14.603   3.067   0.873 -0.0058  0.2015  0.1222
 2858W        W18327  12.537  14.022   2.743 -0.0025  0.0889  0.0741
 2859W        W18328  17.618   1.628   6.032  0.2702  0.3835  0.0863
 2860W        W18329   3.607  13.407   4.266  0.2287  0.2924 -0.4798
 2861W        W18330  16.506  16.565  15.701 -0.0183 -0.1970  0.1899
 2862W        W18331  14.268  14.164  14.127 -0.2709 -0.3119 -0.0946
 2863W        W18332   8.597   4.408  11.646 -0.0214 -0.1683 -0.1380
 2864W        W18333  13.658  12.301   4.273  0.3705  0.3018 -0.1485
 2865W        W18334   6.833  16.835  15.280  0.1078 -0.1381  0.1674
 2866W        W18335   1.965   9.037   1.089  0.1807 -0.0117 -0.1261
 2867W        W18336  12.837  15.231  13.619  0.0766  0.0089  0.1350
 2868W        W18337  15.948   4.116   1.509  0.2220 -0.1273 -0.1340
 2869W        W18338   9.935   3.083  12.188 -0.1253  0.1972  0.0721
 2870W        W18339  14.446  12.912   5.453  0.2249  0.1873  0.0771
 2871W        W18340   9.571   8.586  11.888  0.2674 -0.2339 -0.0747
 2872W        W18341  15.741  16.556   1.450  0.1628  0.0502 -0.2007
 2873W        W18342  14.557  16.019  14.026  0.0972 -0.1074  0.1208
 2874W        W18343  17.405  12.679   3.130  0.3001 -0.2237  0.0596
 2875W        W18344  12.778   0.953  16.586 -0.1138  0.0554 -0.1530
 2876W        W18345   9.347   1.369  12.258 -0.2238  0.2050 -0.0711
 2877W        W18346  12.896  16.390   2.540 -0.2159 -0.0311  0.0203
 2878W        W18347  16.626  10.174  10.159 -0.1333 -0.0378  0.0538
 2879W        W18348  12.378   5.083   2.659  0.1012 -0.1541  0.2163
 2880W        W18349  13.050  13.014  12.569  0.1074  0.0640  0.0722
 2881W        W18350   0.469  14.711   5.084  0.2121 -0.0703 -0.0904
 2882W        W18351  12.948  11.934  16.451 -0.1768  0.2899 -0.1927
 2883W        W18352   1.610   8.668   1.020 -0.2003  0.1909  0.2163
 2884W        W18353  16.737   9.545  14.253  0.1437  0.0813  0.1549
 2885W        W18354  10.731   1.446   6.946 -0.1887 -0.1316 -0.2837
 2886W        W18355   2.439   0.938  16.141  0.0267  0.2402  0.0308
 2887W        W18356   4.612   8.451   1.369  0.1993 -0.0145 -0.0486
 2888W        W18357   2.051  16.114  13.720  0.2637 -0.0752  0.0042
 2889W        W18358  17.401   8.005   0.330 -0.2979 -0.1270  0.2757
 2890W        W18359   3.350  15.924  11.666  0.1500 -0.0883 -0.2227
 2891W        W18360   2.662  17.840   4.083  0.4034  0.0482  0.1910
 2892W        W18361   5.227   3.586   1.492  0.0724 -0.2476 -0.2574
 2893W        W18362   8.511  11.480   5.610 -0.0794 -0.0837  0.3644
 2894W        W18363  11.448   7.470  11.418  0.1368 -0.1130 -0.0420
 2895W        W18364   2.107   8.613  15.027  0.0989  0.0601 -0.1984
 2896W        W18365   4.589   5.371   5.444  0.0953 -0.0999 -0.0098
 2897W        W18366  15.749  10.039  15.020  0.0707 -0.1026  0.1812
 2898W        W18367   5.944  13.601  13.962  0.0468 -0.4850 -0.2105
 2899W        W18368   3.857  16.365  16.190 -0.1082 -0.0925  0.1046
 2900W        W18369   7.353   3.043   4.319 -0.3926 -0.1814  0.2986
 2901W        W18370   5.041   6.115   1.557  0.1083 -0.4267 -0.1357
 2902W        W18371   1.163  12.051   3.440 -0.0699 -0.2416 -0.3692
 2903W        W18372   3.718   1.885   2.143 -0.0929 -0.0916 -0.1815
 2904W        W18373  14.679   5.427  11.180  0.2213 -0.3372  0.0154
 2905W        W18374   3.089   4.394  15.178  0.0527  0.1572  0.1470
 2906W        W18375   2.182   3.534   1.425 -0.2365 -0.1063 -0.0397
 2907W        W18376  14.692   0.702  12.204  0.0983 -0.0673 -0.1495
 2908W        W18377   3.167   2.415   4.994 -0.2196  0.0953 -0.1090
 2909W        W18378   6.144   2.987   1.601 -0.1417 -0.0853  0.4014
 2910W        W18379   5.455   5.928  15.865  0.0388 -0.3564 -0.2647
 2911W        W18380   5.066  13.682   4.154 -0.2505  0.1528 -0.0804
 2912W        W18381   8.690   1.805  13.942  0.0911 -0.0046 -0.3140
 2913W        W18382   1.390   0.472   0.938  0.0978  0.2219 -0.1585
 2914W        W18383  14.467  14.231   2.762  0.0135  0.1536  0.0085
 2915W        W18384   4.197   8.547   2.098  0.0091  0.3003 -0.0784
 2916W        W18385   8.857  13.593   0.051 -0.0581  0.2205 -0.0900
 2917W        W18386   9.858  15.633  13.716 -0.3475  0.1219  0.3276
 2918W        W18387   6.258   2.917  12.949  0.0186  0.1269  0.0343
 2919W        W18388  13.085   8.837  12.301  0.0468  0.1787  0.0587
 2920W        W18389   0.844  13.268  14.142  0.0475 -0.0520  0.0111
 2921W        W18390   9.973  15.501   4.430 -0.1178  0.0044  0.2846
 2922W        W18391  15.109   6.929  11.226 -0.2322 -0.1906  0.0706
 2923W        W18392  17.485   2.778  13.436  0.1623 -0.0656 -0.1187
 2924W        W18393   1.828  12.417   1.448 -0.2848 -0.1192 -0.0879
 2925W        W18394   4.773   0.752   1.064 -0.2284 -0.0831 -0.1480
 2926W        W18395   9.148   3.337  14.122 -0.0488 -0.1119  0.1355
 2927W        W18396   9.961   0.429   3.037  0.0511 -0.2269  0.1727
 2928W        W18397  11.782   6.665   5.821 -0.4604  0.1211  0.0302
 2929W        W18398  15.794  12.460   1.968  0.0361  0.2561 -0.0762
 2930W        W18399   9.048  15.470   4.384 -0.0099  0.1444  0.2154
 2931W        W18400   2.471   5.841  12.461 -0.0932  0.0124  0.1589
 2932W        W18401  12.610   0.384  12.801  0.1273  0.2382 -0.4060
 2933W        W18402  13.480  11.599  15.808  0.0802 -0.1486  0.1099
 2934W        W18403  13.866   0.512  14.743 -0.0563  0.2217  0.0558
 2935W        W18404  15.332   9.602   2.090  0.1104  0.1219  0.0757
 2936W        W18405   0.337   7.290   2.998 -0.0099  0.1534 -0.4040
 2937W        W18406   6.845   8.752   3.021  0.0191 -0.0418  0.1972
 2938W        W18407  14.004  13.548  15.959 -0.0701  0.1260 -0.2810
 2939W        W18408  16.924   9.368   3.413  0.0491 -0.1619 -0.0710
 2940W        W18409   0.697   6.573  14.253  0.1217 -0.2893  0.3341
 2941W        W18410  12.027  13.150  14.511 -0.4180  0.2055  0.1306
 2942W        W18411   4.352  14.772   2.804  0.2430 -0.3407  0.4622
 2943W        W18412   6.166   0.690   5.226 -0.0233 -0.1496 -0.1257
 2944W        W18413  11.009  12.453  15.834 -0.0121 -0.0179  0.0305
 2945W        W18414   1.978   2.374  16.389  0.0631 -0.1176 -0.1655
 2946W        W18415   9.926  16.179  15.186  0.1339  0.0367  0.1808
 2947W        W18416  12.673   5.409  16.408 -0.0497  0.0619  0.1799
 2948W        W18417  15.555   3.356   1.651  0.4159 -0.3388  0.0523
 2949W        W18418  18.002  13.823  13.089  0.0067 -0.0623 -0.1548
 2950W        W18419  17.149   5.986  11.009 -0.1184 -0.0515  0.1170
 2951W        W18420   0.556   5.269  15.331  0.0825  0.3306  0.1026
 2952W        W18421   0.049  12.793  16.573 -0.0903 -0.1513 -0.0830
 2953W        W18422   0.909   0.106   0.152  0.0911  0.0506 -0.3009
 2954W        W18423   6.539  17.241   1.880  0.0808  0.2317  0.2376
 2955W        W18424  15.667   0.415  15.022 -0.0149  0.3266 -0.0891
 2956W        W18425   2.436  10.542  13.339  0.0592  0.2059 -0.0117
 2957W        W18426  13.567   1.288   0.305  0.0537 -0.2091 -0.3324
 2958W        W18427  14.771  17.243   3.258  0.3409 -0.1549 -0.1195
 2959W        W18428   6.529   1.000   5.074 -0.0844  0.0278 -0.1303
 2960W        W18429   1.183   6.924   3.062 -0.4095  0.1022  0.3464
 2961W        W18430   4.167  15.650   6.081 -0.2743 -0.1136 -0.1346
 2962W        W18431   4.347   2.259  16.506  0.2130 -0.1541  0.0359
 2963W        W18432   6.469  17.126   0.269  0.1286  0.0365  0.1312
 2964W        W18433  12.090  12.614   4.534 -0.3534 -0.0072  0.0702
 2965W        W18434  13.678  14.602  16.454 -0.1500 -0.0642  0.2076
 2966W        W18435   3.779   6.698   5.179  0.3395  0.0346  0.1163
 2967W        W18436  11.327  16.729   4.010 -0.1749 -0.2983  0.1349
 2968W        W18437   5.837  15.471  15.605 -0.2790 -0.0587 -0.0392
 2969W        W18438  10.329  13.853   5.077  0.3648 -0.1489  0.0573
 2970W        W18439   2.326   9.307  15.620  0.0993 -0.0153 -0.1296
 2971W        W18440   3.931   6.525   1.991  0.1279  0.0347  0.0620
 2972W        W18441  14.905   8.189  13.031  0.0917 -0.1807  0.2551
 2973W        W18442   8.361  10.973  16.246 -0.1164  0.0754 -0.1193
 2974W        W18443   2.820  11.814   0.154 -0.3527 -0.2047  0.0096
 2975W        W18444  13.719   5.592  14.128 -0.3040 -0.2893 -0.2310
 2976W        W18445  16.234  15.123  14.800 -0.0966  0.2912 -0.2302
 2977W        W18446  15.704   6.706  15.770 -0.0803 -0.2730 -0.3595
 2978W        W18447   8.205  14.918   0.013 -0.1628  0.0333  0.0362
 2979W        W18448   2.405   6.595  11.782 -0.2988 -0.2469  0.0555
 2980W        W18449   6.868  17.652   1.795  0.3593 -0.4651 -0.0800
 2981W        W18450  11.637  15.903   3.939 -0.1962  0.2189 -0.1430
 2982W        W18451   3.493  12.801  15.127  0.1883  0.2579  0.1361
 2983W        W18452   5.887   7.086  15.584  0.1686  0.3167 -0.1126
 2984W        W18453  17.599  15.753  16.104  0.2593  0.2473  0.3514
 2985W        W18454   2.788   7.083  12.510 -0.2437  0.0233  0.0265
 2986W        W18455  10.516  17.401   3.953  0.2781  0.1228 -0.0347
 2987W        W18456   3.766  14.808   5.213  0.0267  0.1492 -0.2946
 2988W        W18457   4.022   4.552   1.884  0.2025 -0.0670 -0.1049
 2989W        W18458  17.199  14.049   4.820  0.1175  0.1606 -0.1169
 2990W        W18459   6.192   9.503   4.283 -0.1006  0.2125  0.2008
 2991W        W18460   7.283  14.436   3.476 -0.3856  0.0078  0.0244
 2992W        W18461  16.490   0.772  12.416  0.0208  0.0159 -0.0405
 2993W        W18462   4.791   3.611  15.465 -0.0782  0.1359 -0.0652
 2994W        W18463  10.091   9.741  13.668  0.1820  0.2363 -0.0193
 2995W        W18464  13.581   3.542   4.444  0.0448  0.2296 -0.2318
 2996W        W18465   2.759  10.185   3.031 -0.0441 -0.2289  0.0090
 2997W        W18466   4.921  17.844  12.822 -0.3842  0.2120  0.0993
 2998W        W18467  17.997  16.234   5.298 -0.1852 -0.0714 -0.2846
 2999W        W18468  13.210  16.409   0.317  0.0613  0.1269  0.1662
 3000W        W18469   6.127  10.855  12.211 -0.0242  0.3046  0.2128
 3001W        W18470  13.305   5.226   5.304 -0.0831  0.1054 -0.1486
 3002W        W18471  16.474  10.853  16.539  0.3530 -0.2073 -0.2260
 3003W        W18472   2.225  13.362   1.899  0.1747  0.1517  0.0778
 3004W        W18473  14.780   8.471  15.368  0.0054  0.0024 -0.2269
 3005W        W18474   0.741   5.474   2.943  0.2927 -0.0481 -0.1378
 3006W        W18475   0.064  17.939  13.526  0.0263 -0.0353  0.2173
 3007W        W18476   6.487   7.638   5.805 -0.0207  0.2296  0.2717
 3008W        W18477   4.609   6.187  14.570 -0.0152 -0.0701  0.1576
 3009W        W18478  11.153  12.834   1.254  0.2527 -0.1130 -0.1581
 3010W        W18479  15.854  11.394  11.633  0.1120  0.1176  0.1630
 3011W        W18480  11.995   9.141  15.918  0.1926 -0.0969 -0.2977
 3012W        W18481  14.586   6.075  14.917 -0.5677 -0.3343  0.0840
 3013W        W18482   4.750   9.491  12.182  0.0208  0.3679 -0.1591
 3014W        W18483  10.626   0.400   0.435  0.2652 -0.0028  0.3098
 3015W        W18484   4.376  15.663   2.275  0.3604  0.0379  0.1028
 3016W        W18485  12.952   8.931   3.133 -0.2745  0.2696 -0.4603
 3017W        W18486   6.475  11.925  10.684  0.1225  0.0712  0.1311
 3018W        W18487  11.652   3.751   4.474 -0.1915 -0.0237 -0.0326
 3019W        W18488  17.811   4.758   3.033  0.4419 -0.0762 -0.0839
 3020W        W18489   8.298   9.178  16.092 -0.1454 -0.1831 -0.1626
 3021W        W18490   6.797  14.426  15.814  0.1892  0.1567 -0.2099
 3022W        W18491   4.688  17.052   5.823  0.0734 -0.1672 -0.0869
 3023W        W18492  11.053  16.825   0.811 -0.2639  0.0178 -0.0533
 3024W        W18493  11.842  11.820   2.568  0.2388  0.0283  0.0238
 3025W        W18494  11.335  10.718   2.207 -0.1154 -0.1051  0.0687
 3026W        W18495   4.378   3.788  12.512 -0.0336 -0.2456 -0.2285
 3027W        W18496   7.229   9.116  15.196 -0.2114 -0.0632 -0.0500
 3028W        W18497   1.466  11.602   0.457 -0.0112  0.0644 -0.0044
 3029W        W18498   3.747   7.543   2.296  0.3080 -0.3093  0.2560
 3030W        W18499   0.945  14.747   5.332 -0.0329 -0.1177  0.3260
 3031W        W18500   2.418   0.944  11.680 -0.1478  0.0137 -0.0519
 3032W        W18501   5.422   6.254   2.784 -0.1057  0.1433  0.1607
 3033W        W18502  17.400   4.602  14.048 -0.2413 -0.2032  0.1375
 3034W        W18503   6.288   6.814  14.195 -0.0987 -0.0237  0.1170
 3035W        W18504   6.148   4.056   2.949  0.4411 -0.1518 -0.1964
 3036W        W18505  11.902   0.972  15.242 -0.1241 -0.0457 -0.1940
 3037W        W18506   6.672  14.988  16.539 -0.0366 -0.1102 -0.0259
 3038W        W18507   5.284   0.144  11.816  0.0095 -0.0872 -0.1712
 3039W        W18508   8.420  16.606  11.381  0.0111  0.3294 -0.2692
 3040W        W18509   5.303  12.492   2.762 -0.0608 -0.0594 -0.0308
 3041W        W18510   5.084  16.488  14.096  0.3051 -0.0070  0.0377
 3042W        W18511   1.154   2.698   4.588 -0.0956 -0.2087  0.0590
 3043W        W18512  13.856   3.120   1.507  0.0877 -0.3529  0.2199
 3044W        W18513   4.743  13.348   0.751  0.0700  0.0904  0.1083
 3045W        W18514   1.379   3.561   1.411  0.0629 -0.2015 -0.0467
 3046W        W18515   1.592   2.836   2.918  0.0043 -0.0331 -0.0222
 3047W        W18516   3.608   4.274   1.466 -0.1496 -0.0643  0.0639
 3048W        W18517   1.051  13.120   1.374 -0.1730 -0.0597 -0.3551
 3049W        W18518   1.907   5.053  13.485  0.3431 -0.0877 -0.0881
 3050W        W18519   3.024   5.719   2.424 -0.0875 -0.0846  0.2071
 3051W        W18520  13.342  15.316   2.679 -0.0179  0.1824  0.0427
 3052W        W18521   1.998  11.372   2.482 -0.0271 -0.0479  0.0944
 3053W        W18522  15.809   8.601  13.218  0.0498 -0.1721 -0.0461
 3054W        W18523   0.912   6.106  12.414  0.1151 -0.2184  0.2361
 3055W        W18524  11.718  17.283   1.049  0.2962 -0.3675 -0.1756
 3056W        W18525  10.297  17.661   3.193  0.0025 -0.0442  0.0437
 3057W        W18526  15.874  15.874  15.345 -0.1312  0.0764 -0.0405
 3058W        W18527   8.260   0.567  16.211 -0.0034  0.0996  0.3480
 3059W        W18528  13.687  13.874  15.633  0.2067  0.2106 -0.0995
 3060W        W18529   3.955   9.044   4.066 -0.2425 -0.6224 -0.1760
 3061W        W18530  16.078   2.760  13.321  0.0002  0.1123 -0.1420
 3062W        W18531  14.655  15.818   0.207 -0.1036 -0.0332 -0.0544
 3063W        W18532  13.048   7.565   3.622  0.2956 -0.2505  0.0929
 3064W        W18533  11.126  17.757  15.031  0.0617 -0.2917  0.0631
 3065W        W18534   2.774   7.825  15.854 -0.1377  0.0018  0.0768
 3066W        W18535  16.442   9.928  16.590  0.1081  0.0979 -0.2264
 3067W        W18536   1.760  13.252   2.558  0.4473  0.0184 -0.0080
 3068W        W18537   3.865   0.081  15.652 -0.0763 -0.1387 -0.1001
 3069W        W18538  16.111   8.681  16.301  0.1384 -0.3081 -0.2955
 3070W        W18539   7.275  17.753  11.881 -0.1891  0.2253 -0.0900
 3071W        W18540  10.960   6.687  14.607 -0.4180  0.2002 -0.0650
 3072W        W18541   0.902   1.179  12.618 -0.3624 -0.1225  0.1154
 3073W        W18542   8.595   9.938   2.209  0.1724 -0.1309 -0.1571
 3074W        W18543  16.517   8.887   3.148 -0.1854 -0.1841 -0.0250
 3075W        W18544  10.578  14.687   3.755  0.0076  0.0900 -0.4884
 3076W        W18545  15.371  15.166   5.228  0.1467  0.0173 -0.0918
 3077W        W18546  12.368   7.007  15.465  0.0002 -0.5897  0.0579
 3078W        W18547   7.026   9.824  12.225  0.1071 -0.0379  0.1381
 3079W        W18548  14.354  17.449   3.389  0.0655 -0.2222  0.0139
 3080W        W18549   7.116  17.120  12.242 -0.2118  0.2785 -0.1989
 3081W        W18550  13.067  14.920   2.362 -0.1441 -0.0363  0.1991
 3082W        W18551   1.217   0.875  14.412  0.0133 -0.0792  0.1068
 3083W        W18552   8.699   9.927  11.596 -0.0414 -0.1350 -0.0065
 3084W        W18553   0.258  11.025  14.906 -0.0157  0.2703 -0.1490
 3085W        W18554   0.877   3.726  14.324  0.1128 -0.3302  0.0729
 3086W        W18555  11.648  11.871  16.238  0.0447  0.0196  0.3019
 3087W        W18556   1.635  14.191   5.403  0.0855  0.0984 -0.0310
 3088W        W18557   1.990   8.309  11.725 -0.1425  0.0285 -0.2593
 3089W        W18558   2.052   2.085  11.530  0.0095 -0.1337 -0.0656
 3090W        W18559   3.171  15.635  15.184  0.1076  0.4092 -0.0453
 3091W        W18560   9.063   2.482  11.300  0.1937 -0.0633  0.0675
 3092W        W18561   2.745  11.549  16.327  0.0186 -0.3917  0.0040
 3093W        W18562   6.806  16.044   2.290  0.1944  0.0404  0.2537
 3094W        W18563  11.042  16.810   2.525  0.1799  0.0916  0.0092
 3095W        W18564  16.319   3.085   0.970 -0.0009 -0.1527  0.0631
 3096W        W18565   8.963   0.188   1.939  0.0150  0.1261  0.0413
 3097W        W18566  16.422   5.609  16.465  0.3605 -0.3502 -0.1673
 3098W        W18567   3.528   8.839   0.824 -0.1328 -0.4902 -0.3742
 3099W        W18568   8.194  13.642   3.157 -0.0590 -0.0876 -0.1396
 3100W        W18569  11.799   5.949   1.640  0.1272  0.2100  0.2052
 3101W        W18570   4.894   8.350  14.518  0.0811  0.0171  0.0659
 3102W        W18571  14.600   6.318   0.152  0.3963  0.1455  0.0878
 3103W        W18572   3.205  11.853   4.640  0.1592  0.3267  0.0815
 3104W        W18573  14.355  10.936   2.662 -0.0369 -0.1069  0.1611
 3105W        W18574   5.861   7.599  11.324 -0.1638 -0.0782 -0.0194
 3106W        W18575   3.436   3.417  12.694  0.0673  0.1298 -0.0819
 3107W        W18576   3.985   8.055   3.062 -0.2210  0.1112  0.1244
 3108W        W18577  13.876  17.718   2.096 -0.1529  0.3146  0.0864
 3109W        W18578   6.821   1.717   4.236 -0.1094  0.1117  0.1064
 3110W        W18579  12.024   7.774  15.701  0.2772 -0.1297 -0.2200
 3111W        W18580  16.976  12.695  12.086 -0.1272  0.1507 -0.0419
 3112W        W18581   7.183   5.307  12.082 -0.2652 -0.2119  0.1164
 3113W        W18582   7.083   2.363   4.104  0.0574 -0.2448 -0.2421
 3114W        W18583   6.886  15.386  13.596  0.4800  0.2607  0.2209
 3115W        W18584  12.864  17.476  16.597  0.0934 -0.0803 -0.0220
 3116W        W18585   3.428  12.388   4.433  0.0156  0.2795 -0.3840
 3117W        W18586   7.306  17.484   5.790  0.1485  0.1181 -0.0919
 3118W        W18587  16.010   9.953   1.049 -0.0724 -0.1277  0.1373
 3119W        W18588   8.680  15.747  16.273  0.0231 -0.0401  0.1169
 3120W        W18589  10.162   6.240   2.858  0.0297  0.1418 -0.0224
 3121W        W18590   4.913  13.247   4.007 -0.0651 -0.1446 -0.1794
 3122W        W18591   4.166  12.084  14.501 -0.0321 -0.1788  0.0529
 3123W        W18592  10.927  12.866   1.993  0.1988  0.1499  0.0723
 3124W        W18593  17.290   6.127   3.812  0.1405 -0.3223 -0.0981
 3125W        W18594  12.585   6.867   1.465  0.0691  0.2240  0.1390
 3126W        W18595  14.173   0.561  11.996  0.2023  0.1344  0.0786
 3127W        W18596  16.206   8.996  14.439 -0.1153  0.1404  0.0674
 3128W        W18597  17.480  12.896  13.442  0.0553 -0.0666 -0.0912
 3129W        W18598   3.590   2.968   3.938  0.3394  0.0408  0.2813
 3130W        W18599   9.721  10.792   1.632 -0.0461 -0.2093  0.3875
 3131W        W18600   6.789   5.641  14.717 -0.0886  0.2288  0.1519
 3132W        W18601  17.594   1.926  14.504  0.1971  0.0235  0.0041
 3133W        W18602  14.273  17.843   2.686  0.1301 -0.3710  0.2262
 3134W        W18603   5.766  11.786   4.525  0.0436 -0.0991 -0.1553
 3135W        W18604  17.438   3.460   3.535  0.1307 -0.3331 -0.0748
 3136W        W18605   5.298   3.326   2.054  0.0403 -0.0254  0.0163
 3137W        W18606  16.085  16.921   1.284 -0.3227  0.2936  0.0380
 3138W        W18607   5.797  12.419   2.421 -0.0887 -0.1354 -0.3787
 3139W        W18608  13.212  10.821   1.057  0.2639  0.2534 -0.0607
 3140W        W18609  13.362   4.894  11.454  0.0915  0.2330 -0.0563
 3141W        W18610  10.565   0.651  13.063  0.2505  0.0774 -0.2313
 3142W        W18611   5.298   5.780   0.217 -0.0081 -0.2573 -0.0082
 3143W        W18612   1.244   0.242  13.205  0.0211 -0.0137  0.1285
 3144W        W18613   3.214  11.402  16.147 -0.0139 -0.1271  0.1943
 3145W        W18614   4.505   2.674  14.117 -0.1466  0.3870 -0.0077
 3146W        W18615  15.446   4.846   0.303 -0.0043 -0.1207 -0.3239
 3147W        W18616  15.392   4.699  14.902 -0.0111  0.0972 -0.1379
 3148W        W18617   9.456  16.120   0.643 -0.1350 -0.0069  0.3366
 3149W        W18618   4.766   9.436   4.366  0.2458  0.4884 -0.1867
 3150W        W18619   5.318  10.704   2.580 -0.2224  0.5284  0.0991
 3151W        W18620  12.283  10.637  11.960  0.0277  0.1319  0.3679
 3152W        W18621  10.732   3.769  14.999 -0.1445 -0.2819  0.0904
 3153W        W18622  13.837  17.047  15.968 -0.1155 -0.1752  0.0757
 3154W        W18623   1.610  13.907   1.492 -0.0858  0.2837 -0.0503
 3155W        W18624   8.538   7.888  10.953  0.2761 -0.1282  0.1709
 3156W        W18625  11.685   9.862   0.888 -0.1912  0.3054  0.3205
 3157W        W18626  15.147   6.154   1.536  0.2472  0.0215 -0.0258
 3158W        W18627   2.308   1.871   0.768  0.1888  0.1808 -0.0702
 3159W        W18628  13.697  15.950  14.427  0.1382 -0.0495 -0.1690
 3160W        W18629   1.733   7.603   1.865  0.2090  0.0467 -0.6257
 3161W        W18630   3.568   0.462   1.008 -0.0913  0.2851  0.0386
 3162W        W18631  10.554   5.783   4.520  0.0237 -0.0707  0.1439
 3163W        W18632   3.904   4.208  11.702  0.0746 -0.3257 -0.0487
 3164W        W18633  17.573   5.018   1.374  0.2216  0.4700  0.1893
 3165W        W18634  16.132   3.706   1.114  0.0836 -0.0309  0.2197
 3166W        W18635   4.676  14.632   2.501  0.1335  0.1858  0.0842
 3167W        W18636   6.704  16.233  13.580  0.2798 -0.0770  0.4792
 3168W        W18637  17.397  16.178   4.876 -0.1810  0.1076 -0.2791
 3169W        W18638   1.228   9.223  15.531 -0.0817 -0.1856  0.1068
 3170W        W18639   3.619  11.716  11.941  0.0984  0.2873 -0.2258
 3171W        W18640  11.699   7.644  16.035  0.0584  0.0944  0.0563
 3172W        W18641  17.254  17.455  15.930 -0.1378  0.0892  0.0919
 3173W        W18642   5.355   6.134   5.608 -0.2099  0.3678 -0.4338
 3174W        W18643  15.986   7.404   0.960 -0.0883 -0.1503  0.2583
 3175W        W18644  10.341  13.136   0.226  0.1218  0.2274  0.0130
 3176W        W18645  16.591  17.521   3.777  0.0690 -0.1582  0.2462
 3177W        W18646   8.939  12.859   5.963 -0.0025  0.0958 -0.2129
 3178W        W18647   9.045   4.667   2.033 -0.1095 -0.2142  0.0050
 3179W        W18648   4.773   2.547  12.948  0.0706  0.2003 -0.0912
 3180W        W18649  16.441   7.448  11.060 -0.2024  0.0220  0.0679
 3181W        W18650   1.746  14.527  13.196  0.2580 -0.1962 -0.0169
 3182W        W18651  16.413   1.663   0.674  0.1568 -0.5255 -0.2378
 3183W        W18652   5.198  16.545  12.627  0.2902 -0.1609 -0.2352
 3184W        W18653  13.705  11.652  14.190  0.1625 -0.0634 -0.1185
 3185W        W18654  12.697  11.803  11.322  0.0713 -0.2862 -0.1386
 3186W        W18655  13.151   8.118  12.810  0.0220  0.4951 -0.0280
 3187W        W18656  14.857   0.171  13.455  0.0106 -0.0435  0.0024
 3188W        W18657  15.745   0.570   3.710  0.0939 -0.2581 -0.1738
 3189W        W18658  11.440  13.139  15.508  0.0577 -0.2092  0.0846
 3190W        W18659  13.127   0.466   1.703  0.0363 -0.0225 -0.2958
 3191W        W18660   4.542   2.143   4.401 -0.2195 -0.2844 -0.3378
 3192W        W18661   2.016  13.494   5.553 -0.2928  0.2893  0.0008
 3193W        W18662  10.656   1.990  15.540 -0.1130  0.1667  0.1315
 3194W        W18663  11.810   2.609  11.731  0.1194  0.3425 -0.1195
 3195W        W18664   4.384  11.407   4.567 -0.1924  0.2126  0.1258
 3196W        W18665   7.111   1.699  10.967 -0.1719 -0.1389  0.1970
 3197W        W18666  12.944  13.309   1.029  0.2874  0.0190 -0.3091
 3198W        W18667   5.848  15.798   3.339 -0.4314 -0.3046 -0.1952
 3199W        W18668   6.359  17.599   1.580 -0.0339  0.1038 -0.2583
 3200W        W18669  14.461   3.163   4.903  0.2929 -0.0071  0.0347
 3201W        W18670  10.427  13.966   0.067 -0.0262 -0.1215 -0.0612
 3202W        W18671   1.934  10.207   3.603  0.0664 -0.2745  0.0548
 3203W        W18672   0.373  16.942   3.969 -0.0910  0.4069 -0.2752
 3204W        W18673   0.215  17.747  14.923 -0.3376 -0.0413  0.0634
 3205W        W18674   3.145  10.277  12.189  0.0697  0.2125  0.0234
 3206W        W18675   4.774   3.357   0.618 -0.0958  0.2866  0.0900
 3207W        W18676   2.028   8.165  13.963  0.1797  0.1066 -0.1496
 3208W        W18677   0.979   8.646  11.758 -0.1139  0.1602 -0.0873
 3209W        W18678  17.529  11.359   0.102 -0.0347  0.2072  0.1222
 3210W        W18679   8.258   3.183   3.736 -0.1481  0.2286  0.4484
 3211W        W18680  10.871  11.925  15.690  0.1893 -0.1569  0.1479
 3212W        W18681  12.928   3.295  13.501 -0.1476  0.0562 -0.0129
 3213W        W18682   4.558   4.799   4.493  0.1754 -0.1350 -0.1779
 3214W        W18683   2.824  17.094   2.255  0.0258  0.0879 -0.1057
 3215W        W18684   9.197   3.287   3.214  0.1700 -0.3337 -0.1682
 3216W        W18685   9.070   2.884  12.194  0.1850 -0.1332  0.3403
 3217W        W18686   1.811   2.232   0.664  0.0293 -0.0295 -0.0243
 3218W        W18687   1.873  14.595   2.625 -0.1277 -0.1039  0.2216
 3219W        W18688  15.680   6.705  12.045 -0.1116  0.0135  0.1513
 3220W        W18689  14.192  11.893  12.057 -0.6647 -0.0606 -0.0206
 3221W        W18690   1.489  11.149   9.941 -0.1243 -0.0605  0.2236
 3222W        W18691  14.036   1.122  14.835  0.4238 -0.1437  0.0530
 3223W        W18692  12.080  15.792   5.144 -0.1625  0.0820 -0.0575
 3224W        W18693  11.662   2.962  13.103  0.0712  0.1031  0.1272
 3225W        W18694   0.084   3.514  10.828  0.0015 -0.0302 -0.2127
 3226W        W18695   2.605   4.832  14.837 -0.1798  0.0304  0.1009
 3227W        W18696   6.031  13.431  14.657 -0.2526 -0.3431  0.3388
 3228W        W18697   9.104   1.302  15.151  0.1916  0.0358  0.2421
 3229W        W18698   0.034   2.890  13.417 -0.1544  0.0894  0.0229
 3230W        W18699  13.181   6.745  12.694 -0.4160 -0.0794  0.2187
 3231W        W18700   8.224  17.334   0.685 -0.0271 -0.1831 -0.2248
 3232W        W18701  14.948  14.592  13.460  0.1824 -0.0477 -0.0635
 3233W        W18702   9.958   3.738   1.833  0.0493  0.1573  0.3618
 3234W        W18703  13.773   9.191   3.770  0.1635 -0.1027  0.3112
 3235W        W18704   0.097  15.807   0.901 -0.0522 -0.0178 -0.0637
 3236W        W18705  11.087  14.665   1.347  0.0819  0.1458 -0.0175
 3237W        W18706   1.894  16.600  16.254  0.3350 -0.3270  0.2570
 3238W        W18707   2.780   6.027  14.313 -0.0202 -0.1467 -0.0573
 3239W        W18708  14.934   6.749  13.637 -0.2185 -0.1239 -0.1189
 3240W        W18709   3.965  11.234  15.625  0.6404  0.0931 -0.2440
 3241W        W18710  11.791  12.722  16.108 -0.2736 -0.1577  0.0994
 3242W        W18711   9.775   4.009   3.606 -0.0418  0.1604  0.0775
 3243W        W18712   4.393  14.736   2.062 -0.1207  0.0639 -0.0994
 3244W        W18713   5.639   8.441   3.192  0.1951  0.0400  0.1367
 3245W        W18714   9.766   0.504  12.433 -0.0191  0.2255  0.0737
 3246W        W18715   9.468  16.485   6.469 -0.0444  0.0175 -0.2784
 3247W        W18716   3.624  11.209  14.214 -0.2209 -0.2252 -0.2499
 3248W        W18717  14.565   3.739  14.946  0.3618  0.0227  0.3569
 3249W        W18718  10.018  14.192   5.792 -0.0362  0.1343  0.3139
 3250W        W18719  10.794  10.964  15.581 -0.0360  0.1618 -0.0725
 3251W        W18720   3.267  13.504  11.927  0.0771 -0.3720 -0.4434
 3252W        W18721   9.710  13.622   3.847  0.0990  0.1771 -0.2461
 3253W        W18722  14.228  17.803   4.514 -0.2846 -0.0924  0.0903
 3254W        W18723  12.069  14.499   0.212  0.2163 -0.1229 -0.2461
 3255W        W18724  17.799  17.947   6.422  0.2414  0.0742  0.0208
 3256W        W18725  11.334  14.940   5.345 -0.0169 -0.0248 -0.1172
 3257W        W18726  11.132  16.303   2.593  0.0478 -0.0586 -0.1059
 3258W        W18727   6.135  11.592  13.886 -0.0329  0.1411 -0.2236
 3259W        W18728   7.805   3.048  13.046  0.0934  0.0195  0.0696
 3260W        W18729  15.118  17.708   4.689  0.2211  0.3560  0.1816
 3261W        W18730   1.399   6.614  13.550 -0.3911  0.1129  0.4908
 3262W        W18731  14.801   0.455   3.973 -0.1240  0.0558 -0.0473
 3263W        W18732   7.532   4.861   0.459 -0.0428 -0.3738 -0.0266
 3264W        W18733  16.284   4.900  11.125  0.2269 -0.0896  0.0301
 3265W        W18734   0.494  16.466   3.661  0.1550  0.0085 -0.0671
 3266W        W18735   8.228   9.637  10.533 -0.1262 -0.0271 -0.2473
 3267W        W18736  11.662   4.159   5.169  0.0720  0.0366  0.1320
 3268W        W18737  16.582   8.149  12.775  0.0345  0.0614  0.0546
 3269W        W18738   4.133   7.498   3.807 -0.2236  0.2080  0.1889
 3270W        W18739  12.094  16.961   2.052 -0.0148  0.3855  0.1880
 3271W        W18740   4.171   8.699  12.458 -0.1890  0.0523 -0.3687
 3272W        W18741   2.069   5.678   3.317  0.1334  0.2856 -0.1084
 3273W        W18742  12.030  16.489   4.966 -0.1554 -0.2593  0.0474
 3274W        W18743   5.151   1.689  12.370  0.1862 -0.2246  0.1147
 3275W        W18744   7.265   8.686  16.575  0.0881 -0.2749 -0.1551
 3276W        W18745   2.736  11.056  12.325  0.3391  0.0189 -0.0401
 3277W        W18746   0.371  17.112   3.494 -0.1855 -0.0909  0.1590
 3278W        W18747   8.833  14.104  11.571 -0.1687  0.3532 -0.1613
 3279W        W18748   8.337  14.166   2.202 -0.1281 -0.2680 -0.3486
 3280W        W18749  15.029  15.425  12.343 -0.1047  0.2366  0.1912
 3281W        W18750   1.055   0.110   0.624 -0.3257  0.2038 -0.1753
 3282W        W18751  14.460  10.830  13.257 -0.1251 -0.1476 -0.0367
 3283W        W18752   6.573   4.677  14.836 -0.0762 -0.3572 -0.0317
 3284W        W18753  17.656  11.255  12.715 -0.0983  0.0308  0.0445
 3285W        W18754  15.553   0.436  15.520  0.2689 -0.0091  0.1073
 3286W        W18755   8.062   0.573   1.876  0.2628 -0.3559 -0.2162
 3287W        W18756  15.792   1.105  14.318  0.1151 -0.0384 -0.2555
 3288W        W18757  14.353   9.019  15.166  0.2367  0.1245  0.2089
 3289W        W18758  14.347  13.432   2.997  0.1634  0.2005  0.0054
 3290W        W18759   7.822  12.554  15.203  0.1113 -0.4679  0.2214
 3291W        W18760  10.172   4.700  12.125  0.0008 -0.1181  0.1618
 3292W        W18761  14.095   3.383   4.624 -0.0244  0.0082 -0.1581
 3293W        W18762   1.426   3.281  10.082  0.1242  0.0050  0.1905
 3294W        W18763   3.868  12.229   0.615 -0.3683 -0.1224  0.0772
 3295W        W18764   3.579  14.281  13.945  0.0144 -0.0236 -0.0279
 3296W        W18765  13.795  16.496   6.204  0.0777  0.1515 -0.0111
 3297W        W18766   5.573   1.238  13.888 -0.1634  0.0504  0.0590
 3298W        W18767   5.003   1.196  15.395  0.0103  0.0979 -0.1299
 3299W        W18768  11.807  11.024   2.196 -0.0247 -0.0172 -0.0447
 3300W        W18769   1.934   2.810   3.859  0.2847 -0.1361  0.0492
 3301W        W18770   4.192  17.623   5.006  0.2603  0.0576 -0.2272
 3302W        W18771   2.438   7.457  12.536  0.0407  0.0800 -0.0074
 3303W        W18772   6.842   6.480  13.376  0.0053  0.0670  0.0265
 3304W        W18773  17.037   3.632   0.322 -0.0670 -0.2463 -0.0254
 3305W        W18774   2.836   0.384   5.738 -0.1431 -0.0894 -0.1712
 3306W        W18775   9.670  16.250   4.836 -0.3277  0.0779  0.1413
 3307W        W18776   7.572   6.203   2.080 -0.1086 -0.4564 -0.3348
 3308W        W18777  13.330  17.579   2.679 -0.1204  0.3039 -0.0661
 3309W        W18778   0.950   6.747   2.659 -0.0025  0.2555  0.2227
 3310W        W18779   7.651  14.799  10.500 -0.0181  0.0622 -0.0036
 3311W        W18780   5.593  11.516   2.789 -0.1332 -0.1732  0.1684
 3312W        W18781   9.219  14.161   3.865 -0.0983  0.0599  0.0594
 3313W        W18782   1.040   3.221  14.259 -0.1687 -0.0340 -0.2246
 3314W        W18783   4.937  17.384  11.645  0.1648 -0.1933  0.0431
 3315W        W18784   7.703  12.883  15.705 -0.3330  0.0269 -0.1327
 3316W        W18785  15.671  13.514   3.946  0.2080  0.2212  0.0483
 3317W        W18786   7.658  11.760   1.208  0.0450 -0.0507 -0.0735
 3318W        W18787   5.079   7.278   0.149  0.2685  0.0622  0.3965
 3319W        W18788   9.698   7.091   4.883  0.0779 -0.0734 -0.0026
 3320W        W18789   3.368   3.968   3.830 -0.1627  0.0041 -0.1257
 3321W        W18790   4.141  15.443   3.600 -0.0253 -0.0180  0.0158
 3322W        W18791  17.737  10.943   5.907 -0.1146  0.1128 -0.1792
 3323W        W18792   8.100  13.420   0.423  0.1464 -0.0427 -0.0953
 3324W        W18793   7.618   7.853   3.889 -0.1018  0.0097 -0.1861
 3325W        W18794   9.038   8.381   4.872 -0.0926 -0.0447 -0.0422
 3326W        W18795  15.200   9.423   4.049 -0.0294  0.0411  0.2688
 3327W        W18796   9.659  12.289  13.586  0.0879 -0.0247  0.0111
 3328W        W18797  11.161   4.221  11.382  0.1467 -0.1404 -0.0416
 3329W        W18798   4.348   7.340  16.002 -0.0585 -0.0882  0.0244
 3330W        W18799  10.532  12.589  15.861 -0.0194 -0.2605 -0.1131
 3331W        W18800  16.512   2.611  12.356  0.1575 -0.0234  0.1854
 3332W        W18801   9.979  14.487  15.424  0.0990 -0.0914  0.0201
 3333W        W18802   0.803   6.106  10.892 -0.0173 -0.0216  0.0115
 3334W        W18803  12.124  13.585  12.277  0.4636  0.2321 -0.0816
 3335W        W18804  12.264   0.851   2.800 -0.0886 -0.3092  0.0076
 3336W        W18805  13.563   4.743   1.488  0.0809  0.2171  0.2090
 3337W        W18806  13.175   6.510  11.258 -0.1018  0.2745 -0.0270
 3338W        W18807   8.512  13.616   0.978 -0.3793 -0.3447 -0.0589
 3339W        W18808  17.501   8.491  16.177  0.0980  0.0867 -0.0983
 3340W        W18809   2.525   1.120  12.216 -0.2849 -0.0829 -0.3081
 3341W        W18810   1.937   7.094   1.828  0.1368  0.1529  0.2987
 3342W        W18811  17.411  10.677   0.725  0.1005 -0.1915 -0.2606
 3343W        W18812   1.181   1.073  14.888 -0.1161  0.1448  0.2201
 3344W        W18813  12.893   5.119  11.545  0.2304 -0.0722  0.0945
 3345W        W18814  16.507   0.486  15.257 -0.2756  0.0018  0.1391
 3346W        W18815   4.135   6.870  10.318  0.0143 -0.1903 -0.1998
 3347W        W18816  11.473  16.311   4.253  0.1215 -0.0960  0.3629
 3348W        W18817  11.541   4.037  15.372  0.1568 -0.2736  0.1118
 3349W        W18818   9.396  14.395  15.750  0.1731  0.3464  0.2043
 3350W        W18819   6.089   8.391   2.466 -0.0365 -0.2127  0.2101
 3351W        W18820   6.771  16.291  12.660  0.1459  0.0931 -0.0455
 3352W        W18821  15.313   5.001  10.619 -0.3223  0.2261 -0.3211
 3353W        W18822   8.520   0.689   5.213 -0.3522  0.1377 -0.0237
 3354W        W18823  16.770  11.906  12.930  0.1182 -0.0492  0.1980
 3355W        W18824   2.248   4.988   0.627  0.2063  0.2853  0.0971
 3356W        W18825   6.837  14.628   2.078  0.1337  0.3411 -0.0796
 3357W        W18826   4.634  16.725  12.486  0.0493  0.1758  0.0258
 3358W        W18827   8.589  12.077  15.917 -0.0081 -0.3003 -0.2984
 3359W        W18828  17.837   8.196  10.838  0.0278 -0.0863  0.0315
 3360W        W18829  10.376   5.463   2.359  0.2798 -0.0794 -0.2703
 3361W        W18830  10.961  15.312  14.402  0.0700 -0.2043 -0.2577
 3362W        W18831   5.791  14.350   4.343 -0.0202  0.0240 -0.0754
 3363W        W18832   2.573   0.838  14.787  0.1125  0.1037 -0.0567
 3364W        W18833   9.461  10.490  15.631 -0.2480 -0.1223 -0.0061
 3365W        W18834   7.029  17.724   4.874  0.0617 -0.2146 -0.0424
 3366W        W18835   6.579   5.331   5.200 -0.1801 -0.1881 -0.3827
 3367W        W18836   6.869   2.910   1.129  0.1207 -0.1989  0.0748
 3368W        W18837   7.269  13.071  11.439 -0.1159 -0.0356  0.0651
 3369W        W18838  11.875   4.448   0.101 -0.1307  0.1702 -0.1897
 3370W        W18839   1.252  11.463  13.091 -0.2799 -0.0946  0.3981
 3371W        W18840   6.841  14.520  12.207 -0.1058  0.0098 -0.1291
 3372W        W18841   5.165   7.610  11.018 -0.1039 -0.5238 -0.4691
 3373W        W18842  14.275  12.018   0.278  0.3616  0.1404  0.1055
 3374W        W18843   3.316  17.140  13.752  0.2336 -0.1075 -0.1502
 3375W        W18844  11.390   2.903   3.089  0.2987  0.0764 -0.0542
 3376W        W18845   6.360  13.811   0.616 -0.0404  0.0222  0.1850
 3377W        W18846   9.737  15.112   4.682 -0.0447  0.1662 -0.1496
 3378W        W18847  15.546   9.950  11.836  0.0718  0.0669 -0.2000
 3379W        W18848   6.108   0.189  12.965 -0.2002 -0.3165 -0.1546
 3380W        W18849  14.621  16.290  14.423 -0.1249  0.1646 -0.3766
 3381W        W18850   5.482  13.269   2.002 -0.1826 -0.0081  0.1962
 3382W        W18851  10.665  14.536   1.149  0.2158 -0.1559 -0.2671
 3383W        W18852   9.354   1.565   3.060  0.1523 -0.0416 -0.2807
 3384W        W18853   0.859   6.428  13.707 -0.2561 -0.1781 -0.0280
 3385W        W18854   5.909  16.775   2.125  0.1997 -0.0190 -0.0912
 3386W        W18855  13.576  11.979   3.836  0.1130 -0.2311 -0.5199
 3387W        W18856   6.822   7.298   3.259  0.2161 -0.0750 -0.4181
 3388W        W18857  12.771   9.552   4.820 -0.0412  0.1506 -0.0802
 3389W        W18858  15.476  12.157   1.674 -0.2954 -0.1139  0.2635
 3390W        W18859   4.043  14.807  11.684  0.0548  0.1719  0.0528
 3391W        W18860   8.417   8.202   3.693 -0.0606  0.2546  0.1808
 3392W        W18861  11.358   4.537   5.168 -0.0068 -0.1235  0.1311
 3393W        W18862   1.177   9.299   5.898 -0.1113  0.3385  0.3199
 3394W        W18863  11.152  10.084   4.489 -0.0953 -0.3039  0.1127
 3395W        W18864   5.556  13.441   2.575  0.0074  0.3309 -0.0195
 3396W        W18865   5.540  13.546  11.975  0.1340 -0.0498  0.2266
 3397W        W18866   8.721   7.042   1.184 -0.1676  0.2565 -0.0108
 3398W        W18867  13.930  11.805  15.993  0.0877  0.0935  0.0675
 3399W        W18868  17.331  10.880  12.695  0.3534 -0.0818  0.0875
 3400W        W18869   1.942  13.193  12.137  0.1359  0.1093 -0.0631
 3401W        W18870  15.188  17.515  14.339 -0.2101 -0.2857  0.1489
 3402W        W18871   8.612   3.727  12.452 -0.1192  0.0408  0.1576
 3403W        W18872  12.929   2.161   4.717  0.2247  0.0048 -0.0548
 3404W        W18873  14.262   1.854  16.372 -0.0189  0.0772  0.3542
 3405W        W18874  15.169   9.060  11.670 -0.2160  0.0386  0.2235
 3406W        W18875   6.558   5.355   5.976  0.5896 -0.1793 -0.0086
 3407W        W18876   8.675   7.748   0.463  0.1964  0.1335 -0.5502
 3408W        W18877   8.895  15.673   2.218  0.0768  0.1872 -0.1325
 3409W        W18878   2.719  12.233   6.470 -0.0941  0.1332 -0.0010
 3410W        W18879   8.796  11.630   0.904  0.1180  0.1418 -0.0661
 3411W        W18880   7.244   5.338   0.585  0.1927 -0.2137 -0.0163
 3412W        W18881  16.663  10.733   1.806 -0.1386 -0.3089  0.2354
 3413W        W18882   4.191   0.884   3.301 -0.0911  0.0521  0.1040
 3414W        W18883  11.894  16.580  13.926  0.1375 -0.2405  0.2363
 3415W        W18884  11.277  10.474  11.615  0.1026 -0.1394  0.0281
 3416W        W18885  15.150   0.646  15.261 -0.0655 -0.1130  0.0389
 3417W        W18886  17.331  12.742  16.250 -0.2711 -0.0954  0.2171
 3418W        W18887  17.137   3.827  15.687 -0.0370  0.0776  0.0163
 3419W        W18888   4.581   0.249  13.829  0.2151  0.1914  0.0978
 3420W        W18889  17.853   9.750  11.643  0.1190 -0.1184 -0.1992
 3421W        W18890   4.264  17.571   2.701 -0.1127  0.0764 -0.0982
 3422W        W18891   2.546  13.732   3.864 -0.1880 -0.1429  0.2449
 3423W        W18892  11.659   3.862   3.588  0.4094 -0.0391  0.0661
 3424W        W18893  13.925   1.403   2.274 -0.3932 -0.0851  0.0667
 3425W        W18894  15.891  15.733   3.613  0.1377 -0.0004  0.0586
 3426W        W18895   1.738   6.556  15.188 -0.1932 -0.1951  0.1362
 3427W        W18896   6.805   6.904   4.504 -0.1208 -0.1509 -0.5420
 3428W        W18897  12.527  10.274   3.551  0.1545  0.4278  0.3593
 3429W        W18898   5.378  17.772   4.059  0.2322  0.0780 -0.0651
 3430W        W18899   9.379   5.016  15.508  0.1619 -0.0661 -0.0364
 3431W        W18900  14.921  14.673  11.187  0.0323  0.1594 -0.3296
 3432W        W18901  11.624  14.713  11.366 -0.1820 -0.2051  0.1025
 3433W        W18902  17.764   1.976   5.377 -0.0713  0.1841 -0.1605
 3434W        W18903   5.870   5.057   1.387 -0.1105  0.0600 -0.1612
 3435W        W18904  15.185   0.613   5.227  0.2714 -0.2572  0.0265
 3436W        W18905  13.004   7.506   2.757 -0.2058 -0.0114 -0.0139
 3437W        W18906  16.907   8.051   4.907  0.0250 -0.1156  0.0230
 3438W        W18907   0.804  13.970  12.056 -0.1933  0.1125 -0.0983
 3439W        W18908   6.296   9.887  13.222 -0.0009  0.0034  0.1168
 3440W        W18909  17.621  14.940   5.347  0.3793 -0.0253 -0.1519
 3441W        W18910   0.021  11.833   3.410 -0.1131 -0.0264 -0.2058
 3442W        W18911   5.978   9.690  15.597 -0.2696  0.2639 -0.1600
 3443W        W18912   8.227   2.844   3.153 -0.0213  0.3801 -0.0196
 3444W        W18913  12.747  14.479   5.424  0.2226  0.1796 -0.5382
 3445W        W18914   1.121  16.657   0.949 -0.1582  0.2713 -0.1373
 3446W        W18915   6.315   4.395   2.531  0.1308  0.0421 -0.0474
 3447W        W18916   7.705  12.215  12.412  0.0646  0.1988  0.1430
 3448W        W18917  14.874  13.767  13.497  0.0524 -0.0235 -0.2338
 3449W        W18918   8.296   3.174  12.769 -0.1677  0.3971  0.0658
 3450W        W18919  10.788  11.835   5.774  0.0118 -0.1429 -0.2351
 3451W        W18920  11.299   8.799   6.398 -0.0893 -0.1004 -0.1933
 3452W        W18921  17.568  12.628  14.413  0.1258  0.0172 -0.3331
 3453W        W18922   0.793   9.978   2.775 -0.1450  0.0657 -0.0506
 3454W        W18923  12.330  13.727   2.334  0.0947 -0.1024 -0.0155
 3455W        W18924   0.435  12.012  15.841  0.0626 -0.0352  0.1498
 3456W        W18925   8.526  17.568   4.881 -0.0189 -0.0672 -0.0987
 3457W        W18926   8.167   4.961   4.239 -0.0932  0.1100 -0.2953
 3458W        W18927  10.043   9.335  16.585  0.0764 -0.3151  0.0778
 3459W        W18928  10.383   5.448  15.692 -0.2826  0.2013 -0.0413
 3460W        W18929   5.741   3.646   2.100  0.0931 -0.2775  0.0955
 3461W        W18930   0.058   4.984  13.064 -0.0091  0.3487 -0.1219
 3462W        W18931   8.414  15.800   5.526 -0.0425 -0.1297 -0.2732
 3463W        W18932   6.038   0.434   3.570  0.2765 -0.1795  0.3213
 3464W        W18933   7.213   4.765  13.647 -0.1751 -0.0331  0.1455
 3465W        W18934  17.631   1.062  13.240 -0.0092 -0.1430 -0.1472
 3466W        W18935  14.559   7.822  12.787  0.1588 -0.3219  0.0857
 3467W        W18936   2.818  14.342  12.204 -0.1306  0.0465  0.1965
 3468W        W18937   3.012  11.702   1.583 -0.1389  0.0767 -0.0311
 3469W        W18938   7.561  14.599  13.705 -0.1739 -0.1365 -0.0673
 3470W        W18939   9.416   3.345   4.523 -0.0774 -0.0416 -0.0869
 3471W        W18940   1.370  10.293  12.509  0.0363 -0.0504  0.2206
 3472W        W18941  14.702   3.778   2.307 -0.2757 -0.1618 -0.1305
 3473W        W18942  17.952  10.634   5.569  0.3111 -0.0308 -0.0399
 3474W        W18943  14.620  15.075   0.899  0.3969 -0.2401  0.2712
 3475W        W18944   3.894  15.157  16.157 -0.0656 -0.0317 -0.3197
 3476W        W18945  15.918   6.829   2.252 -0.3126  0.2239 -0.1047
 3477W        W18946  13.166  12.842   0.958 -0.3721  0.3436 -0.1975
 3478W        W18947   2.444   7.034  15.265  0.0809  0.0509  0.0506
 3479W        W18948  16.609   4.418   2.234  0.1047 -0.3212 -0.0252
 3480W        W18949   0.631   0.562  13.896  0.4170 -0.3805  0.1788
 3481W        W18950   2.731   4.051   5.046  0.1418  0.0141  0.0409
 3482W        W18951  15.192   4.498  16.037  0.1015  0.3128  0.1718
 3483W        W18952   1.046   6.964  12.791  0.1487  0.2293 -0.0203
 3484W        W18953  10.504   3.188   4.888  0.1921  0.3344 -0.0491
 3485W        W18954   2.099   6.517   4.645  0.0446  0.2450 -0.3656
 3486W        W18955   0.375   0.304  13.562 -0.2235  0.1128  0.1264
 3487W        W18956  11.084  12.989  12.634 -0.0925 -0.2019 -0.3520
 3488W        W18957   8.016   2.182   0.636 -0.1168  0.1489  0.0580
 3489W        W18958   9.034  12.942  15.982 -0.2833  0.2489  0.3138
 3490W        W18959   7.609   8.451  15.622  0.3436 -0.3050 -0.2364
 3491W        W18960  17.360   8.452  14.307 -0.2284 -0.3166  0.0154
 3492W        W18961  16.385   0.890   0.958  0.1623  0.0368 -0.0099
 3493W        W18962   5.428   5.292   2.717 -0.2084 -0.0064 -0.0120
 3494W        W18963  16.295   8.528  14.192 -0.1873 -0.0749  0.3782
 3495W        W18964   6.772   0.318   2.576 -0.1282  0.1611 -0.0620
 3496W        W18965   4.945   2.532   2.729  0.0798  0.0252  0.1831
 3497W        W18966   8.517  10.786   0.779 -0.1126 -0.0645  0.2386
 3498W        W18967   6.324   1.545  15.353  0.0992  0.0480  0.2911
 3499W        W18968  10.051   9.753  11.885  0.1467  0.0980  0.0490
 3500W        W18969   7.448   6.991  11.155 -0.0174 -0.1484 -0.0534
 3501W        W18970   1.374   9.280  12.347 -0.0052  0.2218  0.1073
 3502W        W18971  14.736   9.192  14.228 -0.0263  0.3937 -0.0294
 3503W        W18972   3.880   8.170  14.817  0.2004  0.1254 -0.1207
 3504W        W18973   4.798  16.515   2.212 -0.2795 -0.0546 -0.1566
 3505W        W18974  11.787   2.901   3.395  0.2334 -0.1894  0.0658
 3506W        W18975   3.385   2.767  13.694 -0.3698 -0.2274  0.0825
 3507W        W18976   4.352   6.802   4.484  0.1658 -0.0234  0.1531
 3508W        W18977   3.140  11.714  15.240  0.2281  0.3100 -0.0391
 3509W        W18978   5.824  11.356   1.382 -0.0355  0.1071  0.0019
 3510W        W18979  10.386   0.164   3.145 -0.0078  0.5078 -0.1161
 3511W        W18980   2.896   8.387  16.211 -0.2790  0.3242  0.1905
 3512W        W18981   6.581  15.048   3.437 -0.1337 -0.1736 -0.0880
 3513W        W18982  15.617   4.542   5.450 -0.0753 -0.0059  0.0710
 3514W        W18983   0.354   6.287   4.396 -0.3211  0.2299 -0.3537
 3515W        W18984   5.689   3.968   3.736 -0.0377 -0.1660  0.2343
 3516W        W18985   2.913   7.565   3.726  0.0409  0.3295  0.0213
 3517W        W18986   1.051  12.455  15.550  0.0424  0.0923  0.0628
 3518W        W18987   9.839   5.177  14.435  0.1352 -0.0210  0.0189
 3519W        W18988  13.115   2.807   0.034 -0.1082 -0.0368  0.0230
 3520W        W18989   8.674   0.138   1.199 -0.2594 -0.2401  0.2879
 3521W        W18990  10.339   9.120   3.326  0.0583  0.0746  0.0128
 3522W        W18991  10.922   9.397   1.880  0.0689 -0.1398 -0.3686
 3523W        W18992   1.409  14.163   0.833 -0.2189 -0.0768 -0.2242
 3524W        W18993   0.922  10.638   0.570  0.0689  0.1022 -0.2008
 3525W        W18994  13.967   7.369  13.923 -0.1638 -0.4277  0.1460
 3526W        W18995  16.202  11.397  13.899 -0.0421  0.0337 -0.2744
 3527W        W18996  15.088  16.305  16.373  0.0005  0.2548  0.5845
 3528W        W18997  12.872   1.464  16.453 -0.1003 -0.1181  0.2833
 3529W        W18998  15.736   1.295  15.879  0.0243  0.0525 -0.0370
 3530W        W18999  13.064   8.255  15.160 -0.2697  0.0773 -0.0933
 3531W        W19000   5.292  15.310   4.990 -0.0675  0.0723 -0.1153
 3532W        W19001  17.722  13.547   2.109  0.1050  0.0668  0.2007
 3533W        W19002   6.727   6.092   4.015 -0.1825  0.1655 -0.2122
 3534W        W19003  17.646  10.240  16.173 -0.1484 -0.2771 -0.1888
 3535W        W19004   7.325   4.347  15.949 -0.0483 -0.2270 -0.0235
 3536W        W19005  12.927   2.065  11.915  0.1706  0.3065  0.0611
 3537W        W19006  15.701   6.421   5.722 -0.0300  0.1611  0.3921
 3538W        W19007  12.395   6.025  13.501 -0.0591 -0.0713  0.2199
 3539W        W19008  11.853   4.433  15.248  0.0420 -0.2810  0.0661
 3540W        W19009   5.302   6.315   4.777 -0.1842  0.3062 -0.3660
 3541W        W19010  16.674  17.408  14.530 -0.1674 -0.0306 -0.5396
 3542W        W19011   1.948   0.836   3.341 -0.2542 -0.1376  0.0376
 3543W        W19012   6.872   2.861   0.427 -0.0863  0.0259  0.1496
 3544W        W19013  11.946  10.334   5.350  0.1110  0.0370 -0.2825
 3545W        W19014   6.237   9.114   3.996  0.1458 -0.0330  0.2945
 3546W        W19015   3.563  16.186  12.120 -0.0600 -0.0917  0.1810
 3547W        W19016   3.777   5.030   0.991  0.1270  0.0707  0.0454
 3548W        W19017  14.657   7.241  16.352  0.0670  0.1485 -0.0454
 3549W        W19018   4.377  14.184   1.920  0.1366 -0.0712 -0.1295
 3550W        W19019   5.043   9.644  11.147  0.0013  0.0655  0.3496
 3551W        W19020  12.262  17.213  11.029 -0.1343 -0.0247 -0.1356
 3552W        W19021  10.171   1.651   3.028 -0.0449 -0.0902 -0.0132
 3553W        W19022   1.347  14.727   0.905  0.1841  0.1660  0.0404
 3554W        W19023   8.619  12.241  13.464 -0.2438  0.0765  0.0964
 3555W        W19024   8.185  17.177   4.672 -0.4269 -0.1060 -0.2062
 3556W        W19025  10.220  10.793   2.949 -0.0320  0.0040  0.0929
 3557W        W19026   4.918   1.247  12.520  0.1626  0.2208  0.0833
 3558W        W19027  16.810   9.047   1.372  0.0971  0.0044 -0.0180
 3559W        W19028   9.286  11.923  11.277  0.1753 -0.2000 -0.1665
 3560W        W19029   1.088   6.411  16.421  0.0681 -0.0454 -0.0772
 3561W        W19030   3.369  12.621   1.964 -0.0847 -0.2346 -0.2931
 3562W        W19031   0.952   9.286  12.622 -0.1148  0.0887  0.2820
 3563W        W19032   9.186  14.992   0.991  0.1382 -0.3280 -0.0486
 3564W        W19033  13.642   5.547   2.104  0.0936  0.0715  0.0761
 3565W        W19034   7.570   5.180  12.995  0.1188 -0.2507 -0.2382
 3566W        W19035   1.384  13.319   2.230  0.0469 -0.0327 -0.2300
 3567W        W19036   3.825  10.851  12.198 -0.4642 -0.1769  0.0508
 3568W        W19037  16.169   7.184   5.453 -0.0871 -0.1877 -0.0567
 3569W        W19038   1.265  10.176  15.441  0.2333  0.1536 -0.2316
 3570W        W19039  14.627   2.471   0.152  0.0159 -0.0435  0.0180
 3571W        W19040  18.002   9.696  13.806 -0.3238  0.2806  0.1420
 3572W        W19041  10.378  17.863   3.806 -0.0255  0.2355  0.2918
 3573W        W19042   9.791  13.904   4.812 -0.1135  0.2396  0.1134
 3574W        W19043   6.689   7.846   0.239 -0.2059  0.0411 -0.1319
 3575W        W19044  17.227   4.266  13.177 -0.0379 -0.1915 -0.1313
 3576W        W19045  15.380   7.970  13.138 -0.1947 -0.0935 -0.0144
 3577W        W19046   9.209   9.952   3.518 -0.1866  0.0284  0.0251
 3578W        W19047  10.426  11.755  15.472 -0.0520 -0.2545 -0.0326
 3579W        W19048  14.370  14.080   1.252 -0.0651  0.1045 -0.0232
 3580W        W19049  14.040   6.843  12.126 -0.3024 -0.0057  0.0065
 3581W        W19050   9.078   9.175   5.597  0.0084 -0.1201  0.0330
 3582W        W19051   8.293  10.121  11.844  0.0544  0.1879  0.0027
 3583W        W19052   1.982   9.616  11.820  0.2061 -0.3076 -0.0129
 3584W        W19053  12.560   7.202  11.480 -0.1211  0.3163 -0.0795
 3585W        W19054   9.760   7.014  13.509  0.1357  0.1840 -0.1464
 3586W        W19055  16.598  17.010   3.151 -0.1342  0.1450 -0.3743
 3587W        W19056  16.868   6.353   1.310 -0.1704  0.0509 -0.1583
 3588W        W19057  10.317   0.046  15.658  0.1359  0.1494  0.0087
 3589W        W19058  15.552  17.135   4.950  0.2514  0.0999 -0.1727
 3590W        W19059   7.886  17.045  15.105  0.1536 -0.1202  0.2130
 3591W        W19060  14.360   8.141  11.170  0.3592 -0.1596  0.0473
 3592W        W19061  10.652  12.675   0.156  0.1230 -0.2392 -0.1181
 3593W        W19062  14.365   8.385   4.091  0.1862 -0.0739  0.0878
 3594W        W19063   8.616   4.381  12.130 -0.3323 -0.2623  0.3094
 3595W        W19064   2.429   6.631   1.039 -0.0845 -0.0859 -0.1488
 3596W        W19065  10.331  16.549  12.951  0.0897  0.1161 -0.4120
 3597W        W19066   7.972   1.647  13.600 -0.1380  0.1163  0.1099
 3598W        W19067   8.678   6.722   5.090 -0.0768 -0.0716  0.1291
 3599W        W19068   2.638  15.348  16.476 -0.1136 -0.0338 -0.1797
 3600W        W19069   9.519  11.867   5.427  0.2087  0.0029  0.2934
 3601W        W19070   8.236  10.000  12.401  0.0640  0.0933 -0.1517
 3602W        W19071   3.732   3.731  12.127 -0.0907  0.0092  0.2597
 3603W        W19072   3.198   3.436   3.174 -0.1670  0.1269  0.1349
 3604W        W19073  14.447  15.821  13.156 -0.2777 -0.2095  0.3220
 3605W        W19074  10.394  17.791   0.801 -0.1523 -0.1794  0.0751
 3606W        W19075   9.816   4.192  12.528 -0.0649  0.2318 -0.1792
 3607W        W19076   5.222  16.927  11.578 -0.0955 -0.3142  0.0349
 3608W        W19077   1.220   4.602   4.065 -0.0437  0.2681  0.0987
 3609W        W19078   6.952   3.058   3.619  0.1835 -0.1236 -0.0997
 3610W        W19079  15.994  10.992   1.106 -0.2944 -0.0577 -0.0659
 3611W        W19080  12.226   5.867   1.343 -0.2542 -0.1429 -0.0089
 3612W        W19081   6.722   5.625   3.753 -0.0297  0.2525  0.2409
 3613W        W19082   0.148   1.938  12.792 -0.2443  0.1004 -0.1487
 3614W        W19083  16.071   5.625   4.272 -0.1600  0.0058 -0.2309
 3615W        W19084  10.322   9.704   4.433 -0.0983 -0.2578  0.0515
 3616W        W19085  13.692   3.160  16.309  0.1035 -0.2207  0.1267
 3617W        W19086  16.312   7.073  12.550 -0.1139 -0.2466  0.1019
 3618W        W19087  16.333  11.986   1.697 -0.0397  0.0026 -0.2035
 3619W        W19088   3.098  11.361  12.350 -0.1101  0.0427 -0.0930
 3620W        W19089  17.007   0.183   5.563 -0.4397  0.0000  0.0482
 3621W        W19090  17.877  11.625   2.787 -0.1822  0.0924  0.1531
 3622W        W19091  12.614   2.674  15.482 -0.0028 -0.3523  0.1576
 3623W        W19092  10.468  10.305  12.147 -0.0433  0.1378  0.0874
 3624W        W19093  11.633   2.068  13.114 -0.0383 -0.3466 -0.0298
 3625W        W19094   8.140  11.674   1.583 -0.0106  0.0449  0.1025
 3626W        W19095  13.821   1.985  15.214 -0.2405 -0.1373 -0.1758
 3627W        W19096   0.210   5.710   1.616  0.2534 -0.1904 -0.0098
 3628W        W19097   2.729  15.858   1.094  0.1812  0.1293  0.0216
 3629W        W19098  16.693  10.312   4.167  0.0583  0.0732 -0.2053
 3630W        W19099   1.552   2.015  16.315 -0.2340  0.0561 -0.0243
 3631W        W19100  13.367  11.416  11.538  0.1398  0.1523 -0.1007
 3632W        W19101   2.224   7.516  15.266  0.0171  0.1967 -0.1126
 3633W        W19102  16.422  14.134   6.459 -0.0020  0.3473  0.0639
 3634W        W19103  11.857  16.226   0.929 -0.0486  0.0465  0.4214
 3635W        W19104   3.395   4.027   4.425  0.0724  0.0017  0.2685
 3636W        W19105   4.502  11.790   5.801  0.0342  0.3808  0.0859
 3637W        W19106   1.633   2.372   1.910  0.2974  0.1488 -0.0782
 3638W        W19107   8.239   4.068   2.114  0.0982  0.1275 -0.2878
 3639W        W19108   3.704  15.161   3.885 -0.1579 -0.1824  0.0352
 3640W        W19109  16.799   8.562  13.413  0.0066  0.4769  0.2920
 3641W        W19110  15.255  17.224   0.881 -0.3233 -0.2857 -0.2806
 3642W        W19111   3.856  14.930  14.278 -0.4724 -0.0361 -0.0865
 3643W        W19112   6.966   6.685   4.951  0.5465 -0.1328 -0.1543
 3644W        W19113   6.943   7.832   0.637 -0.3297 -0.1647 -0.0166
 3645W        W19114  15.394   1.444  14.220  0.2231  0.0586 -0.0692
 3646W        W19115   2.601   2.710   4.425 -0.1101  0.0261 -0.3093
 3647W        W19116   2.847  10.981  14.804  0.2403 -0.3061 -0.1827
 3648W        W19117   4.126   9.156  16.346  0.1392  0.0957  0.1582
 3649W        W19118   5.510   2.283  14.063 -0.1205 -0.0864  0.1609
 3650W        W19119   9.851   9.142  13.094 -0.1896 -0.0965  0.1467
 3651W        W19120  12.700   1.499  14.427 -0.1145  0.0808  0.2801
 3652W        W19121   3.429  12.670   2.754  0.1595 -0.0681 -0.1769
 3653W        W19122   0.505  16.545   5.151 -0.0336 -0.2206 -0.3607
 3654W        W19123   6.107   6.949   5.065  0.0165  0.1529 -0.1386
 3655W        W19124  15.215  12.879  12.555  0.4210 -0.0806  0.0055
 3656W        W19125  13.391  10.261  14.100  0.1690 -0.2136  0.0290
 3657W        W19126   9.486  11.921   2.460 -0.1849  0.0347 -0.1947
 3658W        W19127   6.570  14.054   6.509  0.0483  0.0676  0.0154
 3659W        W19128  17.787  10.180  12.852 -0.1975 -0.0708  0.1879
 3660W        W19129   6.155   5.065   6.102  0.0316  0.1975 -0.1452
 3661W        W19130  15.220  12.232  16.331  0.2902 -0.1612 -0.2980
 3662W        W19131   0.425  17.918   5.622 -0.0254 -0.0804 -0.0643
 3663W        W19132  16.046  17.423   1.743  0.2964  0.0563 -0.0987
 3664W        W19133  16.288   5.542   9.907  0.3570 -0.1026 -0.0409
 3665W        W19134  14.242   1.331   2.701 -0.1012 -0.0614  0.0700
 3666W        W19135   5.964   5.585  11.830  0.0376  0.0066 -0.0023
 3667W        W19136   3.508  15.715   0.147  0.1552 -0.3172 -0.1952
 3668W        W19137   5.332  15.905   3.337 -0.1325  0.2854  0.0928
 3669W        W19138   6.035   4.804  13.225 -0.2006  0.0546  0.4647
 3670W        W19139   0.600  14.022  15.602  0.5855 -0.0400 -0.1600
 3671W        W19140  17.090   6.593   3.937 -0.0744  0.1022  0.0676
 3672W        W19141   4.020   0.867   2.316  0.0678  0.1602  0.2776
 3673W        W19142   8.394  15.999   0.103  0.3839  0.3221  0.0917
 3674W        W19143   5.411   8.164   1.492 -0.1562 -0.0184  0.0272
 3675W        W19144   2.542  11.769   1.812 -0.2255  0.0280 -0.0377
 3676W        W19145  14.964  16.076   5.023 -0.6439 -0.1194 -0.1717
 3677W        W19146   5.232   7.633  12.515 -0.2417  0.0207 -0.0716
 3678W        W19147  14.958  12.010  11.803  0.2016  0.1425  0.2245
 3679W        W19148  17.149   3.248   0.629  0.2955 -0.4871 -0.0924
 3680W        W19149  14.904   9.008  15.271  0.1567 -0.1797  0.0632
 3681W        W19150  12.392  13.793   1.782  0.0719 -0.1177  0.4121
 3682W        W19151  10.598   9.326  16.350 -0.1738 -0.3478 -0.0678
 3683W        W19152   6.945   6.577   4.084 -0.0433  0.1574 -0.1874
 3684W        W19153   7.408   3.203   3.737  0.2400 -0.0100  0.0012
 3685W        W19154   7.234   1.456  13.179  0.0442 -0.3254 -0.0660
 3686W        W19155   4.419   6.951   1.961 -0.1258  0.1452 -0.0888
 3687W        W19156  10.945  10.982  12.573 -0.0620 -0.0838 -0.0521
 3688W        W19157   7.405   6.338   3.946  0.1453 -0.1802  0.0722
 3689W        W19158  15.053   7.027   4.215  0.0784  0.0189 -0.0731
 3690W        W19159   7.964  17.459   5.082  0.0649 -0.1883 -0.3006
 3691W        W19160   6.197  15.685   5.003  0.0061  0.1863 -0.0505
 3692W        W19161  16.936   8.335  11.174 -0.1069 -0.1418  0.1892
 3693W        W19162   6.682   4.442   1.424 -0.0306 -0.0173  0.0173
 3694W        W19163   1.388  10.744  13.490  0.2120 -0.0960 -0.2303
 3695W        W19164   7.875   4.664  15.389  0.1123 -0.2681 -0.2136
 3696W        W19165   6.562   7.044   4.923  0.3760 -0.1947 -0.0466
 3697W        W19166   3.255  10.443   3.000  0.0086  0.0006 -0.1120
 3698W        W19167   5.838  13.333  12.505 -0.0991  0.2268  0.2845
 3699W        W19168  11.714   9.063  10.879  0.0092 -0.5422  0.3792
 3700W        W19169   9.444  14.571  11.175  0.1542  0.0513 -0.1461
 3701W        W19170   3.863   0.669   2.757 -0.0054  0.2258  0.0049
 3702W        W19171  17.186   0.824   4.760 -0.1481 -0.1099  0.0711
 3703W        W19172   4.270  17.844  13.486  0.3200  0.2003 -0.4583
 3704W        W19173  13.279   6.679   5.596 -0.1012 -0.0843  0.3470
 3705W        W19174   2.036  10.663   3.273  0.3760 -0.0416  0.0669
 3706W        W19175   9.028  13.780   4.639  0.0638 -0.1035 -0.0880
 3707W        W19176   4.489   1.279  11.822  0.0080 -0.1649 -0.4408
 3708W        W19177  14.939  11.278  12.499  0.2144 -0.0393 -0.3238
 3709W        W19178  16.186  14.263   0.607 -0.1778  0.0272 -0.5707
 3710W        W19179   0.110   0.907  11.956  0.0333  0.0256 -0.0227
 3711W        W19180   3.141   2.114   1.476 -0.1612 -0.0302 -0.1393
 3712W        W19181   7.635  15.116   4.790 -0.2544 -0.1700  0.1921
 3713W        W19182  10.404   1.923  16.512  0.3380  0.0125  0.1073
 3714W        W19183  12.531  15.862   1.808 -0.2856 -0.2228 -0.2383
 3715W        W19184   0.452  10.977   2.387  0.1049 -0.1747  0.2260
 3716W        W19185  15.871  13.214  11.523  0.0330  0.0268  0.0340
 3717W        W19186  15.628  12.698   6.011  0.1598  0.1792  0.2609
 3718W        W19187  12.977   5.002   1.255 -0.1426  0.1621 -0.1407
 3719W        W19188   5.387  15.945  12.516 -0.1731 -0.1128  0.1299
 3720W        W19189   7.069   7.568  14.178  0.0980 -0.1121 -0.1103
 3721W        W19190  11.210  12.042  13.619  0.1564  0.0110 -0.1226
 3722W        W19191  11.306   3.720   2.166  0.2358 -0.0390  0.0490
 3723W        W19192  11.273   8.146   1.577  0.2788  0.0411 -0.2980
 3724W        W19193  17.745   9.398   2.636  0.1109  0.0247 -0.0802
 3725W        W19194   0.582   7.220  14.892  0.0518 -0.1842 -0.0391
 3726W        W19195   6.460  14.066  12.950  0.0113  0.1611  0.0071
 3727W        W19196   5.547   8.368   2.463  0.0256 -0.0393 -0.1349
 3728W        W19197   8.631  12.686  16.158  0.0601  0.0303 -0.0238
 3729W        W19198  13.085   1.944   3.675 -0.1681  0.1955 -0.1990
 3730W        W19199   1.064   7.155   2.349  0.0447 -0.2239 -0.2189
 3731W        W19200  14.528   9.525   4.949 -0.1567  0.0803 -0.3680
 3732W        W19201   9.108  15.642   3.153  0.0642 -0.2556  0.3483
 3733W        W19202   2.569  13.201  13.024  0.0254  0.0388  0.0535
 3734W        W19203   5.575  10.236  14.793 -0.0559 -0.0925 -0.1337
 3735W        W19204  11.073   3.643   4.617 -0.0331  0.1271 -0.2023
 3736W        W19205  17.462   3.731  13.519 -0.0803  0.1117  0.0341
 3737W        W19206   7.645  13.388   5.471  0.0998  0.0034 -0.0029
 3738W        W19207   1.564   8.228  12.057  0.2176 -0.4555 -0.2792
 3739W        W19208  15.798  12.132  14.948 -0.1673  0.3635  0.0274
 3740W        W19209  14.072   2.045   1.705  0.0467 -0.2755  0.2125
 3741W        W19210  14.316   3.460   2.405  0.0640 -0.1183  0.0881
 3742W        W19211  14.309  16.793  12.605 -0.0499  0.2549 -0.0442
 3743W        W19212   0.120   9.345  13.312  0.0501  0.0876  0.1072
 3744W        W19213   0.408   9.393   4.804  0.0441 -0.0270 -0.1899
 3745W        W19214   7.662   8.244   5.343  0.2369 -0.1572 -0.0308
 3746W        W19215   5.464  15.079  11.890 -0.1003 -0.2252 -0.0591
 3747W        W19216  11.999  13.878   2.759 -0.1601 -0.2980 -0.2606
 3748W        W19217  11.399   4.224  15.849 -0.0539 -0.1694 -0.2475
 3749W        W19218  16.217   6.620   3.655  0.0509  0.1823 -0.1503
 3750W        W19219  12.114  17.588  15.114  0.2322 -0.0414  0.0438
 3751W        W19220  13.110  16.906  12.012 -0.1576  0.2318 -0.1108
 3752W        W19221   8.185  15.481  15.141  0.0516  0.0698  0.0180
 3753W        W19222   6.574   4.902  13.132 -0.0287 -0.1284 -0.0331
 3754W        W19223  15.572   1.597  15.562 -0.5596 -0.2084  0.1840
 3755W        W19224  17.302  16.190  15.992  0.2130  0.0282  0.1462
 3756W        W19225   6.362   4.654  14.239  0.1226  0.1727  0.2856
 3757W        W19226   4.747  12.796  15.287  0.2403  0.0686  0.1833
 3758W        W19227  11.781   9.929   2.157 -0.0141  0.1356  0.4959
 3759W        W19228   2.709   2.229   4.113  0.1097  0.0661  0.0256
 3760W        W19229   8.178  10.262   1.390 -0.0619  0.1239 -0.1436
 3761W        W19230   5.327   4.166  15.727  0.2437  0.0918  0.0698
 3762W        W19231  15.115   1.376   0.366 -0.1167 -0.1228 -0.1138
 3763W        W19232   8.085  14.409  12.292 -0.2043  0.0370 -0.0557
 3764W        W19233  12.137   5.324  12.673  0.1638 -0.1259  0.3343
 3765W        W19234  15.001  15.845  15.230  0.1175  0.1580  0.1723
 3766W        W19235  15.184   0.226  15.011  0.2460 -0.3122 -0.0952
 3767W        W19236  11.638   3.096   1.176 -0.4014 -0.3303 -0.0393
 3768W        W19237  17.564   5.102  14.082 -0.0183  0.2278  0.3509
 3769W        W19238   2.943   3.330  14.055  0.1859 -0.2435  0.0102
 3770W        W19239  11.919  16.063  13.918  0.0408  0.1349 -0.0984
 3771W        W19240   9.514  11.637  12.167 -0.3005 -0.1831 -0.2105
 3772W        W19241  13.845   7.922  11.115  0.4824 -0.0548  0.2336
 3773W        W19242   1.323   5.930   3.607  0.1752  0.0756 -0.3631
 3774W        W19243  11.645  10.053   3.555  0.2480 -0.1606 -0.0753
 3775W        W19244   0.201   1.244   3.167 -0.4405 -0.0895 -0.0653
 3776W        W19245   2.330   8.567  13.500  0.1656  0.3371  0.0948
 3777W        W19246  10.361   4.626  11.572  0.0351  0.0513  0.1403
 3778W        W19247  10.866  16.331   5.826  0.0762  0.3209 -0.1738
 3779W        W19248   0.383  15.214  12.415 -0.1605 -0.0176 -0.1186
 3780W        W19249   9.287  14.478   1.995 -0.1210 -0.0460 -0.3558
 3781W        W19250  11.841  13.613  16.273  0.1636 -0.1908 -0.2072
 3782W        W19251  16.560   0.010  15.129 -0.1782 -0.1224 -0.1068
 3783W        W19252   3.531   2.672   5.341 -0.2088  0.0258 -0.0149
 3784W        W19253   5.532  12.038  13.289 -0.2086 -0.0225  0.0676
 3785W        W19254   6.296   0.564   3.125  0.0386  0.0662 -0.3934
 3786W        W19255  14.030   9.871  11.142  0.1067 -0.0249  0.0353
 3787W        W19256  17.990  17.287  16.275  0.0199 -0.0277 -0.0904
 3788W        W19257  17.980   2.194   0.438 -0.1616  0.1179  0.0047
 3789W        W19258   0.085  13.400   5.276 -0.0296  0.0338 -0.2247
 3790W        W19259   6.336   4.027  15.553  0.1286 -0.0308 -0.1718
 3791W        W19260   8.486   5.312   3.830 -0.1477 -0.0790 -0.0766
 3792W        W19261  14.771   2.009  12.501  0.0757 -0.0007 -0.1191
 3793W        W19262   3.062  11.195  12.850  0.1701  0.2539  0.2526
 3794W        W19263  16.723   8.995   3.703  0.4064  0.0148  0.3131
 3795W        W19264   6.275   9.475   0.410 -0.1314  0.1796 -0.0347
 3796W        W19265   8.953   4.244   2.337  0.1608 -0.1548  0.1425
 3797W        W19266   0.195  10.945  10.719  0.0247  0.0723  0.1404
 3798W        W19267   9.784  13.796   4.313 -0.1851  0.2175  0.1504
 3799W        W19268  12.715   7.019  14.340 -0.1317 -0.0103 -0.0739
 3800W        W19269  15.256   9.902  13.798 -0.0549 -0.3192 -0.1737
 3801W        W19270  14.772   5.020  12.838  0.2417 -0.0440  0.0947
 3802W        W19271   4.258   6.200   1.098  0.2291  0.1172 -0.0493
 3803W        W19272  14.973   3.532  15.807  0.6646 -0.1033 -0.0013
 3804W        W19273   1.504  10.003   3.347 -0.2295  0.0025  0.2265
 3805W        W19274  12.087   9.591   4.600 -0.1223 -0.1657  0.0043
 3806W        W19275   5.082   4.091   5.175  0.2218 -0.2357  0.0252
 3807W        W19276   4.840   0.702   2.020 -0.2570 -0.1633 -0.0058
 3808W        W19277  16.646  16.101   3.546 -0.3140 -0.0827  0.2409
 3809W        W19278  15.459   7.019   1.340 -0.1019 -0.2366 -0.4397
 3810W        W19279  15.669   2.522  15.075 -0.2567  0.2271 -0.4982
 3811W        W19280   6.583   4.848   0.173 -0.0418 -0.1986 -0.0840
 3812W        W19281   0.020  12.123  13.419 -0.2812  0.2472  0.0927
 3813W        W19282  14.952   8.089  13.524  0.0252 -0.0564  0.2813
 3814W        W19283  13.194   8.084   0.386 -0.1079 -0.1408 -0.0631
 3815W        W19284   0.753   2.187   4.965 -0.6739 -0.0011  0.0082
 3816W        W19285  14.715  13.698   0.989 -0.1316 -0.1758  0.1139
 3817W        W19286  16.415  12.595   0.571 -0.1495  0.3951  0.3464
 3818W        W19287   3.809   0.055   4.830 -0.1166 -0.1446  0.1640
 3819W        W19288   3.422  15.623   1.992  0.2230  0.2355 -0.0989
 3820W        W19289   6.511   4.440  15.262 -0.0125  0.0688  0.3010
 3821W        W19290   5.374   7.023  13.639 -0.2813 -0.1591  0.0045
 3822W        W19291   2.828  16.628   3.192  0.3052 -0.1996 -0.0346
 3823W        W19292   0.663   7.148  13.094 -0.1324 -0.0334  0.0114
 3824W        W19293   3.924   0.104  12.041  0.3867 -0.0870  0.0297
 3825W        W19294   6.097  11.624   4.183 -0.0039 -0.2495 -0.1833
 3826W        W19295   5.964  11.224  14.780 -0.3404  0.1352 -0.1212
 3827W        W19296   1.835  14.792   3.550  0.1160 -0.1980  0.0514
 3828W        W19297  10.822   9.222   4.624 -0.1200  0.1139  0.0251
 3829W        W19298  17.209  10.450  11.726  0.1116 -0.5118 -0.0050
 3830W        W19299   3.687   0.534  15.414  0.1651  0.2179 -0.0784
 3831W        W19300   5.895  14.093  13.131 -0.0222  0.2452 -0.2206
 3832W        W19301   9.025   7.050   3.001 -0.0942 -0.1099 -0.0568
 3833W        W19302  12.273  17.283   0.884 -0.1483  0.2229 -0.1880
 3834W        W19303   2.323  14.134   4.183 -0.0518 -0.0820  0.3029
 3835W        W19304  13.795   3.687   5.946  0.3220  0.1514 -0.0598
 3836W        W19305  10.211   0.512   5.302  0.0040 -0.1400 -0.0442
 3837W        W19306  17.407  13.421  16.131  0.1369  0.1830 -0.2272
 3838W        W19307  12.452   8.830  12.487  0.0602 -0.1212 -0.0348
 3839W        W19308   3.785  17.724   2.876  0.0078 -0.0754  0.0771
 3840W        W19309  14.145   6.613   3.354 -0.0683 -0.0872  0.2612
 3841W        W19310   6.134   4.953   2.237 -0.0949  0.2473  0.0721
 3842W        W19311  13.015   9.991   6.230  0.1454  0.0059 -0.0329
 3843W        W19312  15.820   9.634  11.574 -0.1956  0.0149  0.0154
 3844W        W19313   6.351  16.345  16.511 -0.0730 -0.1441  0.0947
 3845W        W19314   7.786  11.234  10.869 -0.1989  0.0178  0.0645
 3846W        W19315   4.030   9.292  15.775  0.1326 -0.2315 -0.0976
 3847W        W19316  16.972   4.259   1.391 -0.0080 -0.1239 -0.0204
 3848W        W19317  14.507  17.885   3.117 -0.0967  0.4672  0.4458
 3849W        W19318   4.233   3.992  13.397 -0.0221 -0.2005 -0.0718
 3850W        W19319  14.975  15.815   1.325  0.0767 -0.2567 -0.0149
 3851W        W19320   8.545  16.387   3.111  0.0632  0.2271 -0.3424
 3852W        W19321   6.630   9.310   5.150 -0.0289  0.0498  0.1454
 3853W        W19322  10.277   2.110  15.249  0.1981 -0.1976 -0.3101
 3854W        W19323   6.814  15.541  11.520 -0.1109  0.1583  0.1908
 3855W        W19324   0.748  16.368   6.360  0.2557  0.0758  0.0616
 3856W        W19325   0.443   4.552   2.512 -0.1093  0.0132 -0.0918
 3857W        W19326   9.288   2.057   1.820 -0.0441  0.1897 -0.2798
 3858W        W19327  15.483  15.506   4.056 -0.2258  0.3722  0.2015
 3859W        W19328  12.779   6.889   4.007  0.1179  0.0888  0.0599
 3860W        W19329   1.246  12.437   0.213 -0.1659 -0.0430 -0.3263
 3861W        W19330   2.227  13.079   2.903  0.2687  0.1553  0.1202
 3862W        W19331  13.404  16.528  12.816  0.2041 -0.1088 -0.1528
 3863W        W19332   0.893   8.830  14.440  0.2076 -0.1829  0.1012
 3864W        W19333   2.135  16.425   5.105 -0.1020  0.4592 -0.3967
 3865W        W19334   9.548   8.454  15.680 -0.2172 -0.1116 -0.1157
 3866W        W19335   8.429  13.563  13.221  0.0871 -0.0960  0.2484
 3867W        W19336   8.197   0.610   3.043 -0.0331  0.1443 -0.2998
 3868W        W19337   6.176   5.390   0.465  0.0177 -0.1590 -0.1359
 3869W        W19338   4.758  16.062   3.426 -0.0181 -0.1427  0.0351
 3870W        W19339  15.157   9.599  16.440 -0.0065  0.3010 -0.2392
 3871W        W19340   1.040   9.151   1.630 -0.1472  0.4118 -0.1243
 3872W        W19341  17.937   6.374   4.136  0.3220 -0.1527 -0.0438
 3873W        W19342   2.401   8.811  12.962 -0.1725  0.3182  0.1016
 3874W        W19343   6.620  15.767  13.460 -0.2102  0.0964 -0.0336
 3875W        W19344   7.267   4.762   4.764  0.0510 -0.3785 -0.1162
 3876W        W19345  11.573  13.405  11.581  0.1972 -0.0066  0.1441
 3877W        W19346  11.263   4.764  14.194  0.0428  0.0761 -0.0430
 3878W        W19347   4.056  11.252   3.800 -0.1119  0.2576  0.2248
 3879W        W19348  17.576   2.274   1.960  0.1396  0.1287 -0.1088
 3880W        W19349  14.235  11.569  13.974 -0.0846  0.0697 -0.4391
 3881W        W19350   5.438  16.442  15.480  0.0547 -0.0034 -0.0112
 3882W        W19351   3.722   3.160   0.047 -0.2213  0.0506  0.0424
 3883W        W19352  13.466   5.221  14.661  0.0162 -0.3780 -0.1235
 3884W        W19353  16.250  17.344   3.278 -0.0344  0.0814 -0.2101
 3885W        W19354   0.076  10.693   2.178 -0.0597  0.0129  0.0452
 3886W        W19355  12.296   9.244   0.809 -0.2678 -0.1611 -0.2412
 3887W        W19356   9.334  12.448   1.036  0.3248 -0.1256 -0.2445
 3888W        W19357   7.884  16.158   4.253  0.0707  0.1277 -0.0973
 3889W        W19358   5.404  10.627  13.777  0.2250  0.0667  0.2552
 3890W        W19359   8.586  14.297  12.028  0.0693 -0.0562  0.0833
 3891W        W19360  16.078  11.046   0.199  0.0023  0.1057  0.0285
 3892W        W19361   5.716   9.935  15.173 -0.2540  0.1387 -0.0785
 3893W        W19362  14.662   5.197   3.011  0.1186 -0.1927 -0.0016
 3894W        W19363   9.551   6.905  16.152 -0.1056 -0.1735  0.2177
 3895W        W19364   8.618   4.708   2.966  0.0741 -0.0235  0.0718
 3896W        W19365  16.160   8.603  11.798 -0.1346 -0.2889 -0.1972
 3897W        W19366  14.874   8.401   4.067 -0.3230  0.0556  0.1530
 3898W        W19367  16.664   1.121  13.699 -0.1352 -0.1151  0.3145
 3899W        W19368  11.680  12.583   1.369 -0.0321  0.2812 -0.3853
 3900W        W19369   3.070  12.337   4.768  0.1371 -0.0595 -0.2238
 3901W        W19370  13.611  13.892  13.445 -0.0735 -0.0768  0.1100
 3902W        W19371  14.530   7.742   2.128 -0.3339 -0.1492  0.3437
 3903W        W19372   3.351  16.979   4.056 -0.0039  0.1475 -0.0174
 3904W        W19373  17.813  12.844  12.279 -0.3922 -0.1681 -0.1165
 3905W        W19374  12.929   4.039   5.371  0.0749 -0.0501 -0.1514
 3906W        W19375  10.378  14.176   5.446  0.2021  0.2556  0.1113
 3907W        W19376   9.513   3.644   1.494  0.1728  0.0091 -0.3051
 3908W        W19377  17.641  10.954  12.241  0.1803  0.1860 -0.0961
 3909W        W19378  17.836  11.357   1.405 -0.1257  0.1033 -0.2915
 3910W        W19379  13.928  10.132  15.862 -0.2491  0.1032  0.0916
 3911W        W19380  15.817  15.325  15.939 -0.0373  0.1234 -0.1391
 3912W        W19381   5.469   5.576  16.341  0.1930 -0.2422  0.0531
 3913W        W19382   1.067   4.994   5.840 -0.1448 -0.3414 -0.0864
 3914W        W19383  11.342   9.297  14.899 -0.1087  0.2203  0.0203
 3915W        W19384  10.549  16.821   5.936 -0.0954 -0.3472 -0.0085
 3916W        W19385   7.910   6.871  12.358  0.0574  0.0498 -0.3642
 3917W        W19386  10.106  12.526   4.054  0.2142  0.2096 -0.0228
 3918W        W19387  13.757   2.975  12.465 -0.0001  0.0839  0.1060
 3919W        W19388  12.260  13.258  15.379  0.0029 -0.0467 -0.1738
 3920W        W19389   4.675  15.123   1.617  0.4484  0.1611 -0.1509
 3921W        W19390  13.224  15.153  13.198  0.1698 -0.0842 -0.0322
 3922W        W19391  17.056   9.300   1.016  0.5042 -0.1008 -0.1523
 3923W        W19392   0.987   0.570  13.543  0.2279 -0.1085  0.0273
 3924W        W19393   9.034   3.784  15.515 -0.1475 -0.1073  0.3224
 3925W        W19394  10.709  15.807  14.245 -0.0703 -0.2712 -0.2081
 3926W        W19395   1.592   7.133  13.417  0.2920 -0.1225  0.1251
 3927W        W19396  13.415   7.314  12.016  0.3303 -0.1363  0.2188
 3928W        W19397  16.688  11.787  11.231  0.0521  0.1450 -0.2328
 3929W        W19398   4.014   2.455  11.795 -0.1375 -0.0825  0.0816
 3930W        W19399   1.398   3.251  12.631 -0.2665  0.4224 -0.1647
 3931W        W19400  12.201   0.448   5.118 -0.1763  0.0106 -0.3101
 3932W        W19401   7.121  16.458   0.948 -0.2051  0.2140 -0.0240
 3933W        W19402   3.469   2.779  11.495 -0.2169 -0.0915 -0.2409
 3934W        W19403   2.944   1.635   3.115 -0.0316  0.2168  0.0496
 3935W        W19404  16.265  13.375  11.759  0.2929  0.0012  0.0885
 3936W        W19405   5.005   7.870   2.810  0.0178 -0.1703  0.2470
 3937W        W19406  14.768  10.901   4.766 -0.0771 -0.0020  0.0808
 3938W        W19407   1.694   8.743   1.491  0.2427  0.0553  0.2509
 3939W        W19408  10.474   5.759  12.379  0.0847 -0.4509 -0.0914
 3940W        W19409  16.124   8.323  14.894 -0.1352 -0.2254  0.0216
 3941W        W19410   1.734  11.150   2.067 -0.0646  0.0004 -0.0825
 3942W        W19411   5.998  10.857   3.758  0.0254  0.0730 -0.1541
 3943W        W19412  15.012  12.450   1.550  0.0448  0.1918  0.2236
 3944W        W19413   2.646   6.518   3.497 -0.0467 -0.1523 -0.0375
 3945W        W19414  16.537   2.832  15.191 -0.2057  0.0052  0.0686
 3946W        W19415   0.499   8.263   4.674 -0.0979 -0.1572  0.2571
 3947W        W19416  17.669  15.004   4.138  0.2157  0.0089  0.1094
 3948W        W19417   7.156   0.999  13.432 -0.1785 -0.1207  0.2489
 3949W        W19418   6.406   0.279  11.855 -0.2241 -0.1099  0.0509
 3950W        W19419   7.611  12.260  11.958 -0.0298  0.3100  0.0676
 3951W        W19420   8.946   8.037   1.346 -0.2408  0.0950 -0.1978
 3952W        W19421  15.167  11.062   3.412 -0.2777  0.1628 -0.2890
 3953W        W19422  10.031  11.398  14.000  0.0432  0.0986  0.1691
 3954W        W19423  11.610   2.882   2.524  0.1191  0.2449 -0.1674
 3955W        W19424   1.071  11.825   1.133  0.1163  0.0619 -0.0931
 3956W        W19425  16.112   8.488   2.081  0.0770  0.2466 -0.2572
 3957W        W19426  11.791   7.470   5.541 -0.1096  0.3497 -0.3784
 3958W        W19427   3.346  13.917  11.663  0.2089 -0.0571 -0.2369
 3959W        W19428  17.862   7.399  15.278 -0.0971 -0.1249  0.0825
 3960W        W19429  12.416  11.364  16.034 -0.0056 -0.1398 -0.0173
 3961W        W19430   1.470  14.334   1.322 -0.2203  0.1731  0.3971
 3962W        W19431  16.022   6.053   2.147  0.1951  0.1878  0.0835
 3963W        W19432  15.124   8.698  14.920 -0.1088 -0.0492  0.1586
 3964W        W19433   3.170  15.737  14.295 -0.2777  0.0534  0.2972
 3965W        W19434   2.125  14.342   5.923  0.1400  0.2721  0.2014
 3966W        W19435  10.270   5.266  14.944  0.1175  0.0329  0.0625
 3967W        W19436   6.753  13.436   4.776 -0.1327  0.0456 -0.0756
 3968W        W19437  14.319  16.031   2.088  0.0272 -0.0428  0.1167
 3969W        W19438  12.815   5.822   0.113  0.3037 -0.0777  0.0139
 3970W        W19439  14.736   6.910   3.860  0.1235  0.0671  0.1732
 3971W        W19440   1.633  10.642   1.645 -0.2122 -0.2890  0.2985
 3972W        W19441  10.924   9.187   1.411 -0.2216 -0.3082 -0.0064
 3973W        W19442  16.415   0.479  11.886  0.0796 -0.3020 -0.1599
 3974W        W19443   4.047   6.395  14.440 -0.0959 -0.6522  0.2525
 3975W        W19444  14.285   7.316  12.614 -0.0041 -0.1537 -0.0196
 3976W        W19445   5.557  15.502  12.664  0.0258  0.1269  0.2168
 3977W        W19446  14.373   4.226  15.628 -0.0092 -0.0983  0.0004
 3978W        W19447   2.351   7.020   0.740 -0.0416  0.0294  0.0148
 3979W        W19448  11.569   0.171   0.039  0.0463 -0.0424  0.2805
 3980W        W19449  10.969  11.483  14.309  0.3107  0.1030  0.0991
 3981W        W19450  16.013  10.379   2.630 -0.3762  0.1281 -0.0389
 3982W        W19451  14.212   9.181  15.758  0.0025 -0.2724  0.0483
 3983W        W19452  15.912  17.841   5.959  0.4527  0.1003 -0.1681
 3984W        W19453   9.635  17.880  16.328  0.1412  0.1687  0.0569
 3985W        W19454  10.222   3.884  14.665  0.1239 -0.1097 -0.1683
 3986W        W19455   1.556   7.561   3.913 -0.0837  0.1680 -0.0075
 3987W        W19456   6.674   9.402  16.538 -0.1151  0.0252  0.1991
 3988W        W19457  16.647  11.380  14.214 -0.1928  0.0085 -0.1134
 3989W        W19458   9.171   6.332  14.132  0.3479  0.0499  0.0049
 3990W        W19459  15.096   4.886   2.926  0.3629 -0.2870  0.2115
 3991W        W19460  12.714   3.344   4.863  0.2228  0.1695  0.1964
 3992W        W19461   4.986   0.726   0.173  0.2544 -0.0972 -0.1869
 3993W        W19462   5.739   8.625   3.653  0.3208  0.2701 -0.1173
 3994W        W19463   7.432   2.945   4.838 -0.0533 -0.0047  0.1355
 3995W        W19464   5.564  11.546  11.756  0.2337  0.0627 -0.1623
 3996W        W19465  16.321  12.455   1.085 -0.0116 -0.0185 -0.0565
 3997W        W19466  15.472   3.977  11.984 -0.1091 -0.3404 -0.3134
 3998W        W19467  14.384  11.100  12.706 -0.1203 -0.0478 -0.0480
 3999W        W19468   3.252  12.227   3.002 -0.0443  0.0429  0.0410
 4000W        W19469  13.861  17.542  14.459 -0.0798 -0.3605  0.2431
 4001W        W19470   7.846   3.783   0.552 -0.2105 -0.0131 -0.1024
 4002W        W19471  15.355   8.422  13.444  0.2758 -0.0626  0.0981
 4003W        W19472   4.925   9.838  16.358 -0.0979 -0.0333  0.0429
 4004W        W19473  15.332   4.917  11.665  0.1389 -0.0270 -0.0084
 4005W        W19474   6.426   5.357   2.150 -0.0499  0.3012 -0.1176
 4006W        W19475   8.277  15.064  12.946  0.0843 -0.0801  0.1055
 4007W        W19476   1.779  11.416   3.813 -0.3245 -0.1680 -0.0966
 4008W        W19477  11.745  14.682  15.918 -0.0557  0.0985 -0.1638
 4009W        W19478   1.321  16.174   5.342  0.1015  0.1600  0.2070
 4010W        W19479   9.275   8.589   1.779 -0.0100  0.0804 -0.1884
 4011W        W19480  13.186   8.590   2.887  0.0406  0.0036  0.1852
 4012W        W19481   7.266   0.111   6.784 -0.1906 -0.1237 -0.1656
 4013W        W19482   6.407   4.071   0.360  0.0525  0.0173 -0.1135
 4014W        W19483   3.195  16.628  13.077  0.0805 -0.0272  0.1342
 4015W        W19484  17.870   8.128   0.131  0.0165  0.1703  0.2155
 4016W        W19485   1.822   8.392   4.015 -0.1856 -0.0171  0.1631
 4017W        W19486  11.546   3.436  16.019 -0.1571  0.0422  0.1914
 4018W        W19487   6.720   7.800   2.770 -0.0348 -0.2000 -0.2192
 4019W        W19488  17.866  14.375   0.063  0.1193  0.2386 -0.1302
 4020W        W19489   4.476  13.757   0.650 -0.1105 -0.2643  0.2887
 4021W        W19490  15.900  17.281  13.838  0.1666 -0.2098  0.1298
 4022W        W19491   7.596  12.765  14.616 -0.0556  0.0275  0.1790
 4023W        W19492   3.719   9.525   3.916 -0.0541 -0.0627  0.2997
 4024W        W19493  13.752  13.049  16.018 -0.2840 -0.1412 -0.0117
 4025W        W19494   3.140   0.218  12.835  0.1663 -0.0571 -0.0435
 4026W        W19495  14.106   4.269  12.029 -0.0893 -0.3681 -0.0835
 4027W        W19496   3.828  14.215  13.446 -0.0052 -0.1759  0.2110
 4028W        W19497  16.994   2.815  12.221  0.0408 -0.0327 -0.2294
 4029W        W19498  11.070   9.885  11.770  0.0568 -0.2057  0.0238
 4030W        W19499   4.355   9.489  13.829 -0.1357 -0.0319 -0.3006
 4031W        W19500  12.738   4.340  14.711 -0.1327  0.0106 -0.1810
 4032W        W19501   5.260   5.795   1.300  0.1474  0.1617 -0.0373
 4033W        W19502   1.809   3.102  12.349  0.4263 -0.1143  0.2135
 4034W        W19503  12.859  12.811  11.522  0.1640  0.1779 -0.1469
 4035W        W19504  16.436  11.957   4.546 -0.2409  0.0729 -0.1640
 4036W        W19505  10.678  15.373  15.343  0.0034  0.1059 -0.0065
 4037W        W19506  17.625   8.950   2.530 -0.0964 -0.0227  0.1247
 4038W        W19507  10.261  10.551   3.550  0.2645  0.0903  0.1426
 4039W        W19508   1.545  12.274   4.059  0.0948 -0.3491 -0.0237
 4040W        W19509  15.289   3.339   1.184 -0.1496  0.2071  0.1019
 4041W        W19510  11.278   7.122   2.272 -0.2450 -0.1193 -0.1579
 4042W        W19511   8.652   5.985  13.850  0.0142 -0.0798 -0.0877
 4043W        W19512   7.546  16.644   5.308  0.1598  0.1444  0.0015
 4044W        W19513   1.154  10.325  14.336 -0.3437  0.1646  0.0554
 4045W        W19514  17.715   3.244  11.259  0.2096  0.1300  0.0916
 4046W        W19515  15.022   0.708   2.046  0.3859  0.0156 -0.0183
 4047W        W19516  17.199   9.544  13.859  0.1495 -0.3690 -0.2627
 4048W        W19517   9.086   5.006  15.083 -0.2294 -0.0572  0.2309
 4049W        W19518   1.185   1.108   4.560 -0.0624 -0.1372 -0.1500
 4050W        W19519   2.935  10.445   0.194  0.1170 -0.0723 -0.2759
 4051W        W19520   3.949  12.448  15.717  0.1020 -0.0653 -0.2793
 4052W        W19521  12.175   2.546   4.780 -0.1242  0.1008  0.2234
 4053W        W19522   0.880  17.805  12.690 -0.4681 -0.1300 -0.2290
 4054W        W19523   9.249   0.395  13.391 -0.1142 -0.0106  0.2314
 4055W        W19524   9.424  10.078   4.410  0.0757 -0.1021  0.1962
 4056W        W19525   5.464   7.542  11.609 -0.2050  0.0691  0.2546
 4057W        W19526  15.540  10.919  16.072  0.3112  0.1058  0.0877
 4058W        W19527  14.417   3.915  11.132  0.0933  0.1532  0.0913
 4059W        W19528   2.481  11.472  13.611 -0.1480  0.0147 -0.0555
 4060W        W19529  14.929   0.245   0.655 -0.0231  0.2798  0.1287
 4061W        W19530   7.410  15.620   3.565 -0.2912  0.0918  0.2173
 4062W        W19531  12.807  13.361  13.495  0.0504  0.0423  0.0826
 4063W        W19532   1.107  10.106  13.021  0.0878  0.0755  0.0741
 4064W        W19533   7.237  12.839   1.782 -0.1874 -0.1001 -0.0911
 4065W        W19534   3.799   9.995  15.106  0.1440 -0.0889  0.0987
 4066W        W19535   1.839   1.971   5.619  0.0316 -0.1995 -0.0675
 4067W        W19536   4.097   2.297   2.470 -0.0145 -0.2831 -0.1783
 4068W        W19537   2.668   9.152  12.098 -0.2553 -0.2458 -0.2160
 4069W        W19538   0.523  15.213  14.416  0.1762 -0.1023 -0.1763
 4070W        W19539   3.398   0.763   2.178  0.0265  0.0809 -0.2762
 4071W        W19540  11.924  13.885   0.859  0.1548  0.1098  0.2656
 4072W        W19541  17.451  15.829   3.648  0.0766  0.0773 -0.0625
 4073W        W19542   0.342  10.967  14.428 -0.2886  0.0355  0.0916
 4074W        W19543   8.595  14.410  14.453  0.1695 -0.1646  0.0706
 4075W        W19544  16.965   2.119   2.406  0.2172 -0.0359 -0.3759
 4076W        W19545  12.109   7.519  12.571  0.1230 -0.2129 -0.0293
 4077W        W19546   2.915  10.920   0.340 -0.2825  0.0071 -0.0901
 4078W        W19547  17.462   0.843   5.144  0.0743  0.0367  0.3291
 4079W        W19548   7.613   5.749   0.796 -0.0309  0.0639 -0.1223
 4080W        W19549   3.714   2.403   2.105  0.3507 -0.2062  0.1119
 4081W        W19550   9.820  12.270   2.373  0.2250 -0.3899 -0.2085
 4082W        W19551   5.560  16.771   4.379 -0.0387 -0.2761 -0.0313
 4083W        W19552  15.129  16.045   2.578  0.0233  0.3391 -0.0284
 4084W        W19553   6.401  15.347  13.771 -0.1087 -0.4122  0.1751
 4085W        W19554  16.045  11.846   4.219 -0.0808 -0.3093 -0.1650
 4086W        W19555   5.817  14.820   4.164 -0.1137 -0.2209 -0.1333
 4087W        W19556   2.175  15.014   4.270  0.0002  0.1075  0.0773
 4088W        W19557   0.446   5.742   1.161 -0.3295 -0.0576 -0.0016
 4089W        W19558   2.079   4.339   5.359  0.1151  0.2173  0.2263
 4090W        W19559  10.939  15.365   0.460  0.2875 -0.2728 -0.1229
 4091W        W19560  15.185   9.218  16.070 -0.1959 -0.1878 -0.0617
 4092W        W19561   0.149  15.868  12.714 -0.0410  0.0260  0.1701
 4093W        W19562  16.327  13.630   2.472  0.1037 -0.3546  0.0511
 4094W        W19563  12.310   4.827  12.579 -0.1502  0.2178 -0.1232
 4095W        W19564   1.289  12.460  14.088  0.3341  0.1519  0.0961
 4096W        W19565  16.023   6.361  15.550 -0.2425 -0.0916 -0.0575
 4097W        W19566  13.925  16.378   5.356 -0.0329 -0.0900  0.1968
 4098W        W19567  14.143   6.574  11.282 -0.3773 -0.0845  0.3102
 4099W        W19568  10.237  13.129  14.815 -0.1105 -0.1513 -0.1116
 4100W        W19569   0.191  11.727   1.224  0.0010  0.0658 -0.0958
 4101W        W19570  14.218  17.633  16.415 -0.0605  0.0856 -0.0760
 4102W        W19571   9.399   8.722  12.567 -0.1571  0.2903  0.2896
 4103W        W19572   5.158   8.281  13.376 -0.0699 -0.3578 -0.2669
 4104W        W19573   8.203  10.350  15.184 -0.0590 -0.2116 -0.0069
 4105W        W19574   4.486  11.721   5.264  0.0495 -0.0240 -0.2119
 4106W        W19575   8.395  11.805  16.278  0.0430 -0.0588 -0.1119
 4107W        W19576  16.004   3.242   4.634 -0.0200  0.1115 -0.0133
 4108W        W19577   5.656  15.859   0.174 -0.2831 -0.1469 -0.0703
 4109W        W19578   4.760   9.707   5.619 -0.2120 -0.1401 -0.3708
 4110W        W19579  17.818  15.940   4.910  0.0082 -0.0637 -0.1183
 4111W        W19580   4.557   8.374  11.201  0.1119  0.2830 -0.1721
 4112W        W19581  14.651  14.600  13.991  0.4413  0.0068 -0.1228
 4113W        W19582  14.563  10.530  13.658  0.1672 -0.2160  0.0236
 4114W        W19583  12.981  15.409   5.486 -0.0195  0.1384 -0.0039
 4115W        W19584   7.880   8.476  13.500 -0.3163  0.3979 -0.0036
 4116W        W19585  13.745  10.239   2.164  0.0040 -0.5756  0.3770
 4117W        W19586   4.755  11.001   4.991  0.2114  0.0930  0.0154
 4118W        W19587  13.413  12.054  14.410  0.1815 -0.1935  0.2410
 4119W        W19588  17.002   0.926   3.812  0.1238  0.0850  0.0432
 4120W        W19589   3.243   5.183   5.170  0.0079 -0.2454  0.2640
 4121W        W19590  14.961   5.137  14.775  0.0177 -0.0286 -0.1627
 4122W        W19591  11.373   1.373   4.447 -0.2515  0.1657  0.3338
 4123W        W19592  13.232  14.428   0.205 -0.0247 -0.1824  0.2341
 4124W        W19593   5.364   1.716  11.884 -0.0417  0.0747 -0.0860
 4125W        W19594   1.798  15.839   4.142  0.2406 -0.0857  0.3213
 4126W        W19595   3.550  14.462   4.513 -0.4008 -0.1723 -0.0339
 4127W        W19596  12.173   2.673  12.573  0.1623 -0.0857  0.3141
 4128W        W19597   3.982   6.655  12.093 -0.1652 -0.2102  0.0530
 4129W        W19598   6.810   8.825   1.819 -0.0594  0.0224  0.1241
 4130W        W19599   1.889   4.543   4.386  0.2434  0.2427  0.0310
 4131W        W19600   9.916  12.824   2.495  0.0625  0.2126  0.0589
 4132W        W19601  11.046   2.607   6.300  0.1322  0.1138  0.0752
 4133W        W19602  12.294  10.180   2.775 -0.2924  0.0154  0.2443
 4134W        W19603   7.876  10.676  14.694  0.0912 -0.1361 -0.3467
 4135W        W19604   6.491  13.004   3.002  0.1329 -0.2758 -0.2016
 4136W        W19605   2.816  14.118   1.781  0.1344 -0.3676  0.1334
 4137W        W19606   8.826   4.058  13.831  0.2652  0.1438 -0.1188
 4138W        W19607  11.908   5.861   5.139 -0.2710 -0.1151  0.0018
 4139W        W19608   8.583  12.056  11.951  0.3378 -0.2262 -0.3009
 4140W        W19609  14.984   1.296  13.005  0.0401 -0.0655  0.1368
 4141W        W19610   6.534  15.402   2.994  0.0745  0.0180 -0.0552
 4142W        W19611  17.558  14.954  14.366  0.1201  0.1046  0.0298
 4143W        W19612  15.631   9.310  15.737  0.3948 -0.2127  0.0174
 4144W        W19613   9.604   8.675  15.246  0.3501 -0.2500 -0.1309
 4145W        W19614   0.247  12.614   4.613  0.1772  0.2295 -0.2558
 4146W        W19615   0.404   8.759   0.012 -0.0801  0.5113 -0.0493
 4147W        W19616   7.674   0.443  15.392  0.0154 -0.0970 -0.2672
 4148W        W19617   2.197   1.447  15.698 -0.0425  0.2459  0.0461
 4149W        W19618   6.557   8.399   0.140  0.3049 -0.0044 -0.1537
 4150W        W19619  12.215   1.135   3.226  0.0318 -0.0291 -0.1013
 4151W        W19620  10.654  16.671  16.507  0.1813 -0.1465  0.1333
 4152W        W19621  10.990   6.560  11.408 -0.4407 -0.0745 -0.4199
 4153W        W19622  12.636   4.540  10.971  0.0479 -0.0935 -0.1251
 4154W        W19623   8.644  17.387   4.366 -0.0441  0.0681  0.1884
 4155W        W19624   0.749   7.203   2.738  0.0642  0.0027 -0.0707
 4156W        W19625   8.907   2.172   2.250 -0.5937 -0.2359  0.0233
 4157W        W19626  10.715   5.388  14.713  0.2289  0.1393  0.0480
 4158W        W19627   8.015  10.762  10.909  0.2070  0.1187 -0.1854
 4159W        W19628   8.235   6.700   5.327  0.1368  0.0645  0.0028
 4160W        W19629   1.575  11.930  10.376  0.0758  0.0222  0.0743
 4161W        W19630  12.266   0.552   3.227 -0.0586 -0.0905 -0.0536
 4162W        W19631   7.748   0.604   5.188 -0.1092  0.0754 -0.2369
 4163W        W19632  11.774   8.337   3.895  0.0454 -0.0329  0.0656
 4164W        W19633   5.828   2.539  13.659  0.0502 -0.0252  0.0011
 4165W        W19634   0.502   1.287  13.553  0.3408 -0.1949 -0.1402
 4166W        W19635  13.999  17.205   1.775  0.1226 -0.1451  0.2332
 4167W        W19636  17.848  17.782   2.291 -0.1934  0.0031 -0.1315
 4168W        W19637  10.506   8.945   1.349  0.0409  0.0251 -0.1916
 4169W        W19638   4.930   1.350   2.642 -0.1120  0.2927 -0.2384
 4170W        W19639  12.881   2.192   6.478  0.1214 -0.2290 -0.2344
 4171W        W19640   4.283   6.318   5.922 -0.1510 -0.0538 -0.2094
 4172W        W19641   7.333   7.135  12.143  0.0548  0.0517  0.0198
 4173W        W19642  15.241   2.274  13.371 -0.0627  0.2199  0.2306
 4174W        W19643   7.725  17.614  16.488 -0.0205  0.0084  0.2142
 4175W        W19644   8.096  10.441   4.727 -0.1229  0.0641 -0.0270
 4176W        W19645  10.256  13.019   1.229 -0.0147  0.2908 -0.0309
 4177W        W19646   3.914   5.066   4.510 -0.2317 -0.1366  0.3638
 4178W        W19647   8.053   8.814  13.088 -0.0156  0.0660  0.1918
 4179W        W19648   3.520  15.903  14.946  0.1598  0.1870  0.0832
 4180W        W19649   0.073   0.955  11.451  0.2085  0.1597 -0.1061
 4181W        W19650   7.575  12.721   3.991  0.0559  0.3453  0.0451
 4182W        W19651  16.363  10.140  12.967  0.1086  0.1397  0.1602
 4183W        W19652   6.577  15.215   2.028  0.2386 -0.0892  0.0509
 4184W        W19653   8.506  11.196   2.916 -0.0091  0.1622 -0.0877
 4185W        W19654   4.638   7.721  15.618 -0.0621  0.0857 -0.0756
 4186W        W19655  16.635  10.133  16.137  0.1008  0.1412 -0.0719
 4187W        W19656   0.817  14.968   1.507  0.0200 -0.0418  0.2388
 4188W        W19657  15.118  15.023  15.505 -0.1595  0.0146 -0.3448
 4189W        W19658  15.283   3.767   5.079  0.1626  0.2060 -0.0553
 4190W        W19659   0.263  10.270   1.804 -0.1218  0.0801  0.1263
 4191W        W19660  14.615  10.561   2.786 -0.2795  0.1055 -0.2562
 4192W        W19661   6.167  10.074   0.452 -0.3120  0.0880  0.0783
 4193W        W19662   9.056   2.500   2.673  0.1044  0.1893 -0.2473
 4194W        W19663  10.075  15.438   6.071 -0.1489  0.0999  0.0450
 4195W        W19664  11.760   7.203   2.996  0.0730  0.1921 -0.1265
 4196W        W19665  17.232  14.316  15.824 -0.1081  0.0510 -0.0954
 4197W        W19666   6.521   8.969  13.315  0.0117  0.0557 -0.2923
 4198W        W19667   1.134  14.776   2.006 -0.2043  0.1125  0.2413
 4199W        W19668   6.971  17.402  15.701  0.0758 -0.0111  0.0027
 4200W        W19669   7.183   8.678   6.083  0.0277 -0.3258 -0.1107
 4201W        W19670   9.524   0.147   2.210  0.0329 -0.3244 -0.0037
 4202W        W19671   2.982   4.886  12.389  0.0188  0.2663  0.0487
 4203W        W19672   7.269  11.769   2.547  0.1003  0.0946 -0.2140
 4204W        W19673   4.108   5.596   5.394  0.1264  0.1040  0.2761
 4205W        W19674  12.140   7.542  11.547  0.0711 -0.0264 -0.0747
 4206W        W19675  14.169  17.745   6.649  0.0535 -0.2098  0.0323
 4207W        W19676  17.414  17.199  12.030  0.1441 -0.3625 -0.1053
 4208W        W19677  13.413   5.594  15.062 -0.3602  0.2098  0.1120
 4209W        W19678  12.499  10.464   1.762  0.1762 -0.1592  0.1663
 4210W        W19679  17.759  16.978   1.756  0.0556 -0.2057  0.1050
 4211W        W19680  13.494   1.212   3.740 -0.1189 -0.0223  0.0493
 4212W        W19681  14.464   9.705  12.616 -0.0743 -0.1836  0.2337
 4213W        W19682   4.539   7.454  14.345 -0.1326  0.1768 -0.1695
 4214W        W19683  11.190   1.031  16.085 -0.0031  0.0877 -0.0806
 4215W        W19684   9.493   1.662  12.780 -0.0869  0.0282 -0.1441
 4216W        W19685  14.929  10.266   2.929 -0.0781 -0.1280  0.2285
 4217W        W19686   9.963  16.370  12.193  0.5143  0.1696  0.0925
 4218W        W19687   6.522   4.625  12.422  0.3960  0.1243 -0.1026
 4219W        W19688  13.787  16.267   4.579 -0.2055 -0.1683 -0.5090
 4220W        W19689   9.268   1.861  12.369  0.2601 -0.0574 -0.2326
 4221W        W19690   2.558   5.760   2.003 -0.0846 -0.0166  0.0201
 4222W        W19691  13.565   9.871  14.400  0.2125 -0.2811 -0.0613
 4223W        W19692   8.352   9.580   5.351 -0.1626  0.2948  0.0347
 4224W        W19693  10.861   5.750   3.562 -0.0016 -0.1255  0.1301
 4225W        W19694  14.082   6.794   1.532  0.3911 -0.0160 -0.0725
 4226W        W19695   3.499  16.596   1.930  0.0954  0.2174 -0.1611
 4227W        W19696  16.368   9.039   1.148 -0.0051  0.3726 -0.0691
 4228W        W19697  12.032   4.416   4.442  0.0029  0.1680 -0.3622
 4229W        W19698   6.527  13.734  11.144  0.0428  0.0296  0.1184
 4230W        W19699   3.728  15.234   0.138 -0.1978 -0.1173 -0.1951
 4231W        W19700   3.599   6.430  12.836 -0.0225 -0.1593 -0.0535
 4232W        W19701   6.277  12.376  13.280  0.2353  0.1135 -0.0167
 4233W        W19702  11.453  16.508   0.876 -0.0988  0.1017  0.0603
 4234W        W19703   6.847  10.982   5.476 -0.1325 -0.2384 -0.1546
 4235W        W19704  17.563  15.465  11.472  0.1406  0.0216 -0.4321
 4236W        W19705   9.616  17.617   2.043  0.1527 -0.0271  0.1834
 4237W        W19706   8.502   2.758   0.013  0.2005  0.4279 -0.1207
 4238W        W19707   6.639   6.748  12.293 -0.3666 -0.0005  0.0285
 4239W        W19708   1.813  14.662   1.128 -0.1782 -0.3000  0.2927
 4240W        W19709  13.093  17.798   2.231 -0.1016 -0.0104  0.3086
 4241W        W19710   5.126  10.411   1.696 -0.0280 -0.1686 -0.0055
 4242W        W19711  15.498   7.528  10.704  0.3319 -0.1895 -0.0038
 4243W        W19712   5.185  15.689   0.178 -0.0799 -0.1498 -0.5737
 4244W        W19713   7.991  16.470   5.123  0.0566  0.1684 -0.2428
 4245W        W19714  16.898  15.962  15.783 -0.1143 -0.1133 -0.1338
 4246W        W19715  17.337   8.346  10.798 -0.2594 -0.0147 -0.2162
 4247W        W19716   0.971  11.003  10.354 -0.1633 -0.0898 -0.2303
 4248W        W19717   4.892   3.705   2.860 -0.0291 -0.0363 -0.2131
 4249W        W19718   4.731   6.453   1.260  0.0890  0.1722  0.2069
 4250W        W19719   6.271   8.015   0.056 -0.0006  0.1545 -0.1063
 4251W        W19720  11.400  15.814   5.113 -0.0055 -0.3002  0.0394
 4252W        W19721   5.164   5.793   4.726  0.1823 -0.0916  0.2531
 4253W        W19722  11.677   2.703   3.890 -0.2253 -0.0748 -0.0507
 4254W        W19723   0.104  10.651  16.163  0.0972  0.4640  0.2137
 4255W        W19724   9.842  11.217   1.954 -0.0790  0.3132 -0.0998
 4256W        W19725  15.940  17.591   4.247  0.1147 -0.1196  0.0553
 4257W        W19726  16.291   5.920   0.897  0.0027 -0.0293  0.3620
 4258W        W19727  10.274  17.669   0.106  0.2154 -0.0715  0.2093
 4259W        W19728  13.153   3.084   2.950 -0.1710 -0.2142  0.3173
 4260W        W19729  13.602  17.097   5.172 -0.0283  0.0857 -0.2705
 4261W        W19730  12.447   4.912  13.556  0.1049 -0.0987  0.0560
 4262W        W19731  17.689   2.002  15.147 -0.0265 -0.0209 -0.0241
 4263W        W19732  13.067  16.359  12.367 -0.2156  0.0565  0.1755
 4264W        W19733   9.135   3.581  13.156 -0.0499  0.0185 -0.0580
 4265W        W19734   7.188   3.236   5.199  0.1160 -0.1969  0.0051
 4266W        W19735   3.799  13.283  15.111  0.1008 -0.2023 -0.1999
 4267W        W19736  12.631   5.759  12.798  0.0678 -0.2432  0.1577
 4268W        W19737   6.936   1.633   2.636 -0.0312 -0.1098 -0.0954
 4269W        W19738  16.352  16.672   2.296  0.0968 -0.1257  0.0522
 4270W        W19739  17.561   3.298   5.335  0.0357  0.1118 -0.0391
 4271W        W19740   9.268  13.882  16.557  0.0489  0.1059  0.0081
 4272W        W19741   2.338  13.883  14.361  0.2095  0.1305  0.1121
 4273W        W19742   5.232   8.242   2.992 -0.1227  0.2494  0.1988
 4274W        W19743   2.952   7.083   5.051 -0.2272  0.0090  0.1194
 4275W        W19744  11.622  15.507   3.219  0.0454 -0.1608 -0.0612
 4276W        W19745  12.595   4.078  12.183 -0.0083  0.0306 -0.0266
 4277W        W19746  15.228   4.554  11.343  0.0680 -0.0211  0.1004
 4278W        W19747  16.653  16.805   0.544 -0.0747  0.2599 -0.1302
 4279W        W19748  14.563  12.363  13.004 -0.3316 -0.0072 -0.2106
 4280W        W19749  15.865  13.430  14.269  0.3120 -0.2316  0.0144
 4281W        W19750   9.759   5.145  15.283  0.2027  0.2077 -0.0991
 4282W        W19751  12.912   4.109  11.678 -0.0542  0.1292  0.2013
 4283W        W19752   2.402   4.041  14.708 -0.0389  0.1106  0.0427
 4284W        W19753   0.683  15.172  15.236 -0.1588  0.0029  0.1118
 4285W        W19754   7.345   3.883  15.720 -0.2966 -0.0009 -0.4152
 4286W        W19755  17.940   5.752   3.097 -0.0470 -0.1831 -0.1808
 4287W        W19756  14.485  13.814   5.928  0.0138 -0.1786  0.2776
 4288W        W19757   1.767   4.247  12.708  0.3886  0.1558 -0.2113
 4289W        W19758  17.723  15.381   6.943 -0.0303  0.1253  0.1113
 4290W        W19759  17.550  15.924   3.146  0.2235  0.1158 -0.4330
 4291W        W19760   3.986   1.370   2.037 -0.1449  0.1843  0.1382
 4292W        W19761  14.135   3.371   6.211 -0.2270  0.0085  0.0690
 4293W        W19762   0.171   8.403   2.161 -0.0808 -0.0838  0.0131
 4294W        W19763  16.203   6.897  14.827 -0.0337 -0.2875 -0.0846
 4295W        W19764  12.621  15.018  16.311  0.1453 -0.3172 -0.1182
 4296W        W19765  16.863   8.510  12.478  0.2111  0.1789 -0.0736
 4297W        W19766  13.735  11.124  14.913  0.1678  0.0749 -0.3907
 4298W        W19767  10.289  16.356  14.773 -0.3156  0.2207  0.2764
 4299W        W19768  13.541   2.776  12.913  0.1972  0.1296 -0.2527
 4300W        W19769   6.303   2.823   2.977 -0.3706  0.0194 -0.0270
 4301W        W19770  17.589   1.591  11.851 -0.0235 -0.1285  0.0848
 4302W        W19771   1.547  13.715  11.177  0.0993  0.1671 -0.0591
 4303W        W19772   3.936  10.095  13.006 -0.3636  0.1109  0.1381
 4304W        W19773   4.716  14.030   5.778  0.2029  0.2404  0.3256
 4305W        W19774  16.074   8.007  12.623 -0.0829 -0.0110  0.3443
 4306W        W19775   7.730   5.584   3.630  0.3782  0.2962  0.1234
 4307W        W19776  11.048   8.142   0.427 -0.0051  0.3202  0.1247
 4308W        W19777  16.131   2.090   2.710  0.1771  0.1723 -0.1525
 4309W        W19778  11.955  15.100   0.281 -0.0757  0.1113 -0.0581
 4310W        W19779  11.374  17.687  13.661  0.0477  0.0202  0.0519
 4311W        W19780   0.200   1.939   3.021 -0.0397 -0.2702  0.0618
 4312W        W19781   2.526   1.292   0.491 -0.2206  0.1940  0.0914
 4313W        W19782   2.354   8.650  11.532 -0.2080  0.0909  0.1411
 4314W        W19783   1.699  10.634   5.764  0.0016  0.0769 -0.0918
 4315W        W19784   7.378  12.757  13.512  0.1923 -0.1906 -0.1970
 4316W        W19785   6.976   3.855   3.165 -0.0488 -0.2929  0.0273
 4317W        W19786  12.688  14.053  15.041 -0.0224  0.0488  0.1082
 4318W        W19787  14.472   0.267  16.439 -0.5902 -0.0041  0.0469
 4319W        W19788  12.692  10.680   1.342 -0.2290  0.1629  0.1635
 4320W        W19789   6.239   0.419   5.970  0.0381  0.1432  0.1357
 4321W        W19790  16.735  17.844   1.996 -0.0925  0.1946  0.4037
 4322W        W19791  15.826   2.136  14.850  0.0183  0.1056 -0.1846
 4323W        W19792   1.949   3.672   5.320  0.1071  0.1274  0.1154
 4324W        W19793  14.759  10.118  12.686 -0.0860 -0.1180  0.1789
 4325W        W19794   6.259  10.051  12.274  0.0612 -0.1140  0.0543
 4326W        W19795  13.717   7.166  16.145  0.0265  0.0372 -0.0730
 4327W        W19796   1.863  17.455   4.928  0.0522 -0.2911  0.0145
 4328W        W19797   7.987  13.500   3.632 -0.1430 -0.0678  0.1072
 4329W        W19798   2.375  13.381  12.195 -0.1427 -0.1996 -0.0641
 4330W        W19799  16.395  17.850   5.812  0.2165  0.0219 -0.0304
 4331W        W19800  13.197   3.315   4.772  0.0390  0.1850  0.2012
 4332W        W19801  15.684   7.183   2.617  0.1077  0.4276 -0.2475
 4333W        W19802   8.425  15.244  12.047 -0.1931  0.1686 -0.0269
 4334W        W19803   2.613  11.859  15.911 -0.1362  0.1746 -0.0909
 4335W        W19804  16.248   1.496   5.469 -0.1356  0.0785 -0.1916
 4336W        W19805   5.201  11.122  15.523  0.1414  0.0470  0.1614
 4337W        W19806   0.857  17.604  12.123 -0.1019  0.2357 -0.1667
 4338W        W19807  15.942  10.445  12.582  0.3116  0.1424 -0.0515
 4339W        W19808   8.054  11.585  13.460  0.2346  0.1160 -0.0019
 4340W        W19809   9.957  11.919  13.841 -0.2618 -0.2625  0.0002
 4341W        W19810  12.308   9.173  13.468 -0.1680 -0.0593  0.3208
 4342W        W19811  17.320   3.890  14.818  0.2000 -0.1902  0.3447
 4343W        W19812   9.070   1.376   0.316  0.2246 -0.3300  0.3101
 4344W        W19813   9.464   8.487   3.715 -0.1121  0.3403  0.1677
 4345W        W19814   1.445   3.467   3.528  0.0604  0.0028  0.0141
 4346W        W19815  11.946  16.253  14.367  0.2881 -0.0657 -0.1197
 4347W        W19816  17.091   4.868   1.449 -0.2878 -0.0102 -0.1057
 4348W        W19817   4.721  15.686   4.262 -0.2880 -0.2974 -0.0689
 4349W        W19818   5.996   4.482  15.765 -0.2686 -0.0792 -0.0796
 4350W        W19819   1.505   9.800   1.876  0.2121  0.2105  0.3525
 4351W        W19820   1.628   5.053  10.610 -0.0280  0.0994  0.1287
 4352W        W19821   9.836   1.948  14.300  0.1594 -0.0748 -0.2114
 4353W        W19822  13.531   7.171   0.379 -0.2358 -0.0078  0.2435
 4354W        W19823   3.700   0.253   3.669  0.0039 -0.1996 -0.0542
 4355W        W19824   3.131   0.929  13.643  0.1521  0.2893 -0.0850
 4356W        W19825  17.167  10.385  12.318  0.2211 -0.2344 -0.2230
 4357W        W19826  16.282   4.551  11.890  0.3551  0.2010  0.1063
 4358W        W19827  12.256   5.559   3.568 -0.0067 -0.1412 -0.1399
 4359W        W19828   0.542  11.422   3.962  0.4713 -0.4563  0.2613
 4360W        W19829  17.232  10.674  15.464 -0.0573 -0.0728 -0.0304
 4361W        W19830  17.253   9.996  10.993  0.0837 -0.0263 -0.3291
 4362W        W19831   9.049   9.612   0.730  0.1794  0.3599  0.1647
 4363W        W19832   1.973  11.005  12.692 -0.1737 -0.1194  0.0153
 4364W        W19833  10.435   5.635  11.875 -0.1389 -0.2429  0.0851
 4365W        W19834  13.732  17.551   5.377 -0.3309 -0.2413 -0.0180
 4366W        W19835   2.090  16.294   4.357 -0.3841 -0.0077  0.5321
 4367W        W19836  11.665   2.764  14.770  0.1670  0.0995  0.0972
 4368W        W19837  11.468  12.743  12.375 -0.0980  0.2053  0.2508
 4369W        W19838   5.329  16.658  13.692 -0.0308  0.1174 -0.2239
 4370W        W19839   3.177  16.030   1.788 -0.1492 -0.0905  0.0726
 4371W        W19840   2.342  15.324   6.899  0.1557  0.0796 -0.4283
 4372W        W19841   8.548   0.053  11.334 -0.1474 -0.0159 -0.2303
 4373W        W19842   6.078  10.582   0.307 -0.4077  0.2380  0.1529
 4374W        W19843   9.302   9.655  15.332  0.0363 -0.0657  0.2293
 4375W        W19844   1.906  17.086  16.431  0.1154 -0.0724 -0.0152
 4376W        W19845   5.156   2.511   0.887  0.2397 -0.0975 -0.0662
 4377W        W19846   1.543  13.534  13.577 -0.4033  0.2723 -0.1324
 4378W        W19847  14.060   7.397  15.722  0.3083 -0.0812 -0.0563
 4379W        W19848  11.582  11.530   4.665  0.0019 -0.1652 -0.1888
 4380W        W19849   5.779  11.854   3.889  0.0698 -0.1855 -0.1186
 4381W        W19850   9.809  12.947  15.587 -0.1567  0.0951 -0.1859
 4382W        W19851  12.471   4.346  13.423 -0.1122  0.0661 -0.3631
 4383W        W19852  13.954   9.135  14.942 -0.0478 -0.0420  0.0713
 4384W        W19853  17.899   8.081   5.198 -0.0879 -0.1700  0.3872
 4385W        W19854   3.209   7.084  11.943 -0.0138  0.2116 -0.1417
 4386W        W19855  16.055   8.188  12.107 -0.0085 -0.0192  0.1487
 4387W        W19856   5.400   7.651  13.032  0.1479 -0.1246 -0.6438
 4388W        W19857  13.368   7.604   0.235 -0.1547  0.0340  0.1279
 4389W        W19858  14.686   4.163  15.275 -0.1594 -0.3048 -0.1387
 4390W        W19859  13.407   2.990   5.115  0.1851  0.1143  0.1343
 4391W        W19860   4.100   5.729  13.520  0.3156 -0.1921  0.0344
 4392W        W19861   4.649  14.314   4.848 -0.2674 -0.0820  0.2657
 4393W        W19862  17.493  17.710  12.067 -0.0742  0.1114 -0.0071
 4394W        W19863   6.985  17.431   2.316  0.0016 -0.1316 -0.1681
 4395W        W19864   9.386  14.355   6.149 -0.1704 -0.1032 -0.1930
 4396W        W19865  16.937  15.683   3.743  0.1235  0.0741 -0.1035
 4397W        W19866  17.346  15.710   2.368 -0.0647  0.1453 -0.0004
 4398W        W19867   2.586  12.566   5.125  0.1003  0.2335 -0.1326
 4399W        W19868  11.307  10.277  15.607  0.2910  0.1426 -0.0092
 4400W        W19869  12.945   1.980  15.000  0.3402  0.0327  0.2457
 4401W        W19870   3.663   2.817   2.958 -0.0116 -0.1373 -0.2409
 4402W        W19871   4.964  15.406   2.370 -0.1156 -0.3304 -0.1881
 4403W        W19872   7.728   1.495   1.355  0.1595  0.0534  0.0194
 4404W        W19873   0.068   4.825  11.021 -0.4658 -0.1286  0.0479
 4405W        W19874   3.764  14.267  16.337 -0.1515  0.1350  0.1055
 4406W        W19875  14.588  12.574  16.246  0.3881  0.0036  0.1202
 4407W        W19876   2.436   3.542  11.437  0.1728 -0.3424 -0.2274
 4408W        W19877   8.482  11.395   0.539 -0.2731 -0.2480 -0.3218
 4409W        W19878  17.674   8.979   5.462  0.5057 -0.1971 -0.1204
 4410W        W19879   1.163  11.884   1.689 -0.1823  0.1032  0.1957
 4411W        W19880   0.214  10.194  12.027  0.0091 -0.0948  0.1378
 4412W        W19881   4.467   9.102  12.379  0.0478  0.0626  0.0533
 4413W        W19882   8.125  12.527  14.342  0.3052  0.0558 -0.0776
 4414W        W19883  16.573  10.827   5.172 -0.0152 -0.2137 -0.0563
 4415W        W19884   9.679   9.154   0.258 -0.0864  0.1314  0.2686
 4416W        W19885  15.944   4.601   1.364  0.4024  0.0239  0.2021
 4417W        W19886   1.344   8.328   4.053 -0.0112  0.0540 -0.2831
 4418W        W19887  13.521  10.639  11.129 -0.0632 -0.0635 -0.0379
 4419W        W19888   5.991   2.447  14.135 -0.3607 -0.0891 -0.1541
 4420W        W19889   5.586  17.053   0.657  0.2466  0.0779 -0.1643
 4421W        W19890  16.746   8.357   3.968  0.0041  0.2581  0.0129
 4422W        W19891   1.490   0.527  16.251  0.0635  0.4359  0.2753
 4423W        W19892  17.275   6.185   5.228 -0.1705  0.3135  0.0905
 4424W        W19893  14.422   9.608  13.199  0.0582 -0.2634  0.2849
 4425W        W19894  10.369   2.378   4.935  0.0376  0.2929  0.0044
 4426W        W19895   1.123  12.077   2.620 -0.0856  0.0270 -0.1179
 4427W        W19896   9.164   6.905   2.456 -0.0222 -0.0519 -0.1301
 4428W        W19897   5.180   1.464  14.926  0.0333 -0.1314 -0.1202
 4429W        W19898  12.033   7.809  14.522  0.4318  0.2336 -0.1451
 4430W        W19899  16.472   2.315   5.101  0.1295 -0.2735  0.0098
 4431W        W19900   1.944  15.089   5.258 -0.2860 -0.1737  0.1090
 4432W        W19901   3.123  12.310   2.397 -0.1596 -0.2304  0.2669
 4433W        W19902  11.154  16.894  15.916 -0.2452 -0.3376 -0.1476
 4434W        W19903  15.848   2.316   0.870 -0.0511  0.0211 -0.2009
 4435W        W19904  10.374  17.309   1.444  0.1220 -0.1240  0.1936
 4436W        W19905  14.067   0.491   0.699  0.0440 -0.1419 -0.0696
 4437W        W19906   9.785  17.978  14.853 -0.1705 -0.1481 -0.3933
 4438W        W19907   4.361   3.649  13.799 -0.0486 -0.0054  0.2313
 4439W        W19908  17.826  16.610  14.389  0.0358 -0.2102  0.0796
 4440W        W19909  13.789   1.740  12.327  0.0011 -0.0372  0.1894
 4441W        W19910  11.157  10.072  13.227  0.0957 -0.0515  0.0047
 4442W        W19911   5.054  14.254  13.920  0.3414  0.3393  0.2333
 4443W        W19912   8.667   6.136   5.471 -0.0754 -0.1852 -0.0207
 4444W        W19913  17.796   6.689   0.824 -0.0211 -0.1778  0.2679
 4445W        W19914   4.517   2.227  12.690  0.2816 -0.1097  0.1220
 4446W        W19915  10.144   9.222  12.663  0.2911  0.2405  0.2673
 4447W        W19916  10.532  10.526   4.066 -0.3722 -0.0592  0.2471
 4448W        W19917   0.150   0.237  13.993 -0.2255  0.1249 -0.1975
 4449W        W19918   9.087   2.310   3.112  0.2564  0.1791 -0.0674
 4450W        W19919  16.178   8.130  16.121  0.1884  0.1134 -0.0200
 4451W        W19920  17.414  15.013   0.646 -0.1280 -0.1515 -0.1451
 4452W        W19921  15.391  14.077   1.723  0.0294 -0.1711  0.1400
 4453W        W19922  14.887  17.578   0.122  0.0288 -0.0315 -0.2165
 4454W        W19923   1.518  15.490   3.615  0.0473 -0.1604 -0.4017
 4455W        W19924  10.022  12.023   1.166 -0.0653 -0.0379  0.0987
 4456W        W19925  16.809   8.908  15.632 -0.5635 -0.2424 -0.0513
 4457W        W19926   2.247   9.631  13.784  0.1321 -0.0833  0.0931
 4458W        W19927   6.776   3.071  15.384 -0.1206  0.1139  0.1222
 4459W        W19928   4.096  15.142   0.953  0.5127  0.2702  0.0835
 4460W        W19929  10.334   5.394   5.234 -0.2019  0.1873 -0.0278
 4461W        W19930   6.836   2.164   1.664 -0.2511 -0.0238  0.2933
 4462W        W19931   8.671  17.068   4.786 -0.1646 -0.3296 -0.1509
 4463W        W19932   7.718   2.905  13.881  0.0136 -0.0582 -0.3828
 4464W        W19933   3.660   1.968  15.823  0.1147  0.0590  0.1713
 4465W        W19934  13.514   0.478   4.300 -0.4337  0.1857 -0.0646
 4466W        W19935   1.691   2.835  14.115 -0.0855 -0.0272  0.3507
 4467W        W19936   7.924   7.816   2.545  0.1807 -0.0346  0.1457
 4468W        W19937  13.301  16.862   4.846 -0.0682 -0.1789  0.1287
 4469W        W19938  17.364  13.336  13.805 -0.1711 -0.3512  0.1032
 4470W        W19939  11.343   6.932   2.743 -0.1720 -0.0531  0.3556
 4471W        W19940   9.801  12.046  11.752  0.1034 -0.1598 -0.0208
 4472W        W19941   6.997   7.869  14.625 -0.2886 -0.0586 -0.0268
 4473W        W19942   1.520   9.997   4.036  0.2031  0.1181 -0.3310
 4474W        W19943  16.191  14.557   3.373  0.0666  0.1108  0.2804
 4475W        W19944   6.044   9.934  14.730  0.3749  0.2248 -0.1407
 4476W        W19945  14.871   8.222  14.001  0.1160  0.3504  0.0022
 4477W        W19946  10.342   8.101  11.355 -0.0125  0.0224 -0.2535
 4478W        W19947   3.086   2.468  11.968  0.0475 -0.0512 -0.1059
 4479W        W19948  11.083  16.989   0.104 -0.0321 -0.0433 -0.0192
 4480W        W19949   1.908  14.417  14.912  0.1871  0.1957 -0.0932
 4481W        W19950  13.739  11.636  11.786 -0.1388  0.1101 -0.2635
 4482W        W19951   3.851   2.802  13.916  0.2329 -0.1715  0.3342
 4483W        W19952  14.805  17.545   4.311  0.1560  0.0233  0.2211
 4484W        W19953   0.820  14.178   4.985  0.4317  0.0350 -0.0204
 4485W        W19954  13.851   9.669  15.676  0.3693 -0.1181  0.1972
 4486W        W19955   8.428  10.358   2.808 -0.1364  0.5332 -0.1220
 4487W        W19956   0.560  10.315  12.816  0.2513 -0.1701 -0.0671
 4488W        W19957   6.959   1.882   5.180 -0.1489  0.0775  0.0315
 4489W        W19958   5.840  15.302  14.058 -0.1817  0.3128  0.2689
 4490W        W19959  17.217  14.510  12.959  0.0088  0.1863 -0.2750
 4491W        W19960   9.482   1.679   1.230  0.0440 -0.2962  0.2197
 4492W        W19961   2.003  15.088   0.180  0.0641  0.0955 -0.0093
 4493W        W19962   8.321   8.866  13.510  0.2603 -0.2090 -0.1814
 4494W        W19963   8.424  15.482  15.925  0.1386  0.0775  0.3149
 4495W        W19964  12.250   4.018  10.113 -0.3007  0.1060  0.0036
 4496W        W19965   6.907  11.315  11.206  0.3471  0.3381  0.0306
 4497W        W19966  15.349  15.596   6.626 -0.0246  0.2064 -0.0398
 4498W        W19967  14.232   2.291  15.263  0.3897  0.1617 -0.0977
 4499W        W19968   2.373  13.262   1.489  0.0667 -0.0681  0.5272
 4500W        W19969  16.494   6.108  14.139  0.2343 -0.1520  0.0326
 4501W        W19970  15.286   9.915   0.450  0.1580  0.1375 -0.0610
 4502W        W19971   7.334  10.241   5.444 -0.0812 -0.0500  0.2711
 4503W        W19972   2.356  17.138   0.044 -0.4367  0.1012 -0.1413
 4504W        W19973   9.542   2.920  15.336 -0.0867 -0.2099  0.0490
 4505W        W19974   9.649   2.579  12.860  0.1296  0.0095  0.1882
 4506W        W19975  17.936  16.154   0.423 -0.1295  0.0906  0.0208
 4507W        W19976  10.804  12.540   5.533  0.1333  0.0764 -0.0374
 4508W        W19977   5.408   8.575   1.102 -0.2294  0.3785  0.0295
 4509W        W19978  15.700  10.639  13.498  0.0188  0.2202  0.1203
 4510W        W19979   1.022  12.199   4.188 -0.2053  0.2646  0.0508
 4511W        W19980   0.803   3.418  15.728  0.2586 -0.1419  0.1776
 4512W        W19981  14.369   3.307  15.330 -0.3996 -0.1019  0.4393
 4513W        W19982  15.604   4.077  13.117 -0.3335  0.0740  0.3122
 4514W        W19983   6.260   9.103   4.628  0.0656  0.0606  0.1808
 4515W        W19984  10.832   2.115   2.294 -0.1297  0.0946  0.3576
 4516W        W19985  10.494   5.816  16.122  0.0754 -0.0840 -0.1153
 4517W        W19986  16.760   8.409   1.020  0.0883 -0.3391 -0.0074
 4518W        W19987   4.963   6.964  12.011  0.1323 -0.0642 -0.0576
 4519W        W19988   5.799  13.112  14.346  0.1967  0.0910 -0.1436
 4520W        W19989   1.544  16.397  13.586 -0.1500 -0.3909 -0.0694
 4521W        W19990   7.265   0.690  14.522  0.4089 -0.2676  0.1549
 4522W        W19991  10.531  10.021   5.972  0.0103 -0.1375 -0.0184
 4523W        W19992  12.782   2.390   1.335  0.1611 -0.0569 -0.2545
 4524W        W19993  17.375   0.571   3.776  0.0130 -0.1267 -0.0014
 4525W        W19994   5.574  16.265   2.273 -0.0068 -0.1844 -0.1593
 4526W        W19995  16.748   9.419   2.349 -0.2310 -0.2699 -0.0538
 4527W        W19996  17.671   0.318   5.019 -0.0998  0.0507  0.2321
 4528W        W19997   8.269   2.777  14.817  0.1573 -0.1658  0.1027
 4529W        W19998   3.025  12.167  11.509  0.1725 -0.1401 -0.3015
 4530W        W19999   9.925  10.532  12.323 -0.0030 -0.4879  0.1396
 4531W        W20000  17.527  10.940   1.535  0.1059 -0.0297  0.2559
 4532W        W20001  17.403   6.941   0.969  0.0124  0.0997 -0.1088
 4533W        W20002   0.345  15.740   2.484  0.0110  0.0249 -0.0922
 4534W        W20003   6.820  15.972   4.238 -0.1871  0.0801 -0.2790
 4535W        W20004   3.885  15.387   1.812  0.0991 -0.0365 -0.1561
 4536W        W20005   6.610  14.566  14.189  0.0558 -0.0469 -0.1098
 4537W        W20006   0.411   6.475  16.207 -0.2461 -0.2756 -0.1449
 4538W        W20007   3.936   4.026   1.938  0.0889  0.2478  0.6156
 4539W        W20008   6.595   7.309  12.915  0.2713  0.1087  0.0328
 4540W        W20009   1.537   4.367  11.398 -0.0841  0.1763 -0.0029
 4541W        W20010   2.287   2.103   4.930 -0.2954 -0.0695 -0.1577
 4542W        W20011   9.103  15.506   1.287  0.0612  0.2790 -0.0650
 4543W        W20012  17.382  13.980  16.146 -0.0906  0.3818  0.0105
 4544W        W20013  17.299   6.635  14.135 -0.2519  0.1538 -0.0166
 4545W        W20014  10.328   8.753   4.036 -0.0345  0.0999  0.3106
 4546W        W20015   4.199   7.728   2.647 -0.2265  0.4677  0.1181
 4547W        W20016   7.579   5.348   5.493  0.0069 -0.2013  0.1804
 4548W        W20017   9.245   4.050   4.847 -0.1020 -0.0161 -0.0531
 4549W        W20018  15.718   7.543  16.056  0.1566  0.1588  0.1776
 4550W        W20019   6.848   1.889  14.107 -0.1887 -0.0171  0.1319
 4551W        W20020   6.953   8.296   5.814  0.0772 -0.0556 -0.0142
 4552W        W20021  13.882  13.278  16.469 -0.3101 -0.1972 -0.0846
 4553W        W20022   6.105   7.231  11.166  0.1233 -0.2944 -0.0372
 4554W        W20023   4.693   9.837  13.477 -0.1364 -0.0931  0.0659
 4555W        W20024   2.025   8.588   2.379  0.1424 -0.0784 -0.0957
 4556W        W20025  13.323  12.231   4.666 -0.1797  0.0093  0.0819
 4557W        W20026  11.214   2.238  15.240  0.0579  0.3600  0.0024
 4558W        W20027   6.443   8.656  16.337 -0.0138  0.1477 -0.5102
 4559W        W20028  11.763   7.331  10.419  0.0947 -0.0503  0.0717
 4560W        W20029  16.101  13.244   3.963 -0.0211 -0.0850 -0.0361
 4561W        W20030  15.141   6.407   0.001  0.0499 -0.1770  0.3941
 4562W        W20031   2.696   2.931   2.700 -0.0159  0.1942 -0.2391
 4563W        W20032   2.557  10.438  13.875 -0.0008 -0.0578  0.0641
 4564W        W20033  12.571  13.358  12.355  0.2857 -0.0311  0.0417
 4565W        W20034   4.568  17.448  16.612 -0.0691  0.0334 -0.3117
 4566W        W20035  16.912   3.198   2.827 -0.1793 -0.2276  0.2338
 4567W        W20036  13.843   2.128  16.190  0.0141  0.2015 -0.2446
 4568W        W20037   0.089   0.322  15.285 -0.0268  0.1919 -0.0788
 4569W        W20038   6.283  11.054   0.529 -0.2637  0.0683 -0.0498
 4570W        W20039  12.846  15.844   5.790 -0.1988 -0.2393  0.1359
 4571W        W20040   5.467   5.075  11.365 -0.0173 -0.0218 -0.2823
 4572W        W20041   3.293   9.895   3.689  0.0789  0.0462 -0.0619
 4573W        W20042  10.327  12.972   3.896 -0.0468 -0.0478 -0.0280
 4574W        W20043   7.410  11.760   5.196  0.0223 -0.0875  0.1481
 4575W        W20044  13.434  13.240   1.118  0.3251 -0.0632 -0.2024
 4576W        W20045  16.041   6.570  16.298  0.2700 -0.3093  0.1572
 4577W        W20046  13.269   6.055  14.765  0.1633  0.2575 -0.0742
 4578W        W20047  17.766   2.110  13.189 -0.1629  0.4102  0.0982
 4579W        W20048  17.411  10.952   2.861 -0.1230 -0.1947  0.1903
 4580W        W20049   5.201   5.601  12.284 -0.2866  0.0733  0.2931
 4581W        W20050   8.815   6.931  12.687  0.0182 -0.1803 -0.0579
 4582W        W20051   0.827  12.691  11.346 -0.2084 -0.1964  0.0199
 4583W        W20052   4.774  17.111  16.371  0.0090  0.1247  0.0181
 4584W        W20053  16.574   3.040  16.267 -0.2974  0.1251 -0.1726
 4585W        W20054  12.084   5.580  14.746  0.1216  0.0616  0.1294
 4586W        W20055   9.801   5.182   0.580  0.1754  0.0712 -0.0350
 4587W        W20056   3.372   9.785  15.279  0.0601 -0.0353  0.2444
 4588W        W20057  13.069  17.854   1.474  0.1790  0.0565  0.0161
 4589W        W20058   2.094  15.012   2.524 -0.0092 -0.2702 -0.2036
 4590W        W20059  15.164  12.957   3.865 -0.1664  0.0060  0.0099
 4591W        W20060  14.010   5.144  15.897 -0.1838  0.2338  0.0317
 4592W        W20061  12.545  11.803   2.359  0.3738 -0.2063  0.0325
 4593W        W20062  12.695   2.833  13.645  0.1660  0.0741 -0.0032
 4594W        W20063  11.346  13.453  13.897 -0.0465  0.0430  0.2427
 4595W        W20064   3.320   7.212   5.754  0.0493 -0.1883 -0.1717
 4596W        W20065  13.990  12.971  12.516  0.2646 -0.1228 -0.1754
 4597W        W20066   9.984   6.513   0.865  0.0451 -0.1015 -0.2411
 4598W        W20067  14.040   9.846   0.409  0.1142  0.1147  0.2147
 4599W        W20068  13.010  17.954   5.175 -0.0158  0.3141  0.2452
 4600W        W20069   0.129   4.974  15.671 -0.0158 -0.1948 -0.4496
 4601W        W20070   8.749   8.635  12.611  0.1772  0.0290  0.0167
 4602W        W20071   3.047   0.304  11.755 -0.0847 -0.2188 -0.0092
 4603W        W20072   3.863   9.888   2.028  0.2981  0.1388  0.1197
 4604W        W20073  11.820   2.295  15.019  0.5598  0.1085  0.1779
 4605W        W20074   4.201   8.231  13.295  0.1711 -0.1061  0.0511
 4606W        W20075   2.783   9.229   0.621 -0.0872  0.0270 -0.1939
 4607W        W20076  16.715  10.061   0.443 -0.0612  0.5876 -0.1360
 4608W        W20077  11.194   4.423   4.724  0.0155 -0.0848  0.2856
 4609W        W20078  16.444   2.012   4.699 -0.0222  0.1972 -0.1041
 4610W        W20079   0.627   6.411  12.098  0.1997  0.1898  0.0090
 4611W        W20080  12.185   7.539   0.526  0.2389 -0.3156  0.2216
 4612W        W20081   3.368   9.107   5.827  0.2227 -0.2789  0.1086
 4613W        W20082  12.836   6.287  14.985 -0.1653 -0.1788 -0.1626
 4614W        W20083   0.659   0.963   2.381 -0.2667 -0.1638  0.1016
 4615W        W20084  11.584  15.435   0.358  0.1445  0.1174  0.3959
 4616W        W20085  16.841  12.178  15.423 -0.0875 -0.1389 -0.0486
 4617W        W20086  12.376  16.354  11.828  0.2379  0.1064  0.0986
 4618W        W20087  16.519  10.721   4.351 -0.1123  0.0905  0.1705
 4619W        W20088   3.802  11.139  13.665 -0.2125 -0.0214 -0.1223
 4620W        W20089   3.371   6.737   4.856 -0.0051 -0.1662  0.0877
 4621W        W20090   1.599  15.436  14.334 -0.2771  0.4420  0.0225
 4622W        W20091   2.828  14.798  14.986 -0.1252 -0.2314  0.0769
 4623W        W20092  17.831   8.356   9.999 -0.0568  0.1050 -0.1700
 4624W        W20093   1.717   9.918  11.537 -0.0406  0.1874  0.0076
 4625W        W20094   4.213  14.276   0.064 -0.3747  0.1078 -0.2166
 4626W        W20095   6.698   7.943   5.478  0.1018 -0.2281 -0.1894
 4627W        W20096  13.529   8.715   2.494  0.0507 -0.2345 -0.0444
 4628W        W20097   9.912  10.711   5.779  0.2139 -0.1362 -0.0189
 4629W        W20098   5.719   1.119   5.656  0.0047 -0.1445  0.0278
 4630W        W20099  10.918  10.907   5.879 -0.1425  0.2355 -0.0432
 4631W        W20100  17.697  14.088   1.000  0.0359 -0.3079 -0.0490
 4632W        W20101   5.717   7.015  14.956  0.3682  0.0399  0.3302
 4633W        W20102   0.486  14.094   4.593 -0.0255  0.1690 -0.1689
 4634W        W20103   5.393  11.031  13.386 -0.0570  0.1434  0.2088
 4635W        W20104  16.557  17.164  15.150  0.2735  0.0169 -0.0208
 4636W        W20105   8.295  11.695   1.083  0.1038  0.2632  0.0007
 4637W        W20106  15.960   7.424   0.378 -0.0483 -0.0601 -0.1993
 4638W        W20107   7.594  14.753  11.037 -0.1791  0.1140  0.1015
 4639W        W20108  17.356   9.851   5.258 -0.2471 -0.2183 -0.0848
 4640W        W20109   6.166  16.097  16.158 -0.0369  0.0626 -0.1980
 4641W        W20110   7.972  11.840  15.563 -0.1415  0.3046 -0.4368
 4642W        W20111   6.962  11.540   4.004 -0.1639 -0.1988  0.0142
 4643W        W20112   9.800   3.636   4.453  0.1120 -0.4620  0.0398
 4644W        W20113   3.671  13.583  11.653 -0.2092  0.1545  0.1072
 4645W        W20114   0.303   2.848  15.315 -0.1694  0.0028 -0.1363
 4646W        W20115   6.251   7.953   2.689 -0.0885  0.3426  0.1529
 4647W        W20116  17.512   7.631   4.469 -0.0146 -0.5653 -0.1114
 4648W        W20117   8.192   4.801   1.639 -0.0440 -0.1524  0.0770
 4649W        W20118   6.631   2.529   4.280  0.0723  0.0756 -0.1337
 4650W        W20119   2.073   7.443  10.715  0.0585  0.1596  0.0847
 4651W        W20120  10.200  13.437  12.892 -0.0963  0.0865  0.2515
 4652W        W20121   3.060   0.223   2.817  0.0817  0.0829  0.0692
 4653W        W20122   2.822  15.282  15.020 -0.1506  0.1081  0.0416
 4654W        W20123   7.120  10.223  12.785  0.2748  0.2252 -0.0813
 4655W        W20124   3.539  16.156   3.879 -0.0511  0.1259 -0.0667
 4656W        W20125  15.724  11.772   2.602 -0.0929 -0.3290 -0.1048
 4657W        W20126  17.920   1.545  14.408 -0.0226 -0.1247 -0.0567
 4658W        W20127   2.716   0.786  13.384  0.2279 -0.2300 -0.2641
 4659W        W20128  14.906   9.589   3.609  0.2348 -0.1039 -0.2528
 4660W        W20129   6.223   0.894  13.488 -0.1678 -0.2451  0.0260
 4661W        W20130   0.239   4.042   2.774  0.3411  0.1481  0.3045
 4662W        W20131   1.153   7.429  10.270  0.2291 -0.1197  0.0760
 4663W        W20132   5.995  13.168  12.960  0.2128  0.0100  0.1496
 4664W        W20133   2.603  16.858  14.687  0.0796  0.1011 -0.4964
 4665W        W20134  10.615   4.194   0.705 -0.2472  0.0194 -0.0489
 4666W        W20135  16.491   9.863   2.074 -0.0429  0.0615 -0.0240
 4667W        W20136  11.466   0.800   0.803 -0.1399 -0.0547 -0.4694
 4668W        W20137   7.475   8.611  13.174 -0.0338  0.0746  0.0062
 4669W        W20138   2.980  16.710  15.006  0.1881 -0.1443  0.1812
 4670W        W20139  11.765  15.750   0.872  0.0003 -0.1468  0.0336
 4671W        W20140  15.691   6.437   3.703  0.4511 -0.0253  0.2792
 4672W        W20141   1.054  14.232  13.208  0.1923  0.0441 -0.2184
 4673W        W20142  15.391  14.547  16.458 -0.1227  0.1111  0.2607
 4674W        W20143   7.186   4.274   2.960 -0.3441  0.1799 -0.2977
 4675W        W20144  11.511   5.837  13.579  0.2311  0.0337  0.0368
 4676W        W20145   9.237  10.108  16.103  0.0329 -0.0784  0.3130
 4677W        W20146  16.797  16.513  13.233 -0.1623 -0.1103  0.0026
 4678W        W20147   2.942  17.481   0.636 -0.2477 -0.4587  0.0020
 4679W        W20148   7.485   7.678  13.795 -0.1314 -0.0601 -0.0635
 4680W        W20149   7.007   0.533  13.158 -0.0751  0.0945  0.1253
 4681W        W20150   1.097   4.778  15.900 -0.2694 -0.1212  0.0625
 4682W        W20151  10.892   5.713   5.616  0.0332  0.3098 -0.1186
 4683W        W20152   5.510   1.195  15.208 -0.3339 -0.0607 -0.0087
 4684W        W20153  10.162   1.146   3.781 -0.3129 -0.1259 -0.0668
 4685W        W20154  11.038   1.083   0.861 -0.2103 -0.0546 -0.3926
 4686W        W20155   5.555   6.028   3.235 -0.1147 -0.1339 -0.1497
 4687W        W20156   7.059   9.726   0.084 -0.0168 -0.0318 -0.0176
 4688W        W20157   1.037  16.796  11.753  0.1113 -0.0443  0.1562
 4689W        W20158  11.538   8.711  14.100 -0.1302  0.0869 -0.2602
 4690W        W20159   7.776   2.274   0.053  0.0033 -0.0592  0.1547
 4691W        W20160   0.089   9.045  14.698  0.3518 -0.0191 -0.1667
 4692W        W20161  16.549   8.038  11.055  0.0525 -0.2364 -0.1686
 4693W        W20162   6.996  15.268   0.183 -0.1239 -0.0349 -0.0955
 4694W        W20163   4.956   2.654   3.556 -0.0436 -0.0578 -0.0800
 4695W        W20164   9.977  16.754   5.711  0.0819  0.0957 -0.0294
 4696W        W20165   9.735   5.271   0.057  0.0168  0.1785  0.2488
 4697W        W20166  16.510   9.825   4.143  0.0606  0.1414  0.2800
 4698W        W20167   9.515  15.304  15.167 -0.1287  0.3119 -0.3247
 4699W        W20168   6.628   4.084   1.747  0.5165 -0.2271 -0.0083
 4700W        W20169   3.055  16.579   1.633 -0.1946  0.1472 -0.2027
 4701W        W20170  12.670  16.699   3.667  0.1203  0.1253 -0.2034
 4702W        W20171   3.904  15.608  15.346  0.2445  0.1208  0.1031
 4703W        W20172   5.451   5.348  12.650 -0.0879  0.1767 -0.2346
 4704W        W20173   2.226   8.435   4.329 -0.3466 -0.2655 -0.0108
 4705W        W20174  12.443   0.954  15.801 -0.4018 -0.0861  0.3122
 4706W        W20175   5.786   0.732  15.366  0.4021 -0.2195 -0.0065
 4707W        W20176   6.158   1.282   3.836  0.0007  0.2223  0.3409
 4708W        W20177  13.066  15.303  14.111  0.1991  0.3264  0.1502
 4709W        W20178   1.443   9.633  11.914 -0.2614  0.0951  0.3182
 4710W        W20179   8.464   1.654  10.975 -0.0165  0.0777 -0.0153
 4711W        W20180   0.518   9.118  14.332  0.1171 -0.2556 -0.1089
 4712W        W20181   4.464  14.760   1.169  0.0580 -0.3077 -0.0990
 4713W        W20182  14.429  14.874  15.764  0.1443  0.1094 -0.0748
 4714W        W20183   7.107  17.891  13.116  0.0682  0.5151  0.1446
 4715W        W20184   6.712   6.710  15.385 -0.0602  0.1567 -0.5042
 4716W        W20185  14.933   6.950   2.178 -0.0177 -0.0820 -0.0564
 4717W        W20186  12.972  10.211   1.398  0.2068  0.0794 -0.1224
 4718W        W20187  13.253   1.144  15.695 -0.2191  0.0614  0.2801
 4719W        W20188   0.782  11.539   4.863 -0.0898  0.1423 -0.0363
 4720W        W20189   4.843   1.637   1.180  0.0735 -0.1899  0.2187
 4721W        W20190  13.974  13.669  15.227  0.0218  0.0439 -0.1266
 4722W        W20191   5.325   1.351  14.343  0.1116 -0.0978  0.2767
 4723W        W20192   5.143   7.319   4.713  0.0533 -0.0122 -0.1565
 4724W        W20193   9.553  10.817   3.903  0.1472  0.5637  0.0852
 4725W        W20194  15.761  17.314   1.338  0.1869  0.0509 -0.1154
 4726W        W20195   8.905   3.754   1.633  0.1457  0.2238  0.0494
 4727W        W20196  13.180  10.890  12.966 -0.0297  0.1675 -0.2734
 4728W        W20197   0.748   5.529  11.678  0.2457 -0.0390 -0.2598
 4729W        W20198  10.808   8.273  10.390  0.1540 -0.1091  0.0797
 4730W        W20199  16.879  12.940  16.093 -0.2709 -0.0139 -0.0901
 4731W        W20200  13.812  11.136  12.521  0.0222 -0.2210  0.2417
 4732W        W20201  16.604   5.472  12.107 -0.0958 -0.3139 -0.1004
 4733W        W20202   6.308   9.778  16.586  0.2699 -0.5896 -0.1374
 4734W        W20203  13.810   2.398  15.484  0.0618  0.1156  0.0029
 4735W        W20204  13.710   0.442   1.931  0.1308  0.1505  0.0473
 4736W        W20205   5.642   7.059   3.645 -0.0264 -0.0671 -0.0664
 4737W        W20206  14.492   8.315  12.016 -0.0188 -0.1906 -0.0714
 4738W        W20207  17.234  16.534  14.023  0.1533 -0.0393  0.0793
 4739W        W20208  14.484   4.376   5.791 -0.2905 -0.1469 -0.2140
 4740W        W20209   9.859   8.565  16.143  0.2813  0.1924  0.0177
 4741W        W20210  16.088   2.853  15.020  0.0244  0.2647 -0.0624
 4742W        W20211   9.752   0.320  13.278 -0.1945 -0.4711 -0.0847
 4743W        W20212   4.592   5.600   2.198 -0.0597 -0.0038 -0.2202
 4744W        W20213  11.246  12.549   2.903 -0.0109 -0.1237  0.0022
 4745W        W20214  17.986   3.861   3.617 -0.0831 -0.1482 -0.1489
 4746W        W20215   7.164  12.265  12.155 -0.0956  0.2151 -0.0558
 4747W        W20216   3.486  15.421  16.321 -0.1508  0.4385 -0.1517
 4748W        W20217   2.155  15.886   2.847 -0.1585 -0.0501  0.1341
 4749W        W20218  16.779  13.394  15.213 -0.1044 -0.0172  0.2114
 4750W        W20219   0.677  12.683  12.883  0.0327 -0.0167  0.0488
 4751W        W20220  12.560   7.430   1.381  0.1002  0.1404 -0.0203
 4752W        W20221   3.814  16.546   0.986 -0.1334 -0.0251  0.0661
 4753W        W20222   6.030   7.229  14.546 -0.1896  0.2093  0.1336
 4754W        W20223   6.567  15.876  11.319 -0.0796 -0.3606  0.1344
 4755W        W20224   7.626  10.399   0.237  0.1410  0.0971  0.0990
 4756W        W20225   8.228   0.581   3.555 -0.0486 -0.1198  0.2090
 4757W        W20226   3.215  10.323   4.544 -0.0189  0.0148 -0.2450
 4758W        W20227   0.718  11.090   0.295  0.2418 -0.0888 -0.0571
 4759W        W20228   2.770   7.926  10.896  0.0664  0.0706 -0.1016
 4760W        W20229  17.321  12.248   4.524 -0.0806  0.0683  0.2749
 4761W        W20230   7.695   5.944   5.657  0.3674 -0.1945 -0.1852
 4762W        W20231   8.990  14.883   1.816 -0.2182  0.1644  0.1153
 4763W        W20232   7.631   3.260   6.155 -0.0225 -0.0763  0.0765
 4764W        W20233  15.235   6.836  15.071 -0.0989  0.2202 -0.0573
 4765W        W20234  15.036   4.328   0.861 -0.2132  0.2984 -0.2837
 4766W        W20235   5.462  11.954  14.327  0.2122  0.0179  0.0713
 4767W        W20236   5.164  11.501   4.502 -0.0006 -0.1645  0.2140
 4768W        W20237  16.298  16.613   0.269  0.2656  0.1289 -0.0979
 4769W        W20238   2.324  12.786  15.649 -0.1764 -0.0088 -0.1376
 4770W        W20239   6.811   6.027  12.873 -0.1241 -0.2955 -0.0005
 4771W        W20240  12.970   8.227   4.835 -0.1229  0.1539 -0.0084
 4772W        W20241   3.005   1.692   0.284 -0.4109 -0.0232  0.1196
 4773W        W20242   5.215  13.748   2.737 -0.0952 -0.2144 -0.0629
 4774W        W20243  11.524   4.906   0.576 -0.1364  0.0620 -0.1662
 4775W        W20244   4.682   4.588   2.409  0.0312 -0.1264  0.0608
 4776W        W20245  10.929  17.420  14.216  0.2609 -0.0431 -0.1396
 4777W        W20246   1.841  11.345  16.321 -0.2009 -0.0799  0.1675
 4778W        W20247  16.094   9.642   3.977 -0.1146  0.1705  0.0755
 4779W        W20248  10.949   1.411   2.198  0.1202  0.1646  0.0104
 4780W        W20249   3.642   6.256   4.865 -0.1684  0.1894  0.1675
 4781W        W20250  10.849  16.638   3.985  0.0656 -0.0783 -0.0972
 4782W        W20251  10.872  11.794  14.674  0.1803  0.0099  0.0110
 4783W        W20252   7.627  15.326   3.190  0.0263  0.2387 -0.1087
 4784W        W20253   2.178   3.684  13.819  0.1674  0.3945  0.1882
 4785W        W20254   5.256  16.599   6.302 -0.2014 -0.1841 -0.2627
 4786W        W20255  13.561   9.625  11.083 -0.1076  0.0488 -0.3209
 4787W        W20256   6.057  12.074  14.581 -0.0704 -0.0998  0.1412
 4788W        W20257   4.384   3.871  15.365 -0.3570  0.0026  0.0081
 4789W        W20258   4.948   9.414   2.298 -0.0981  0.0419 -0.0078
 4790W        W20259  17.040  13.972  12.289 -0.0882 -0.1628  0.2055
 4791W        W20260   3.099   8.384   5.307  0.0986  0.2199  0.1169
 4792W        W20261  16.732  14.271  14.573 -0.3398  0.1308  0.0279
 4793W        W20262  17.740  11.854   4.790 -0.2437 -0.2620 -0.1117
 4794W        W20263  14.547  15.015  13.064 -0.1189  0.1813  0.1840
 4795W        W20264  11.595   4.744  11.358  0.1450 -0.3920 -0.0237
 4796W        W20265  15.421   1.978  11.302  0.1668  0.1326  0.0155
 4797W        W20266   6.823   9.116  15.604  0.2246  0.1665 -0.0644
 4798W        W20267  14.009  12.084  15.004 -0.0563  0.1868  0.1424
 4799W        W20268   9.876  10.854   2.335 -0.1707  0.0969 -0.1825
 4800W        W20269   2.659  14.335  14.158  0.0783  0.2134  0.0716
 4801W        W20270   4.613   5.148   1.844  0.0082  0.3212  0.1646
 4802W        W20271   5.473  11.704   4.957 -0.0468  0.3942  0.1561
 4803W        W20272   5.423  15.137   2.213 -0.0731  0.0003 -0.0804
 4804W        W20273  11.691   7.243   2.478 -0.2347  0.2534  0.1697
 4805W        W20274   0.637   1.401  16.253  0.0051  0.1206  0.2477
 4806W        W20275   8.273   8.722   4.511  0.1144  0.4285 -0.0973
 4807W        W20276   8.934   8.926   3.558 -0.0981  0.2252 -0.4433
 4808W        W20277  12.950  13.155  16.016  0.2898 -0.2272 -0.0217
 4809W        W20278   2.800   9.981   0.139 -0.4703 -0.0449 -0.2920
 4810W        W20279  15.042   0.019   6.193 -0.2432 -0.1209 -0.2303
 4811W        W20280   2.961  16.565   2.151 -0.3101 -0.2579 -0.3496
 4812W        W20281   0.608  10.403   5.195 -0.3551  0.1141  0.1560
 4813W        W20282   8.121  11.219   0.222  0.2493 -0.1136 -0.2252
 4814W        W20283   5.575   9.425  11.709 -0.0142  0.0631  0.2639
 4815W        W20284   2.904  14.135   0.216  0.1055  0.2630  0.1335
 4816W        W20285  14.719  15.714   5.308 -0.3344  0.0448  0.1863
 4817W        W20286  12.972   7.655   4.933  0.2875 -0.0925  0.0269
 4818W        W20287  11.624  17.857  16.240 -0.0133  0.0622  0.2520
 4819W        W20288  16.115  12.939   0.282  0.0633  0.0776  0.2211
 4820W        W20289  12.259  12.154  12.593  0.0147 -0.0448 -0.0061
 4821W        W20290   8.858   7.015  13.602 -0.0299  0.0003 -0.0983
 4822W        W20291  11.497  15.832  12.781  0.2832  0.0151 -0.2752
 4823W        W20292   0.768  13.479  16.307  0.0649 -0.2408 -0.1366
 4824W        W20293  12.867  15.150   5.077 -0.1131 -0.0807 -0.1639
 4825W        W20294  16.861   2.182   3.266 -0.3899 -0.1730  0.2156
 4826W        W20295  17.142   2.819  12.752 -0.2129  0.4364  0.3501
 4827W        W20296  16.367  11.469   4.304 -0.2808  0.1220  0.3121
 4828W        W20297  11.536   4.035  12.939 -0.1066 -0.0492  0.4015
 4829W        W20298   7.412   4.332   4.624 -0.0330 -0.1894 -0.0976
 4830W        W20299  15.145   4.359   1.348 -0.2797  0.1311  0.1592
 4831W        W20300   0.129  16.173  15.064  0.1103 -0.0276  0.1690
 4832W        W20301  15.690  15.064  15.548 -0.0563 -0.0811  0.1057
 4833W        W20302   5.220  14.427   0.941  0.1073 -0.2502  0.0875
 4834W        W20303   1.731  11.555  11.477 -0.1642  0.3793  0.0909
 4835W        W20304   1.047  17.726   6.252 -0.0832 -0.2044 -0.0373
 4836W        W20305   4.946  17.303  13.181 -0.0701 -0.1823 -0.0941
 4837W        W20306   3.323   4.205  14.734  0.2172  0.1993  0.1581
 4838W        W20307  12.865  15.920  10.998 -0.4029  0.0986  0.0584
 4839W        W20308   5.658   9.306  14.038  0.0214 -0.0199 -0.3194
 4840W        W20309   7.234   5.080   5.719  0.0924  0.2489 -0.2132
 4841W        W20310   2.747  11.959  15.143 -0.0017  0.1500 -0.2242
 4842W        W20311   3.361   5.396   1.089 -0.1674  0.0655  0.1591
 4843W        W20312   9.657  14.344  12.147 -0.2470 -0.1220 -0.0670
 4844W        W20313  17.990  12.627   1.363 -0.1753  0.1463 -0.1368
 4845W        W20314   8.022  11.233  15.497  0.0915 -0.0452  0.1759
 4846W        W20315  13.334  14.778   0.608 -0.2396  0.1015  0.0352
 4847W        W20316  15.690   9.869   1.867 -0.0145 -0.0354  0.3182
 4848W        W20317  15.708  16.770  12.770 -0.0607 -0.2996 -0.1180
 4849W        W20318  11.195   1.962  12.789  0.2137  0.0298  0.0431
 4850W        W20319   5.087  11.547  12.122  0.1534  0.0096 -0.1407
 4851W        W20320  17.525   5.272  14.575  0.1105 -0.1400  0.2685
 4852W        W20321  11.857   9.783  12.696  0.2909 -0.1377  0.0310
 4853W        W20322   9.141   1.750   5.445 -0.1561 -0.1265 -0.0285
 4854W        W20323  10.561  11.318  12.833 -0.2976 -0.2679  0.1462
 4855W        W20324   5.079   7.421   4.230 -0.0561 -0.0376  0.1790
 4856W        W20325  12.463  13.864  14.602  0.0180 -0.0745 -0.0250
 4857W        W20326  13.852   1.170  13.892  0.1991 -0.0696 -0.2237
 4858W        W20327  13.553  10.158   3.575 -0.2400  0.2860  0.1427
 4859W        W20328   4.515  12.985   3.819 -0.1780  0.1635  0.2214
 4860W        W20329   0.792  12.415   0.012  0.1925 -0.0881  0.1201
 4861W        W20330  10.133   6.147  16.052  0.0820 -0.0884  0.0838
 4862W        W20331   3.139  16.107  13.030  0.0477 -0.2488 -0.1050
 4863W        W20332   4.826  10.339  12.858  0.0881 -0.0124  0.1534
 4864W        W20333  11.188   8.465   2.787  0.1370 -0.1717 -0.0229
 4865W        W20334   3.959   9.712   5.059 -0.1475 -0.1064 -0.0003
 4866W        W20335  15.552   3.126  12.412  0.0719  0.1307  0.1923
 4867W        W20336   0.267  13.073   3.942  0.2113 -0.0241 -0.1452
 4868W        W20337   0.484  10.846   3.721 -0.0940  0.4960  0.0386
 4869W        W20338   8.653  11.696   4.379 -0.0430 -0.0067 -0.0917
 4870W        W20339  11.210  17.267  13.825 -0.2059  0.1118  0.2861
 4871W        W20340  17.064  14.188   5.641  0.0608 -0.2014  0.1714
 4872W        W20341   5.982  13.089   1.742  0.1479 -0.4087 -0.1084
 4873W        W20342   7.998   9.729  12.104  0.0403  0.0987 -0.1114
 4874W        W20343  12.081  15.802  13.335 -0.1540 -0.1338  0.3021
 4875W        W20344   8.320   8.875  10.977 -0.1931  0.0998  0.0827
 4876W        W20345   6.880  16.566   4.274  0.2170  0.0338  0.0009
 4877W        W20346   2.753  16.002  11.226  0.0418  0.1700  0.1200
 4878W        W20347   8.886  14.959   5.141  0.1145  0.0980 -0.0548
 4879W        W20348  13.607   1.131   3.256 -0.2374  0.1904 -0.2552
 4880W        W20349   0.512   3.725  11.129 -0.4389  0.0212  0.0037
 4881W        W20350  13.332   2.401   1.721 -0.1936  0.0952  0.0817
 4882W        W20351  16.675   3.165   3.286  0.1220 -0.3081 -0.0123
 4883W        W20352  11.203   0.001   5.839 -0.0679  0.0563 -0.2109
 4884W        W20353  15.529   1.895  11.852  0.2314 -0.0264  0.0217
 4885W        W20354   7.043  13.807   5.753  0.0017  0.1218  0.1637
 4886W        W20355   6.261  13.191  13.928 -0.0548  0.0843 -0.0406
 4887W        W20356   3.387  16.348   0.784  0.0770  0.0632 -0.1917
 4888W        W20357  17.867  10.180  13.863  0.1658 -0.2168  0.1034
 4889W        W20358  14.879  14.148   1.161  0.0997  0.3312 -0.2184
 4890W        W20359  16.200   1.397  14.493  0.0339 -0.0627  0.1276
 4891W        W20360   9.490  12.588  15.799 -0.0525 -0.2077  0.0046
 4892W        W20361   4.637  10.612   1.763  0.0832 -0.0723 -0.1564
 4893W        W20362  12.904   5.547   5.060 -0.0152  0.2081 -0.0159
 4894W        W20363   0.540  13.523   3.964 -0.3063  0.0050 -0.0387
 4895W        W20364   2.223   8.960   2.778  0.0963  0.2553 -0.1100
 4896W        W20365   5.881   2.762   3.182  0.1036 -0.1837  0.1628
 4897W        W20366  16.725  14.311   0.669 -0.0401 -0.0499 -0.4263
 4898W        W20367  16.274   0.960  11.765  0.0770  0.0760 -0.0330
 4899W        W20368  14.172   7.456   2.618  0.0361  0.3103 -0.2425
 4900W        W20369   7.482   2.281   3.185  0.2564  0.2227  0.1214
 4901W        W20370  13.279   4.407  11.696  0.1107  0.1812 -0.1201
 4902W        W20371   1.786   6.842  16.299  0.0139 -0.4069 -0.1923
 4903W        W20372   5.237   3.477  12.460 -0.2188 -0.0054 -0.1109
 4904W        W20373   8.499  13.197   0.120  0.0910 -0.2799 -0.1595
 4905W        W20374   4.965   1.861  12.823  0.3072  0.1994  0.1615
 4906W        W20375  17.031   7.111  14.817  0.2072  0.2060 -0.2110
 4907W        W20376   4.263   5.343  15.782 -0.1228 -0.0767 -0.2018
 4908W        W20377   4.184  17.421   1.741  0.0921  0.0089  0.0572
 4909W        W20378   3.032   2.924  12.166  0.1052  0.0051 -0.1307
 4910W        W20379   5.675   9.021   5.107  0.0010  0.0951  0.0691
 4911W        W20380   1.207   3.406  13.064 -0.0443 -0.0805 -0.3708
 4912W        W20381   7.459  17.197   1.900 -0.1351  0.1413 -0.2090
 4913W        W20382  17.856   6.498  13.954  0.0841  0.1450  0.1806
 4914W        W20383   3.298   7.449   3.137  0.0907  0.1313 -0.0377
 4915W        W20384  17.608   0.245   4.160  0.1054  0.0823  0.1894
 4916W        W20385  15.169  10.518  16.456 -0.0618  0.2049 -0.2594
 4917W        W20386  16.111   0.941  11.268 -0.1034  0.2505  0.1429
 4918W        W20387   2.425   5.360   0.189 -0.1494  0.1126 -0.1277
 4919W        W20388   4.790   1.532  12.085  0.1272  0.1361 -0.1564
 4920W        W20389  13.453   2.397  15.066 -0.1010 -0.0529 -0.1147
 4921W        W20390   3.854   8.836   3.166  0.0557  0.1668 -0.1188
 4922W        W20391   4.341   5.517  11.997  0.1950  0.1093 -0.0950
 4923W        W20392  17.838   5.148  11.528 -0.2615 -0.0721  0.3710
 4924W        W20393   7.458  11.318  12.345 -0.3562 -0.2204  0.0981
 4925W        W20394   4.609   9.436  14.289  0.1421 -0.1166  0.2351
 4926W        W20395  14.068  16.798   5.182  0.2165  0.1864  0.0085
 4927W        W20396   3.959   3.115  15.356 -0.2709 -0.0323 -0.0888
 4928W        W20397   5.085   3.811  16.091 -0.3974  0.0311  0.2011
 4929W        W20398   5.345  13.679   3.257  0.2249  0.3863 -0.1467
 4930W        W20399   0.851  10.625   4.104  0.2986  0.1056 -0.0015
 4931W        W20400  15.467   6.204   0.304 -0.1634  0.0275  0.0200
 4932W        W20401  16.138   5.895  15.752  0.4536 -0.0834 -0.1845
 4933W        W20402  13.676   6.136  11.958  0.0360 -0.2968 -0.3091
 4934W        W20403   5.958   1.487   4.322  0.1522  0.2872 -0.1735
 4935W        W20404   5.077   8.806   5.455  0.1313  0.2035  0.2238
 4936W        W20405   7.212  15.700   3.103 -0.2550  0.1724 -0.0641
 4937W        W20406  16.203  14.269   1.494  0.3612 -0.0975  0.0806
 4938W        W20407  10.796  15.146  13.088 -0.4011 -0.0032  0.0597
 4939W        W20408  11.615  14.720  13.424 -0.0839 -0.1572  0.0256
 4940W        W20409   7.838   0.261   1.533  0.3209  0.1035 -0.1493
 4941W        W20410   8.010   8.467   4.878  0.0762 -0.1901 -0.0770
 4942W        W20411   0.985  15.149  14.171  0.1211  0.2259  0.2843
 4943W        W20412   1.639   9.406  14.478  0.0781  0.0438 -0.1928
 4944W        W20413  12.439   5.046  16.108  0.0272  0.2322 -0.0041
 4945W        W20414  15.106   7.897  12.573  0.0990 -0.0986 -0.3503
 4946W        W20415   5.691   0.579  15.937  0.1215  0.2855 -0.1659
 4947W        W20416  15.713   6.266  10.789 -0.0439 -0.1136 -0.4242
 4948W        W20417  13.886  17.196   0.079  0.0431 -0.0963 -0.3542
 4949W        W20418  12.332   6.179   1.700 -0.0687  0.2722  0.2939
 4950W        W20419  11.070  14.868   6.474  0.2720 -0.3387 -0.4163
 4951W        W20420   9.657   2.872  15.908 -0.0446 -0.0951 -0.0676
 4952W        W20421  12.771  13.046  15.060  0.0648 -0.3136 -0.1967
 4953W        W20422   2.235   4.447   1.892 -0.0693 -0.3370 -0.1196
 4954W        W20423  16.394   0.068  15.575  0.2160 -0.1448  0.2692
 4955W        W20424  17.350   7.687   1.721  0.3183 -0.2422  0.0385
 4956W        W20425   1.538   1.241  11.219 -0.1137 -0.3030 -0.2356
 4957W        W20426   0.351  10.652  11.875  0.2265  0.1108 -0.1102
 4958W        W20427  17.870  16.091  12.238 -0.0612 -0.2385  0.0891
 4959W        W20428  10.689  14.027  14.279  0.0977 -0.2397 -0.0643
 4960W        W20429  17.990   2.705   1.194 -0.0440  0.0470 -0.0089
 4961W        W20430   5.188  11.002   0.891  0.2005 -0.2888 -0.0970
 4962W        W20431   9.818   6.477  16.479 -0.1318  0.0793 -0.1150
 4963W        W20432  16.232  10.335   0.715 -0.1095  0.0141  0.1347
 4964W        W20433   2.618  11.223   1.555  0.1062  0.1635 -0.2428
 4965W        W20434  14.901   4.749  12.174 -0.0714 -0.1254 -0.1609
 4966W        W20435  16.160  17.507   0.165  0.1133  0.0672  0.3049
 4967W        W20436  12.344  14.546  12.610 -0.1657  0.2632 -0.1239
 4968W        W20437   2.644  14.489  12.637  0.0798 -0.0317 -0.1823
 4969W        W20438  12.147   4.662  12.009  0.2175  0.2061  0.3245
 4970W        W20439  11.787   2.485  13.278  0.1278 -0.0590 -0.0255
 4971W        W20440   1.657   3.402  16.258 -0.1882  0.3918 -0.1609
 4972W        W20441   1.757  17.877   5.256  0.2005 -0.0380 -0.1013
 4973W        W20442  16.547  11.147   0.306 -0.1271  0.1279 -0.0210
 4974W        W20443  11.590  17.546  14.175 -0.2472  0.1857 -0.2342
 4975W        W20444  12.359   7.064  14.682 -0.3681  0.1484 -0.0080
 4976W        W20445  11.091  14.453   4.578  0.0690  0.1785  0.2695
 4977W        W20446   0.065  14.496   3.350  0.2492  0.0934  0.0443
 4978W        W20447  17.809  14.117   0.505 -0.1954  0.0603  0.0200
 4979W        W20448   7.325   2.156  14.122 -0.0267  0.2842 -0.0859
 4980W        W20449   8.708  17.889   4.311 -0.1569  0.0643  0.0407
 4981W        W20450  13.741  14.759  12.466 -0.0679  0.0662  0.1558
 4982W        W20451   4.284   1.357  13.891  0.2508 -0.1015 -0.1583
 4983W        W20452  13.776   8.157   1.639 -0.0834 -0.1251  0.2675
 4984W        W20453   9.071  11.931  16.109 -0.0387 -0.1652 -0.4101
 4985W        W20454  13.734  13.848  12.106 -0.2064  0.1051  0.4908
 4986W        W20455  17.065   7.706  16.071 -0.0637 -0.2956  0.2941
 4987W        W20456   1.747  10.620   0.087  0.2092  0.1761  0.2517
 4988W        W20457   2.397   1.008  15.289  0.1052  0.1518 -0.1701
 4989W        W20458   9.329   2.457   5.561 -0.2714 -0.0632  0.0570
 4990W        W20459   6.989  15.606  12.010  0.1225  0.2021 -0.0016
 4991W        W20460  16.338   5.074  14.542 -0.1731  0.0358 -0.4094
 4992W        W20461  15.340   7.404  12.655  0.0713 -0.0512  0.1182
 4993W        W20462  13.354   6.334  13.694  0.1792 -0.0662 -0.0987
 4994W        W20463   5.131   2.854  16.100 -0.0360 -0.0713  0.0365
 4995W        W20464  14.078   4.719  16.492  0.0597 -0.2446 -0.0088
 4996W        W20465   4.700  17.473   3.613 -0.0494 -0.1311  0.1219
 4997W        W20466  17.997   0.363   2.456  0.2159  0.2044  0.0546
 4998W        W20467  10.479  17.533  15.506  0.0120 -0.0157  0.2786
 4999W        W20468   7.632   9.996   2.080  0.0227 -0.2792  0.1906
 5000W        W20469   1.991   6.372  10.653 -0.1326 -0.1427  0.0454
 5001W        W20470  17.432  10.211   3.162  0.1058 -0.0440 -0.0417
 5002W        W20471   7.820  15.692   1.898 -0.3187 -0.4187  0.1914
 5003W        W20472   9.486   4.009  13.068 -0.0508  0.0793  0.2614
 5004W        W20473   9.645  10.840  12.866 -0.0222  0.4002 -0.1408
 5005W        W20474  15.434  17.242   2.620 -0.2809  0.1070 -0.0516
 5006W        W20475   0.779   7.433  16.074 -0.1330 -0.2166 -0.3176
 5007W        W20476   0.045  15.859   2.902  0.0799 -0.1051  0.0445
 5008W        W20477  13.925   1.175   1.802  0.0347  0.2512 -0.1190
 5009W        W20478  12.008  14.030   5.640 -0.1013 -0.1059  0.2919
 5010W        W20479   0.840  11.052  11.302 -0.3964  0.1356  0.0742
 5011W        W20480  10.675  14.762   3.032  0.1468 -0.1495 -0.1211
 5012W        W20481   7.276   8.044  15.373 -0.2280  0.0351  0.0751
 5013W        W20482  13.104   6.422  11.857  0.0914 -0.1756  0.1577
 5014W        W20483   5.799  14.783   6.152 -0.3053  0.2657 -0.0377
 5015W        W20484  13.047   7.273  13.431 -0.2090 -0.1870 -0.0885
 5016W        W20485   9.697  12.243  14.458 -0.0341  0.3245 -0.0791
 5017W        W20486   4.971  11.245  16.393 -0.0382 -0.1766  0.2245
 5018W        W20487  13.133  13.532   4.987  0.0632  0.0040 -0.1425
 5019W        W20488  15.538   5.151   5.084 -0.2438 -0.0413 -0.1250
 5020W        W20489   2.318   3.007  14.099 -0.1143  0.2281  0.2481
 5021W        W20490   5.128   4.439  13.831 -0.0691 -0.0867 -0.0195
 5022W        W20491  11.020  17.151  12.921  0.1451  0.2548 -0.1495
 5023W        W20492  13.642  11.563   2.371  0.0763  0.0231  0.2405
 5024W        W20493   1.029  14.393  12.492 -0.0998  0.2403  0.0036
 5025W        W20494   1.753  12.485  12.960  0.2361  0.0888  0.1918
 5026W        W20495  14.693   1.747  14.517 -0.0207  0.0235 -0.1055
 5027W        W20496  16.462  14.129   2.710  0.0173 -0.1780  0.2258
 5028W        W20497  10.734   9.859  13.971  0.0568  0.0939  0.0777
 5029W        W20498  16.220   9.502  14.477  0.0133 -0.1550  0.0340
 5030W        W20499   3.181   4.466   4.289  0.0001  0.0021 -0.1637
 5031W        W20500   8.025   5.592  15.569  0.0160  0.2289  0.0681
 5032W        W20501   9.509  12.977  16.206 -0.0791  0.2094 -0.0199
 5033W        W20502  11.977  15.786   3.021 -0.2231 -0.1705  0.0913
 5034W        W20503   1.846  14.775   0.640  0.0671 -0.3222 -0.1855
 5035W        W20504   0.637   8.470  12.075  0.1776 -0.0920 -0.0322
 5036W        W20505   1.169   2.364   0.028  0.1606 -0.0537 -0.2325
 5037W        W20506  17.555   0.370   2.200  0.0227 -0.1627  0.0118
 5038W        W20507  17.189  11.850  15.995  0.2450  0.0104  0.1669
 5039W        W20508   4.881  13.425   4.541 -0.0115  0.1193 -0.0434
 5040W        W20509   1.059   3.302  10.777  0.0371 -0.1876  0.0515
 5041W        W20510  10.861   2.886   3.266 -0.2101  0.2299  0.2016
 5042W        W20511   3.335   5.951   5.122  0.1139  0.0690 -0.1606
 5043W        W20512   1.062   5.288   2.135 -0.1098  0.1423 -0.1351
 5044W        W20513  13.525   1.431   4.381  0.1394  0.1745 -0.1519
 5045W        W20514  11.815  17.953  11.731  0.0677 -0.0877  0.1131
 5046W        W20515  12.770  12.602  12.404 -0.0377 -0.0676  0.1431
 5047W        W20516  10.878   9.070   2.217  0.0252 -0.0230  0.1163
 5048W        W20517  13.005   0.248   4.168 -0.0414  0.0350  0.1938
 5049W        W20518   9.479   3.084  13.820  0.1930 -0.1735  0.1977
 5050W        W20519  11.309   9.677  14.500  0.1604  0.3903 -0.1346
 5051W        W20520  13.347  15.164   5.053 -0.0359 -0.0191  0.3637
 5052W        W20521   5.718  11.811   3.285  0.0776 -0.3419  0.1627
 5053W        W20522   1.079   5.731   1.953  0.1336  0.0205  0.4337
 5054W        W20523  12.902   2.192   1.911  0.0175 -0.3030  0.3881
 5055W        W20524   1.745   4.299   0.671 -0.0937  0.0003  0.0773
 5056W        W20525  14.967   8.716   1.644 -0.3656  0.0165 -0.2650
 5057W        W20526  16.513  10.579   0.348 -0.0572  0.1609 -0.1004
 5058W        W20527   1.058   8.197  12.060  0.2054  0.0376  0.1286
 5059W        W20528  10.255  16.089  13.568  0.2448  0.4424  0.1883
 5060W        W20529   0.151   9.455  11.436  0.2613  0.2964  0.2189
 5061W        W20530   7.421   7.552   0.768 -0.0903 -0.2137  0.1810
 5062W        W20531   5.074   5.006  11.671 -0.3242  0.0439 -0.1923
 5063W        W20532  13.184  17.816  12.956 -0.1308 -0.0730 -0.1673
 5064W        W20533  17.841  11.234  14.904  0.0347  0.1629  0.3052
 5065W        W20534   8.158  16.221  11.923 -0.0757  0.2659  0.2883
 5066W        W20535   6.206  10.223   3.948 -0.2843  0.2545 -0.0066
 5067W        W20536  13.972   5.667   1.652  0.0511 -0.0383  0.3035
 5068W        W20537  11.190   1.569  14.648  0.1930 -0.0579  0.0650
 5069W        W20538  17.137  10.571   2.831 -0.3797  0.1499 -0.1030
 5070W        W20539  11.176   8.852  11.491  0.1999  0.0464 -0.2167
 5071W        W20540   8.118   0.838   4.465 -0.0408 -0.0319  0.0439
 5072W        W20541  11.740   2.541   2.890 -0.0051 -0.4120 -0.1208
 5073W        W20542  16.630   1.711   1.264  0.0230  0.4031 -0.0958
 5074W        W20543  10.477  11.521  16.501 -0.0754 -0.0655 -0.0400
 5075W        W20544  14.466   8.440   0.512  0.0468 -0.0324 -0.0368
 5076W        W20545   2.453   1.818   1.881 -0.0397 -0.2348 -0.2669
 5077W        W20546   9.198  14.258   2.926 -0.3278 -0.0521 -0.0256
 5078W        W20547  15.636  11.480  12.141  0.0959  0.0077  0.3169
 5079W        W20548  13.704   5.599  15.996 -0.0653  0.0302  0.1308
 5080W        W20549   6.248  16.723  14.654 -0.0418 -0.2022  0.0414
 5081W        W20550   4.015  12.294   2.171 -0.2061 -0.3098 -0.3765
 5082W        W20551   2.577   6.181   1.710  0.2050 -0.0876  0.0626
 5083W        W20552  14.667  10.419  13.132 -0.0544  0.0289 -0.1487
 5084W        W20553   5.899  15.966   1.961 -0.1346  0.0919 -0.1119
 5085W        W20554   5.977  10.608   5.571  0.0360 -0.1310 -0.2228
 5086W        W20555  11.309   0.207  13.498  0.0756  0.2357 -0.1299
 5087W        W20556  16.908   0.864   1.080  0.3390  0.1403  0.0953
 5088W        W20557  17.559  16.973   4.323  0.1422  0.0659 -0.0524
 5089W        W20558  14.162  13.896   0.398  0.2376 -0.1054 -0.2387
 5090W        W20559  13.247  11.099  14.039  0.1752  0.0819  0.3141
 5091W        W20560   0.803   1.133  15.469 -0.1256 -0.1840  0.1035
 5092W        W20561   4.952   4.967  11.226 -0.2614 -0.1687  0.1684
 5093W        W20562   7.493   0.481  12.901  0.1058  0.2447 -0.3024
 5094W        W20563   6.416   0.069  15.216 -0.3359 -0.2563 -0.1903
 5095W        W20564  11.835   1.888   4.991  0.0507 -0.0524 -0.0753
 5096W        W20565   1.415  17.685   4.729 -0.0859 -0.0075 -0.1423
 5097W        W20566   8.521  15.105   2.233 -0.3105 -0.3444 -0.1975
 5098W        W20567   4.778   0.376   1.559  0.1025  0.3509 -0.0768
 5099W        W20568  13.989   2.854  11.567 -0.1727  0.2133 -0.0086
 5100W        W20569  17.017   9.908   2.320 -0.0302 -0.2019  0.1522
 5101W        W20570  14.008   1.015   0.492  0.1314  0.1272 -0.1420
 5102W        W20571  15.102   5.099  14.299 -0.0090  0.0423  0.3821
 5103W        W20572  11.823  13.892   6.091 -0.0465  0.1144  0.2724
 5104W        W20573  13.367  13.283  16.255 -0.0891  0.0557 -0.4939
 5105W        W20574   0.972   1.577  10.414 -0.3538 -0.3001  0.1458
 5106W        W20575  11.014   1.397  12.115 -0.0405  0.1345  0.1515
 5107W        W20576   8.069  10.591   5.983 -0.0866  0.1093 -0.2082
 5108W        W20577  14.394  10.532   2.260  0.0025  0.1011  0.0971
 5109W        W20578   2.473  12.570  12.768 -0.1981 -0.1031  0.3555
 5110W        W20579   0.863  10.258   1.274 -0.1966  0.3197  0.1500
 5111W        W20580  11.363  17.521  16.575 -0.1466  0.3927 -0.2525
 5112W        W20581   8.213   5.685   3.856 -0.3546 -0.2509  0.0001
 5113W        W20582  13.301   8.547   0.596  0.0120  0.1124 -0.1739
 5114W        W20583  12.881  12.618   0.065 -0.1750 -0.2761  0.1262
 5115W        W20584  16.806  12.390   5.010 -0.1464 -0.0585 -0.1869
 5116W        W20585   1.876  10.108   0.108  0.0501  0.0650 -0.1627
 5117W        W20586   2.340   6.680  13.190 -0.1894 -0.0207 -0.0556
 5118W        W20587  10.171  12.442   0.204  0.1095 -0.1788  0.1095
 5119W        W20588  10.723  12.417   2.239  0.3632  0.1842  0.2340
 5120W        W20589   6.445   6.588   3.289  0.0305  0.1429  0.2187
 5121W        W20590   0.845   0.168  15.073 -0.1945 -0.0235 -0.1835
 5122W        W20591  15.485   3.911   2.958  0.0008 -0.1972  0.0145
 5123W        W20592  15.337  13.007   2.449 -0.0531  0.0612 -0.0231
 5124W        W20593  13.592  13.575   5.729  0.2587  0.4609  0.0977
 5125W        W20594   8.199   3.066   4.948 -0.0098 -0.3738  0.3003
 5126W        W20595   1.067  11.677  13.626 -0.1482 -0.1379 -0.2874
 5127W        W20596   0.680   2.806  12.652 -0.1185 -0.2077 -0.4063
 5128W        W20597   5.172   6.826  13.116 -0.0363 -0.0193  0.0818
 5129W        W20598   1.256  15.225  12.791 -0.2235 -0.0790  0.1287
 5130W        W20599   4.467   2.570   3.653 -0.4291  0.2120  0.0992
 5131W        W20600  17.307  16.507  16.358  0.3331 -0.2385 -0.0297
 5132W        W20601   7.614  17.000  13.617 -0.0809 -0.4013 -0.2088
 5133W        W20602  12.123  17.765   2.193  0.2968 -0.0240 -0.0060
 5134W        W20603  13.455   3.311  12.593 -0.1962  0.2131  0.0628
 5135W        W20604  13.525   7.480  11.542 -0.1767 -0.2633 -0.2397
 5136W        W20605   1.100   3.102  15.978  0.2027  0.3121 -0.0266
 5137W        W20606  10.704   0.973   5.571  0.1030 -0.1185  0.1006
 5138W        W20607   4.772   0.220  16.242  0.1599  0.0565  0.2050
 5139W        W20608   7.545   7.606  15.558  0.0045 -0.1631  0.2247
 5140W        W20609   4.289  15.667  13.200  0.2389  0.1290  0.2441
 5141W        W20610  14.079  12.968  11.753 -0.2027 -0.0874 -0.0670
 5142W        W20611  16.704   4.811   4.531 -0.2112  0.1344  0.1906
 5143W        W20612  13.974  11.881  14.503  0.2585 -0.2156  0.1685
 5144W        W20613   5.510  10.777   1.626  0.1875 -0.0371 -0.1307
 5145W        W20614  15.847  16.698   4.237 -0.2645  0.0085 -0.0059
 5146W        W20615   3.807   6.968   3.856  0.0904  0.0701 -0.2354
 5147W        W20616  16.033   5.824  14.143  0.0324  0.0542  0.0079
 5148W        W20617  16.755   0.365  14.822 -0.0617  0.0050  0.0730
 5149W        W20618  17.021   8.224   5.393 -0.1614  0.2003 -0.2962
 5150W        W20619   8.523   6.248   2.728  0.1368 -0.1686  0.1177
 5151W        W20620   2.758  17.380   5.619 -0.4603  0.1219 -0.1367
 5152W        W20621  14.219   9.860   4.139 -0.1634 -0.2099  0.3470
 5153W        W20622   4.714  16.909  11.550 -0.0862 -0.1712  0.2335
 5154W        W20623  14.045  15.405  16.272  0.3074 -0.0323 -0.2441
 5155W        W20624  11.597   6.352   0.733  0.0907  0.1117 -0.2672
 5156W        W20625   6.295  11.557   0.131  0.0859  0.0185 -0.3361
 5157W        W20626   5.673  15.084  12.408  0.1590 -0.0776  0.3020
 5158W        W20627  10.331   7.529   0.334  0.0929 -0.1845  0.1416
 5159W        W20628   1.403   2.050  14.404 -0.2868 -0.1061 -0.1625
 5160W        W20629  16.803   4.879  15.266 -0.3714  0.2727 -0.3347
 5161W        W20630  13.648  15.205  13.517 -0.2954  0.2811 -0.0639
 5162W        W20631   6.749  16.898   2.877  0.0386 -0.1831 -0.4432
 5163W        W20632   3.664  13.555  14.480 -0.2630  0.0766  0.1664
 5164W        W20633  13.546  11.574  14.667 -0.0271 -0.1612 -0.2897
 5165W        W20634   1.270  13.938  13.740  0.2819  0.0473  0.1314
 5166W        W20635  10.593  12.569   4.147  0.2570 -0.0288 -0.0337
 5167W        W20636  14.150  10.167  13.811 -0.0275  0.1189 -0.1451
 5168W        W20637   2.922  16.445  13.926  0.3413 -0.0785 -0.0953
 5169W        W20638  14.236  11.384  16.251  0.2773 -0.4576  0.0528
 5170W        W20639  11.588   1.925   0.841 -0.2293  0.0816 -0.0152
 5171W        W20640  10.941  15.224   0.977 -0.2536  0.0926 -0.0778
 5172W        W20641  17.227   9.240   2.528  0.2809  0.0909  0.0803
 5173W        W20642   7.233   6.133  13.108  0.1578  0.1634  0.2783
 5174W        W20643  13.336   3.563   3.063  0.1262  0.3042 -0.0062
 5175W        W20644  17.602   2.100   0.788 -0.0795  0.1715  0.2242
 5176W        W20645  17.764   3.510   3.951 -0.0567  0.4900  0.0233
 5177W        W20646  15.013   7.482   1.479  0.3340  0.2653  0.1453
 5178W        W20647  15.735  14.255   3.385 -0.0719  0.0932  0.0515
 5179W        W20648  12.379   2.239  15.501  0.1731  0.1481 -0.2913
 5180W        W20649  13.406   1.502   0.721 -0.1791  0.0345  0.1314
 5181W        W20650   0.674  17.279   2.519 -0.1191  0.2855  0.1793
 5182W        W20651  14.700  17.848   6.494 -0.2450  0.1115 -0.1236
 5183W        W20652   0.910  16.417   5.483  0.0792 -0.2893 -0.0969
 5184W        W20653   2.745  15.084  15.874 -0.2732  0.0402 -0.0161
 5185W        W20654  17.746  11.541   0.896  0.0408 -0.2024 -0.2248
 5186W        W20655   9.722  17.803   2.476  0.3133  0.0356  0.2056
 5187W        W20656  17.955   2.219  15.531 -0.0716  0.0187 -0.0881
 5188W        W20657  14.642  17.669   0.605 -0.1616 -0.1161  0.0217
 5189W        W20658   4.459   1.993   0.786 -0.1320  0.0678  0.2337
 5190W        W20659   6.305  17.215   6.000  0.1055  0.2572  0.1605
 5191W        W20660  14.184   1.175   6.020  0.0439 -0.1312 -0.1971
 5192W        W20661  17.360  13.763  15.199  0.1179  0.0101 -0.1885
 5193W        W20662  13.488   9.460   4.907 -0.0254 -0.2703 -0.1361
 5194W        W20663   3.427  13.051  12.830 -0.0667  0.0125 -0.0530
 5195W        W20664   8.373   1.284  15.708 -0.0254  0.2111 -0.1863
 5196W        W20665  15.851  15.432   1.155  0.2150 -0.2953 -0.0187
 5197W        W20666   5.265  12.838   1.844  0.0837  0.4976 -0.1799
 5198W        W20667   7.071   0.723  15.952 -0.0912  0.1005  0.0488
 5199W        W20668  17.125  11.187   4.641  0.1380  0.1163  0.1564
 5200W        W20669   8.546   5.092   0.673 -0.1161 -0.0206 -0.2351
 5201W        W20670   6.378  13.541  14.290 -0.2526 -0.2650 -0.0070
 5202W        W20671   5.461  16.815   3.003  0.0720  0.1041  0.1483
 5203W        W20672  14.279   4.044  10.221 -0.0299 -0.3990 -0.3984
 5204W        W20673   0.188   5.882   4.948 -0.1848  0.0906  0.0662
 5205W        W20674   8.343  10.210  15.683  0.1597  0.1318 -0.2153
 5206W        W20675  11.419   9.443   5.286  0.0980 -0.2667 -0.1600
 5207W        W20676  17.366  17.819   2.904 -0.1987  0.0534 -0.2798
 5208W        W20677   4.629  15.690   1.242 -0.1294  0.0547  0.3140
 5209W        W20678  14.507   8.840   1.216 -0.2114 -0.0030  0.0265
 5210W        W20679   3.707  17.759  12.429 -0.1670  0.0176 -0.0204
 5211W        W20680   2.233  12.983   4.336 -0.0200 -0.0365 -0.1111
 5212W        W20681  15.882   1.043   4.542 -0.0926 -0.0281  0.0667
 5213W        W20682   1.381   3.026  14.563 -0.3215 -0.1412 -0.0385
 5214W        W20683   6.134   9.730   5.433  0.0598  0.1285  0.0619
 5215W        W20684   5.129  11.017   5.578  0.0438  0.1229  0.2178
 5216W        W20685   6.620  17.076   5.207 -0.0007  0.0784 -0.0446
 5217W        W20686  11.123   6.127  11.621 -0.1350  0.2810 -0.0527
 5218W        W20687   1.698   5.378   0.587 -0.0499  0.2422  0.3134
 5219W        W20688  10.263  16.334   2.810  0.1441 -0.3198 -0.0363
 5220W        W20689  12.715  17.499  13.274  0.1960 -0.0510 -0.1052
 5221W        W20690   0.802   4.364   3.847 -0.2195 -0.0876  0.0458
 5222W        W20691  14.076   6.434   2.417 -0.1881  0.1225  0.0738
 5223W        W20692  15.142   0.644  12.374 -0.0484  0.0058 -0.2581
 5224W        W20693   3.281  14.940   5.194  0.1551  0.0365 -0.2595
 5225W        W20694   8.674  14.179   3.783  0.0211  0.0849 -0.2148
 5226W        W20695  16.533   6.559  12.717 -0.2517 -0.2569 -0.3844
 5227W        W20696  15.629   6.606   0.078  0.1620  0.1360  0.0695
 5228W        W20697   8.171   3.520  14.293 -0.1276 -0.1204  0.1290
 5229W        W20698  14.772   3.656   4.073 -0.1682  0.1673 -0.1622
 5230W        W20699   4.802  14.815  14.811 -0.1552 -0.1585  0.0364
 5231W        W20700  14.118  12.048   4.521  0.1974  0.2260  0.4010
 5232W        W20701  17.287   9.342  16.287  0.0909 -0.1365 -0.1920
 5233W        W20702  12.590   4.282   4.001  0.1177 -0.0545 -0.0758
 5234W        W20703   9.158  12.278  13.603  0.1302  0.0345 -0.2844
 5235W        W20704   4.181  13.561  12.939 -0.4466  0.1492 -0.1679
 5236W        W20705   9.871   7.925  14.364  0.1724  0.0872 -0.0852
 5237W        W20706   5.627   2.057   3.681 -0.4738 -0.1237 -0.2505
 5238W        W20707   0.404  12.599  13.539  0.0153  0.0522 -0.0704
 5239W        W20708   0.494   6.394  11.148 -0.0545 -0.3508 -0.1215
 5240W        W20709  12.360  15.237  11.471  0.2138  0.1372 -0.0740
 5241W        W20710   0.057  10.225  15.876  0.2141  0.2914  0.2195
 5242W        W20711  11.454  12.543  14.313  0.1097  0.2797  0.2326
 5243W        W20712   3.593  17.013   2.855 -0.2212  0.1229  0.0009
 5244W        W20713  16.944   3.829   4.227  0.0826 -0.0895  0.0954
 5245W        W20714  15.480  16.810   0.092  0.0110 -0.0858  0.1110
 5246W        W20715   1.990   0.702  16.265  0.0404  0.0215  0.3181
 5247W        W20716   3.823   9.779   1.504 -0.2166 -0.3201 -0.0656
 5248W        W20717  14.047   0.017  14.432  0.1376  0.2690 -0.1604
 5249W        W20718   4.683   1.933   6.165 -0.1010 -0.0468 -0.0257
 5250W        W20719   0.127  17.261   1.153 -0.2154  0.1895 -0.0754
 5251W        W20720   1.222  10.097   4.770 -0.0229 -0.1395 -0.0418
 5252W        W20721   9.501  16.092   3.928  0.1830 -0.4055  0.0540
 5253W        W20722  16.218   4.073  11.694  0.3776  0.0479 -0.0716
 5254W        W20723   5.302   4.513   1.778  0.3625  0.0994 -0.0561
 5255W        W20724   1.410   5.460   5.219 -0.2721  0.1408 -0.4235
 5256W        W20725   0.288  15.787   3.384 -0.0125  0.0819  0.1560
 5257W        W20726  10.337  11.615   1.261  0.0661 -0.1123 -0.0110
 5258W        W20727   6.155   6.032   0.279 -0.0714 -0.2123 -0.2759
 5259W        W20728   9.486   4.850   0.192  0.0475  0.0342  0.1358
 5260W        W20729   4.239   8.168   9.927 -0.0596 -0.0566  0.2458
 5261W        W20730  11.425  12.455  14.883 -0.0495  0.4389 -0.1554
 5262W        W20731  11.321  11.465   4.111  0.1291 -0.1324 -0.0332
 5263W        W20732  17.897   6.192   4.640 -0.1473 -0.2030 -0.0896
 5264W        W20733   3.368  11.458   1.940  0.0892  0.0045 -0.1130
 5265W        W20734  11.990   1.334   3.716  0.1046  0.0177  0.0349
 5266W        W20735   9.784  15.732  15.335  0.0355  0.0076 -0.1713
 5267W        W20736   4.551   7.750   4.175 -0.1254 -0.1943  0.4074
 5268W        W20737   4.081   4.979  11.768 -0.1646 -0.0946 -0.0815
 5269W        W20738   1.172   9.964   2.256  0.0452  0.3993 -0.1348
 5270W        W20739   4.559   8.436  14.140  0.1250  0.1610 -0.4797
 5271W        W20740  16.127  11.085   2.139  0.0690 -0.4443 -0.3616
 5272W        W20741   4.786  12.119  16.128 -0.4793  0.1215 -0.1499
 5273W        W20742   6.764  13.257  12.632  0.0598  0.1185 -0.0022
 5274W        W20743  11.895   5.424  11.791 -0.0103 -0.1427  0.2526
 5275W        W20744  12.394   0.507   6.360  0.2204  0.4559  0.0776
 5276W        W20745   3.739  14.022   0.198  0.1488  0.3181 -0.1023
 5277W        W20746   9.619  10.878  14.075  0.0950  0.1246 -0.0373
 5278W        W20747  16.011   4.041  11.237  0.0800 -0.1982  0.3848
 5279W        W20748   2.957  12.431  14.561  0.1143  0.1685  0.0277
 5280W        W20749   5.997   2.220   3.165  0.2841 -0.2120  0.1100
 5281W        W20750  15.602   2.600   4.335 -0.0194 -0.1731  0.2666
 5282W        W20751  17.303  11.148   5.200 -0.3267  0.3146  0.3138
 5283W        W20752   2.929   9.172  16.381 -0.0638 -0.0235 -0.1445
 5284W        W20753   8.372  12.907   4.762 -0.1232 -0.0682 -0.0081
 5285W        W20754   6.584  12.354   4.190  0.0800  0.2357  0.4376
 5286W        W20755  10.593  11.533  11.163  0.0420  0.1386  0.0328
 5287W        W20756   4.637  14.691   5.199  0.4014 -0.1711  0.4076
 5288W        W20757   3.701  10.678   2.765  0.0186  0.0517 -0.1898
 5289W        W20758   8.042   9.123   5.270 -0.0871 -0.1423  0.1215
 5290W        W20759  17.892   5.326   4.120  0.2129 -0.0799 -0.1244
 5291W        W20760  12.220  16.500  13.139  0.3191 -0.1353 -0.0240
 5292W        W20761  14.447   6.116   1.205 -0.2744 -0.0146  0.1932
 5293W        W20762  14.657  16.483   6.269 -0.0573  0.2605 -0.1069
 5294W        W20763  10.427  16.995   0.680  0.0411  0.0229  0.1472
 5295W        W20764  12.970  15.890   3.240 -0.0166 -0.1736  0.1393
 5296W        W20765  17.240   7.098   2.917  0.0109  0.1734 -0.2539
 5297W        W20766   1.522  16.425  14.535 -0.1432  0.4103  0.3223
 5298W        W20767   2.201  17.580   4.091  0.2113  0.4597 -0.0103
 5299W        W20768  11.307   5.816   4.618 -0.1540  0.1223 -0.0872
 5300W        W20769   4.125   0.166   3.991 -0.1674 -0.2134  0.1589
 5301W        W20770   6.359   8.152   5.046 -0.0821 -0.0969 -0.4135
 5302W        W20771   3.986  16.087  12.481 -0.0007  0.0901  0.3895
 5303W        W20772  16.823   6.799   3.099  0.0104  0.0608  0.2117
 5304W        W20773  12.946   8.063  16.135  0.2881  0.2333  0.0712
 5305W        W20774   3.249   5.845   0.203  0.0691  0.2165 -0.2501
 5306W        W20775   8.497   7.671   4.540  0.1836  0.3198  0.1582
 5307W        W20776   9.860   0.762   1.623 -0.0219  0.1688  0.1502
 5308W        W20777   5.594  14.089  13.601 -0.1941 -0.1018 -0.0512
 5309W        W20778   4.818  14.946  15.764  0.2075 -0.1787  0.0652
 5310W        W20779  13.769   4.809   2.466 -0.0119 -0.3813 -0.0518
 5311W        W20780  11.931  13.670  14.534 -0.0238 -0.2851  0.2915
 5312W        W20781  10.925  12.853  15.523  0.0806  0.1464  0.0273
 5313W        W20782  11.981   2.459   4.282  0.1599 -0.2259 -0.0532
 5314W        W20783   7.916   4.290   2.512  0.2764  0.0652  0.0267
 5315W        W20784  12.030   1.749  14.734  0.1184  0.2072  0.0542
 5316W        W20785   0.979  17.336   5.912 -0.1571  0.2399 -0.0716
 5317W        W20786  13.109   8.665  14.056 -0.0173  0.0716  0.0982
 5318W        W20787  13.207  14.745  15.690 -0.0269  0.0431 -0.0597
 5319W        W20788  10.264  15.069   2.526  0.1726 -0.0904  0.1056
 5320W        W20789   3.448   8.045  13.444  0.1994 -0.2923  0.1037
 5321W        W20790   4.335   6.392   3.192 -0.1274 -0.2612  0.2869
 5322W        W20791   5.463   2.543   0.510 -0.0032  0.3321 -0.2356
 5323W        W20792   2.689   7.764  11.675 -0.0847 -0.0307  0.4206
 5324W        W20793  15.710  10.478  16.442  0.0688 -0.0648  0.1889
 5325W        W20794   3.882   6.752  12.626 -0.1253  0.1633  0.1645
 5326W        W20795   8.867   7.332   0.721 -0.2440  0.1496 -0.0902
 5327W        W20796   1.505   7.094   3.396 -0.0127  0.0168 -0.0553
 5328W        W20797  10.538   2.603  16.039  0.1596  0.2639 -0.0170
 5329W        W20798   4.820  15.744  12.284  0.1235  0.0041 -0.1283
 5330W        W20799   6.302   2.816  13.910 -0.0410 -0.0965  0.2728
 5331W        W20800   7.739   4.820   0.924 -0.1068 -0.1909  0.1671
 5332W        W20801   6.854  10.585   0.080 -0.0390 -0.0925  0.1398
 5333W        W20802  14.110  14.027  13.613 -0.0675  0.0391  0.0554
 5334W        W20803  10.193   0.904   5.710 -0.1386 -0.0212  0.1325
 5335W        W20804  16.355  16.472  14.107  0.1494  0.1162  0.1853
 5336W        W20805  16.639  15.390   0.399  0.0731 -0.0068  0.1396
 5337W        W20806  15.677   4.559   2.323 -0.4263 -0.0509  0.1339
 5338W        W20807   0.606   8.276  13.777  0.4816 -0.2193 -0.0382
 5339W        W20808  13.558  16.596   3.665  0.0453  0.2440 -0.0581
 5340W        W20809   7.767  15.229   5.838 -0.2566  0.0254  0.1405
 5341W        W20810  17.514   8.470   0.630  0.2002 -0.2250  0.0527
 5342W        W20811   1.799  10.113   2.131 -0.1604 -0.2032 -0.0578
 5343W        W20812  11.674  11.791  11.705 -0.0428 -0.0273  0.2361
 5344W        W20813   0.835   6.314   3.589 -0.0402  0.1077  0.1308
 5345W        W20814   8.497   8.901   1.213 -0.0497 -0.2484 -0.4295
 5346W        W20815   3.859   4.291  14.711 -0.0745 -0.2197 -0.2141
 5347W        W20816  13.964   9.381  11.416  0.2680 -0.2392 -0.1360
 5348W        W20817   1.684  17.713  16.310  0.1092 -0.0004  0.1414
 5349W        W20818  14.173   6.484  15.942  0.1424 -0.3018 -0.1059
 5350W        W20819   9.957   0.755   6.985 -0.3164 -0.0574 -0.0053
 5351W        W20820   3.534   9.388  12.438 -0.1906 -0.1505  0.0097
 5352W        W20821   0.833   3.909  13.835 -0.0751 -0.3293 -0.0263
 5353W        W20822   6.979   1.626  13.640  0.0555 -0.1505  0.0809
 5354W        W20823   9.886  16.460   6.129 -0.0142  0.0943 -0.0351
 5355W        W20824  11.486  11.278  11.014 -0.1055 -0.2181 -0.1250
 5356W        W20825  12.988  14.532   4.920  0.3474  0.1846 -0.1721
 5357W        W20826   9.594   1.720  13.888 -0.1506  0.1024  0.3144
 5358W        W20827   6.868   6.967   0.209 -0.0451 -0.1137 -0.2371
 5359W        W20828  14.523  14.389  15.692  0.1456 -0.2972  0.1572
 5360W        W20829   3.655  14.960  12.692 -0.0856 -0.0426 -0.0834
 5361W        W20830  12.103  12.371   3.461  0.0362  0.3404 -0.1315
 5362W        W20831   2.353   6.980  12.731  0.0113 -0.1813  0.3102
 5363W        W20832   7.023   5.833   0.660 -0.0217  0.1517 -0.1801
 5364W        W20833   6.730  10.070  11.782 -0.1189  0.1383 -0.0188
 5365W        W20834  12.201   6.577  12.244 -0.1068  0.0504 -0.0817
 5366W        W20835   2.166   7.844   5.269  0.2041 -0.0895  0.3411
 5367W        W20836  15.717  12.783  11.208 -0.1179  0.1658 -0.0802
 5368W        W20837  15.856  11.377  11.101 -0.1406 -0.0893 -0.0197
 5369W        W20838  10.008   0.144   3.479  0.2163 -0.1585 -0.0430
 5370W        W20839   4.790   9.347  13.281 -0.0171  0.3028 -0.2290
 5371W        W20840   0.558   1.432   4.195 -0.1925  0.4717  0.2608
 5372W        W20841  11.788   2.366  11.314 -0.1657 -0.1956  0.0637
 5373W        W20842  16.913  14.809   3.814  0.0472  0.1042  0.1614
 5374W        W20843  10.128   5.692   4.920  0.0084 -0.1045  0.0785
 5375W        W20844   1.641  10.953   1.173  0.2183 -0.1183  0.1696
 5376W        W20845   9.159   7.883   5.135  0.1951 -0.1571 -0.0904
 5377W        W20846   0.417   3.538   2.664 -0.0942 -0.0623 -0.0870
 5378W        W20847  10.237  12.907   5.337  0.0484  0.4385 -0.0709
 5379W        W20848  17.154  13.639  14.341  0.0858  0.2116 -0.0460
 5380W        W20849  12.495  16.005   3.982  0.2353  0.2655 -0.2181
 5381W        W20850   5.467   9.472   1.785 -0.0904 -0.0828 -0.1965
 5382W        W20851  12.528   8.140   2.129  0.0230  0.0330  0.3804
 5383W        W20852   9.896   4.386   6.012 -0.5380  0.0466  0.0080
 5384W        W20853   4.511   1.166   4.269 -0.2256 -0.0518 -0.0322
 5385W        W20854   2.836  12.972   5.201 -0.0972 -0.1558 -0.2440
 5386W        W20855   8.406  14.028  12.394 -0.2661  0.2848  0.1047
 5387W        W20856   1.429  12.527   3.367  0.2209 -0.0769  0.1497
 5388W        W20857  12.796  11.471   5.737 -0.1555  0.1001 -0.0015
 5389W        W20858   7.304  11.123   2.983 -0.0148  0.3545  0.2127
 5390W        W20859  16.117  12.174  12.465 -0.3112  0.2234 -0.1300
 5391W        W20860   2.447   0.574   1.165  0.0148 -0.1907  0.1505
 5392W        W20861   4.826   0.667  16.273  0.1381 -0.0547 -0.1782
 5393W        W20862   0.364   9.012   0.505  0.1167  0.4480 -0.1009
 5394W        W20863   5.417   2.009  12.747 -0.3005  0.0856 -0.2585
 5395W        W20864  11.981  13.416  11.088  0.0118 -0.0410 -0.3592
 5396W        W20865  17.555   4.134   3.440  0.1729 -0.1408 -0.1148
 5397W        W20866  15.915   3.962  15.983 -0.0976 -0.2002  0.1916
 5398W        W20867   4.950   9.988   2.487  0.3186 -0.0345  0.0731
 5399W        W20868   4.292  10.573  14.801 -0.1538 -0.2424 -0.0091
 5400W        W20869   8.172  12.121   1.321 -0.1414  0.1443 -0.0940
 5401W        W20870   1.416  11.309   2.457  0.1542 -0.2055 -0.6679
 5402W        W20871   9.940  10.206  13.338 -0.2619 -0.2895 -0.3271
 5403W        W20872   1.780   8.447  12.417  0.0666  0.1550 -0.0349
 5404W        W20873  10.842   5.353   4.325 -0.0349 -0.2202  0.1901
 5405W        W20874  10.156  14.469   0.335  0.3547 -0.1114 -0.0617
 5406W        W20875  15.730  16.118   6.271 -0.2760 -0.0688  0.2708
 5407W        W20876   8.156  12.394   5.654 -0.0458 -0.0613 -0.0235
 5408W        W20877   1.762   7.288  13.966 -0.2598  0.0422 -0.2920
 5409W        W20878   2.788   7.649   4.619 -0.0367 -0.0941 -0.0987
 5410W        W20879   3.210  14.063   2.674 -0.0865 -0.1972 -0.0714
 5411W        W20880  13.124  10.059  11.884  0.1875  0.1942 -0.0992
 5412W        W20881  16.452   2.382  14.237  0.2469 -0.0766  0.0705
 5413W        W20882   5.799   5.770   0.945 -0.0568  0.2349  0.1966
 5414W        W20883   8.436   7.963  10.462 -0.4091 -0.1147  0.0110
 5415W        W20884  17.371   7.450  14.113 -0.3812  0.0823  0.1609
 5416W        W20885   7.373   6.049  12.618  0.1281 -0.0957 -0.0987
 5417W        W20886   5.954  11.716  12.084  0.3461 -0.1036 -0.0427
 5418W        W20887   1.976  10.254   1.437 -0.1000  0.3874  0.2805
 5419W        W20888   4.845   7.543  12.932  0.1814 -0.0446 -0.0429
 5420W        W20889   7.628   7.117  13.090  0.0225 -0.1198 -0.0587
 5421W        W20890   2.533   5.378  11.724 -0.0011  0.0714  0.0487
 5422W        W20891  17.285  14.098   3.181  0.0826  0.0614  0.0058
 5423W        W20892   0.391   9.324  12.118  0.0811 -0.1912 -0.1551
 5424W        W20893  14.309   0.330   2.643 -0.0050  0.0903  0.0673
 5425W        W20894   6.782   3.830  15.476 -0.0793  0.1392  0.2223
 5426W        W20895   8.686  10.444  15.329  0.1820 -0.0027  0.4405
 5427W        W20896  13.433  11.770  15.255 -0.0132 -0.0724 -0.2194
 5428W        W20897  16.466   7.614   2.353 -0.1966  0.1319 -0.2005
 5429W        W20898  16.641  17.375   0.361  0.1254 -0.0423  0.0407
 5430W        W20899   6.307  17.895  11.563 -0.3518  0.1264  0.1124
 5431W        W20900  15.339  11.251  14.470 -0.0567 -0.2514  0.0362
 5432W        W20901   3.199  16.235   2.756  0.2393 -0.0187 -0.1838
 5433W        W20902  17.440   2.285   4.590  0.3052  0.1568  0.1097
 5434W        W20903  14.508  13.814   4.234 -0.2079 -0.1655 -0.1571
 5435W        W20904  14.836  17.107  15.525  0.1037 -0.1539 -0.2851
 5436W        W20905   2.394   9.515   3.664 -0.1122 -0.0719  0.1764
 5437W        W20906  10.173  14.000  16.220  0.1139  0.3016  0.0074
 5438W        W20907  16.597   7.232   1.465 -0.1164 -0.0903  0.0139
 5439W        W20908  11.749  15.880   5.508 -0.2580 -0.0060 -0.1482
 5440W        W20909   4.277   0.822   1.390 -0.1581 -0.1252 -0.0643
 5441W        W20910   6.820   4.406   0.233 -0.2012  0.1819  0.0013
 5442W        W20911  11.921   8.633  15.038 -0.1582 -0.1210 -0.1111
 5443W        W20912  11.279   9.530   4.716 -0.1881 -0.0440 -0.0206
 5444W        W20913  14.659   5.683   1.010  0.0067  0.0800  0.0420
 5445W        W20914   1.918   7.383  14.914 -0.1207  0.1881  0.0181
 5446W        W20915   1.088   7.238   3.725 -0.4744 -0.2200  0.2169
 5447W        W20916   3.844   6.068   4.335 -0.1777 -0.1222  0.1849
 5448W        W20917  16.441   7.071  11.718 -0.0765 -0.0203  0.0059
 5449W        W20918  13.316  14.997   0.167  0.0228 -0.0395 -0.0391
 5450W        W20919   3.674  15.518  15.843  0.0672 -0.0252  0.0853
 5451W        W20920  13.317   6.079   3.108 -0.1772  0.0568 -0.1299
 5452W        W20921   6.806   0.338  14.042  0.0898 -0.1247  0.0073
 5453W        W20922   4.400  14.691   0.421  0.1908  0.0009 -0.0139
 5454W        W20923  16.467  15.956  14.221  0.0644 -0.1083 -0.0451
 5455W        W20924  16.507  17.349   5.888 -0.0129 -0.0098  0.3358
 5456W        W20925  10.765   3.454   1.190 -0.0727  0.0526 -0.0615
 5457W        W20926   7.619   9.670   4.387  0.1534  0.0129  0.1280
 5458W        W20927   7.889  16.789   4.160  0.0930 -0.0692 -0.1666
 5459W        W20928   7.883   3.342   4.565  0.1322 -0.0586 -0.2362
 5460W        W20929  17.488  14.444   5.048  0.2406  0.0714 -0.1154
 5461W        W20930   9.021   1.537  12.679  0.1751 -0.2027  0.0997
 5462W        W20931  14.331  17.885   3.666 -0.0967  0.3711 -0.1252
 5463W        W20932   7.585  15.186  12.954 -0.2910  0.3130  0.1805
 5464W        W20933   3.981   6.148   3.451  0.1160 -0.2147  0.1726
 5465W        W20934   2.391   4.680  14.450 -0.1004  0.0262  0.0693
 5466W        W20935   1.156   1.903   4.895  0.1610  0.2765 -0.1159
 5467W        W20936  15.645   6.266  11.704 -0.1848  0.0758  0.0154
 5468W        W20937  12.272  16.378   0.184 -0.0800 -0.3735  0.2729
 5469W        W20938   7.989   0.367   4.566 -0.0691  0.0475 -0.0787
 5470W        W20939   1.959   1.895  16.529 -0.1251 -0.1163  0.5159
 5471W        W20940   2.013  13.753  12.191  0.0541  0.0973 -0.2276
 5472W        W20941   4.221   5.146   3.599 -0.2500  0.1604 -0.0740
 5473W        W20942   3.825   6.240  15.802  0.0216 -0.0482  0.1922
 5474W        W20943   1.391  12.120   5.001 -0.2263 -0.3012  0.3415
 5475W        W20944   7.922  17.982   0.142  0.3018 -0.2469 -0.0075
 5476W        W20945  14.466   2.821  16.477 -0.2901  0.2060  0.2081
 5477W        W20946   7.169   3.667  11.950  0.1759 -0.0021  0.0621
 5478W        W20947   7.875  11.083   3.992  0.0403  0.2315  0.0340
 5479W        W20948  11.916   0.898  12.273 -0.1560  0.0201 -0.2995
 5480W        W20949   8.657   2.749   4.810 -0.0937  0.0892 -0.3293
 5481W        W20950   6.087  16.810   0.057 -0.0261  0.1646  0.1891
 5482W        W20951   9.409   2.780   1.719  0.2202 -0.0665 -0.2679
 5483W        W20952  16.420  10.979  15.546 -0.0890 -0.2674  0.1099
 5484W        W20953  12.342   6.804   3.543 -0.1857  0.0564 -0.2006
 5485W        W20954   5.473  13.614  13.704 -0.1469 -0.1567 -0.3116
 5486W        W20955  11.841  13.305  14.945  0.0553 -0.0944  0.0941
 5487W        W20956  10.141   2.440   3.885  0.0227 -0.1870  0.0034
 5488W        W20957   0.026   5.127  13.701  0.2755  0.2593  0.0264
 5489W        W20958   8.164   0.375   5.571 -0.1254  0.0584  0.0556
 5490W        W20959   4.467   7.069  12.119 -0.2666  0.2972  0.0156
 5491W        W20960   6.633   8.277   2.538  0.2984  0.3150 -0.1974
 5492W        W20961   9.566   8.603  13.827 -0.0098  0.2072 -0.2217
 5493W        W20962   6.520   2.152   3.462 -0.0884 -0.2238 -0.0827
 5494W        W20963   3.621   7.657  15.497 -0.0595  0.0611  0.1553
 5495W        W20964   6.706  17.887   0.219 -0.0874  0.2050  0.1196
 5496W        W20965   7.962  12.562  11.984  0.1969  0.2575 -0.0302
 5497W        W20966  11.791   9.292  16.522  0.0144  0.0576 -0.0413
 5498W        W20967  10.048  16.798  14.846  0.1920 -0.0031  0.1106
 5499W        W20968  10.923   1.286  14.190  0.0841  0.2856 -0.1252
 5500W        W20969  16.888   5.734  13.180 -0.1260 -0.1400  0.2743
 5501W        W20970  17.208   9.785   3.258 -0.2258 -0.1632  0.0986
 5502W        W20971  10.119   1.381   5.693  0.4832 -0.1383  0.0290
 5503W        W20972  16.187   1.811  15.009 -0.1685  0.0993 -0.2352
 5504W        W20973  11.268   7.591   4.765  0.0456  0.0477 -0.2905
 5505W        W20974   7.181   8.916   0.431  0.1145  0.2156  0.1896
 5506W        W20975  17.551  16.568   3.962  0.4818  0.3290  0.1009
 5507W        W20976  13.856  14.032   2.053  0.1033 -0.0061  0.4122
 5508W        W20977   6.084  15.838  15.256 -0.2587  0.1954 -0.0295
 5509W        W20978   5.104  13.777  16.395 -0.2673 -0.0661 -0.1341
 5510W        W20979  13.911  16.968  12.202  0.0569  0.2117  0.3120
 5511W        W20980   2.229   0.190  12.394  0.1506 -0.0324  0.0614
 5512W        W20981   5.221  11.829   1.662  0.0475  0.2373  0.0627
 5513W        W20982   8.754   1.561  14.385 -0.0946  0.3597  0.1525
 5514W        W20983   0.133  16.004   5.729  0.2001  0.1054 -0.0432
 5515W        W20984   8.053  17.804   0.648  0.0511  0.0513 -0.1688
 5516W        W20985  10.864   1.474  13.643  0.0656  0.4006 -0.1809
 5517W        W20986   3.905   1.574  15.518  0.2042  0.0309 -0.1411
 5518W        W20987   1.660  11.888   4.671  0.4155 -0.1750 -0.0616
 5519W        W20988  13.951   8.664  15.157 -0.1515  0.1603 -0.0720
 5520W        W20989  13.619   2.755  13.838  0.1820 -0.1497  0.1679
 5521W        W20990  13.948   5.449  14.968  0.1372  0.1980  0.2575
 5522W        W20991   8.215  12.026  14.242  0.0032  0.0198  0.1780
 5523W        W20992  16.297  11.999   5.041  0.1730 -0.2321  0.3255
 5524W        W20993  13.578   9.205   5.309 -0.0850  0.1226 -0.0503
 5525W        W20994  14.323  16.428  13.874  0.2422 -0.2152  0.2986
 5526W        W20995   9.019   7.952   4.582  0.1776  0.2714  0.1052
 5527W        W20996   0.193  14.184   2.461  0.1720  0.0645  0.0513
 5528W        W20997  11.864  11.311  13.918  0.2586 -0.0366  0.1562
 5529W        W20998   8.071   4.981  12.967 -0.1124 -0.0852  0.0374
 5530W        W20999   1.960   3.623   3.497  0.3761  0.0814 -0.0057
 5531W        W21000   9.526  11.374   5.525 -0.0931  0.2979 -0.1727
 5532W        W21001   1.288   1.571   0.745  0.0310  0.1971 -0.3711
 5533W        W21002   7.639   1.201  13.415  0.0448  0.1338 -0.1158
 5534W        W21003   3.349   7.469  15.968  0.0881 -0.1031  0.0461
 5535W        W21004   9.706   6.003   2.821 -0.0024 -0.2120  0.3835
 5536W        W21005  17.540   5.135  12.412  0.2029 -0.0733 -0.2472
 5537W        W21006  11.124   1.858   3.167  0.0558  0.0985  0.0570
 5538W        W21007  16.825   3.012   4.733 -0.0227 -0.2162  0.0435
 5539W        W21008   4.324  16.452  13.826  0.0647  0.2657  0.0092
 5540W        W21009  10.468   5.887   0.199 -0.2166 -0.0341 -0.4684
 5541W        W21010   6.906  14.239  12.620  0.2331  0.1482 -0.2359
 5542W        W21011   1.517   0.462  11.787 -0.1101  0.0983 -0.1161
 5543W        W21012   1.907   2.337   4.172  0.0308  0.0640 -0.1361
 5544W        W21013   0.938   8.948   5.366 -0.0722 -0.1412  0.2265
 5545W        W21014  14.955   4.827  10.982  0.0414 -0.2300  0.3868
 5546W        W21015   7.414   2.570  15.024  0.0787  0.1733 -0.2380
 5547W        W21016  14.221  14.417   0.559 -0.2880 -0.3750 -0.0506
 5548W        W21017   9.545  11.285   1.500  0.1941 -0.1880 -0.2659
 5549W        W21018   3.866  15.803  13.591 -0.2489  0.0905 -0.0640
 5550W        W21019   5.016  16.906   2.908 -0.2596  0.1589  0.0432
 5551W        W21020  14.470   8.662   2.140  0.1332 -0.0913  0.3155
 5552W        W21021   3.048  15.976  14.785 -0.1289 -0.2994 -0.1329
 5553W        W21022  15.809   0.019  16.251  0.3319  0.1166  0.2351
 5554W        W21023   7.126   2.866   1.851  0.1571  0.2597  0.2857
 5555W        W21024  14.702  12.613  12.576 -0.4487  0.2303 -0.0580
 5556W        W21025   0.517   5.597   5.411 -0.0255  0.0111  0.2258
 5557W        W21026   2.696   1.789   1.452 -0.3225  0.1950 -0.3319
 5558W        W21027   6.418   7.210  12.479  0.0811 -0.1589 -0.1340
 5559W        W21028  16.821  12.234   4.487 -0.0845  0.1755  0.1231
 5560W        W21029   7.301   0.685  15.225 -0.0355  0.1414  0.0305
 5561W        W21030   6.609   6.769  15.881 -0.1626  0.0846  0.1661
 5562W        W21031  13.192   4.129   0.454 -0.1398  0.1559 -0.0875
 5563W        W21032  13.573  16.958  11.833 -0.0529  0.1167 -0.2054
 5564W        W21033   1.343  10.481   4.490  0.0957 -0.0835  0.0949
 5565W        W21034   7.261   0.610   4.222  0.0356  0.0747  0.0586
 5566W        W21035  16.313   2.153   0.648 -0.1781 -0.0613  0.0086
 5567W        W21036   7.647  15.349   2.175 -0.2358  0.2872  0.1922
 5568W        W21037  16.571   0.721   1.596 -0.0188  0.3887  0.1327
 5569W        W21038  14.353  13.533   5.058  0.1118  0.2409  0.1843
 5570W        W21039   9.291   6.638  13.488  0.1939  0.0230 -0.1172
 5571W        W21040   4.009   5.068   5.401 -0.2523 -0.1134 -0.1208
 5572W        W21041  13.520  17.977  12.481  0.3382  0.3627  0.1237
 5573W        W21042  14.800   8.662   5.140 -0.3699  0.0962 -0.1141
 5574W        W21043   3.453  11.932   1.417  0.1740  0.0243  0.1150
 5575W        W21044   8.780  15.509   3.991 -0.2555 -0.0347 -0.2088
 5576W        W21045   6.951   2.085   4.544 -0.0337  0.0415 -0.0403
 5577W        W21046   9.651   4.911   1.469 -0.0074 -0.5220 -0.1158
 5578W        W21047  13.433   3.722   3.548 -0.2271 -0.1370  0.1625
 5579W        W21048   9.565  17.696   0.797  0.1620  0.1559 -0.2203
 5580W        W21049  11.657  12.867  12.826  0.0309 -0.2701 -0.0084
 5581W        W21050   7.928   0.149   5.927  0.1186  0.0260  0.3264
 5582W        W21051   8.534  17.136  13.663 -0.0719  0.2675 -0.1720
 5583W        W21052   6.188   3.437  14.287  0.0715  0.0577 -0.0541
 5584W        W21053   4.678   4.323  11.341  0.3016  0.2782 -0.2539
 5585W        W21054  15.274  11.942  15.930 -0.0069 -0.0737 -0.0389
 5586W        W21055   3.939   3.173   2.161  0.2265  0.1704 -0.1525
 5587W        W21056   6.517   5.595  14.304  0.0550  0.0539  0.0304
 5588W        W21057   1.443  14.990   3.242  0.1826 -0.0394 -0.0820
 5589W        W21058   5.014   2.026   4.491 -0.1623  0.1509  0.1334
 5590W        W21059  15.662   8.811  11.147  0.1719 -0.4496 -0.2276
 5591W        W21060  17.192   1.250   6.404  0.1557 -0.1399  0.1416
 5592W        W21061   4.586  15.619   3.762 -0.2203  0.1295 -0.0412
 5593W        W21062  12.145  15.372   3.417  0.0625  0.1519  0.0473
 5594W        W21063   4.921  17.508   0.393 -0.1582 -0.1837 -0.1623
 5595W        W21064  10.569  11.612  15.949  0.0924  0.0224 -0.0410
 5596W        W21065   6.543   0.731  11.385 -0.0350  0.1539  0.0541
 5597W        W21066   3.071   9.378   1.475  0.2373  0.2321 -0.0865
 5598W        W21067   8.096   1.236   1.647  0.2109 -0.1087  0.0524
 5599W        W21068   7.456   5.153   3.816 -0.0834  0.1758  0.0494
 5600W        W21069  13.462  17.941   5.456  0.1690  0.0743 -0.0713
 5601W        W21070  12.090  11.331   3.885  0.0788 -0.0761  0.1675
 5602W        W21071  17.905  16.429   6.014 -0.1931  0.0727  0.2498
 5603W        W21072  11.193   6.709   0.734 -0.1460  0.2797 -0.1054
 5604W        W21073  17.388  17.611   0.772  0.0258 -0.0273  0.0624
 5605W        W21074   3.210  16.126   0.367 -0.1777  0.3185 -0.5121
 5606W        W21075   9.832  15.733   3.990  0.5661 -0.0791  0.0255
 5607W        W21076  15.336   3.276   0.703 -0.1423 -0.0497  0.2338
 5608W        W21077  13.306   1.031  16.531 -0.2125  0.3531  0.2758
 5609W        W21078  14.178  10.607   4.652  0.0666  0.2404 -0.0267
 5610W        W21079   4.327  16.758   6.079  0.1198 -0.0406  0.1061
 5611W        W21080  13.717  12.078   2.431  0.0440 -0.0654  0.2443
 5612W        W21081  13.401  11.429   1.146 -0.0100  0.1728 -0.3332
 5613W        W21082   2.904  15.242   3.529 -0.1469  0.0935  0.2417
 5614W        W21083  17.692  17.430   4.138  0.1523 -0.2823 -0.1690
 5615W        W21084  14.098   7.680  12.964  0.4571 -0.3647 -0.3381
 5616W        W21085   8.910  16.362  13.865  0.1692  0.1374  0.4248
 5617W        W21086  11.647   8.663   4.807  0.1913  0.0692 -0.0824
 5618W        W21087   9.041  13.367  12.508  0.2403 -0.0523  0.1873
 5619W        W21088  14.743   9.137   3.393  0.0129 -0.1568 -0.0825
 5620W        W21089   2.144   0.849  14.412  0.0604  0.2042 -0.0499
 5621W        W21090  17.131   1.668   0.847 -0.0161 -0.0668  0.1235
 5622W        W21091   1.331   0.104  16.487 -0.1617 -0.0791 -0.0843
 5623W        W21092  17.347  11.070  14.986  0.4180 -0.1425  0.0330
 5624W        W21093  10.501  10.837   1.103 -0.2623 -0.0918  0.0317
 5625W        W21094  17.007   7.197   0.143  0.3198  0.2914  0.1251
 5626W        W21095  16.933  15.417   5.927  0.2475 -0.4403 -0.3457
 5627W        W21096   9.027   0.749  16.513  0.3433  0.4874  0.0071
 5628W        W21097  17.483  11.458   3.087  0.0406 -0.0316  0.1815
 5629W        W21098  12.762   1.867   1.444 -0.3059  0.0658 -0.0003
 5630W        W21099   5.007  10.527   2.223 -0.2874  0.2279  0.1385
 5631W        W21100   6.741  16.806   1.217 -0.1615  0.1003 -0.1108
 5632W        W21101   8.110  17.253   4.178  0.0988 -0.2701 -0.1694
 5633W        W21102  10.734   9.962   1.794  0.0544  0.3336 -0.0558
 5634W        W21103   2.223   7.177  12.194 -0.0559 -0.0050 -0.0481
 5635W        W21104  14.032   5.725   4.465 -0.0806 -0.1724 -0.1365
 5636W        W21105  12.573   1.817   2.833 -0.1349 -0.1306  0.0000
 5637W        W21106   2.791   7.935  16.360  0.0508 -0.0068 -0.0364
 5638W        W21107   0.661   0.965   0.206 -0.0008 -0.0226  0.0460
 5639W        W21108  17.021  16.966  13.895  0.0590  0.2180  0.2094
 5640W        W21109   2.799  13.510  14.303 -0.2284  0.0640  0.1053
 5641W        W21110   8.534  13.221   0.641 -0.0013  0.0771  0.0541
 5642W        W21111  10.354   3.958  15.919  0.1642  0.0032 -0.0975
 5643W        W21112   3.198  12.366  12.449 -0.0315 -0.0876 -0.0941
 5644W        W21113   0.211   7.715   1.258  0.0517  0.3265  0.0166
 5645W        W21114  13.947  10.630  11.346 -0.0231 -0.0771 -0.3254
 5646W        W21115  12.262  13.033  12.178 -0.1280 -0.4760 -0.1818
 5647W        W21116  14.947   8.735  12.986  0.1784 -0.0381 -0.0161
 5648W        W21117  16.822  11.901   0.690 -0.3705 -0.3818 -0.1182
 5649W        W21118  15.382  12.824   5.597 -0.2706  0.0410 -0.0603
 5650W        W21119   1.699   6.393   5.230  0.1921 -0.0071  0.1520
 5651W        W21120  12.381   8.921   3.906  0.0708 -0.2539  0.5573
 5652W        W21121  12.754   6.682  11.541  0.2959 -0.2056 -0.0725
 5653W        W21122   8.840  12.639  15.059 -0.0319  0.1451 -0.2012
 5654W        W21123   5.918   1.940  13.399 -0.2009 -0.3706  0.0473
 5655W        W21124   8.952   1.357  15.662  0.4061 -0.2491  0.3631
 5656W        W21125   0.649  13.892  16.083 -0.0202 -0.1775  0.1333
 5657W        W21126   7.256   1.678   1.564  0.1223  0.3016 -0.2646
 5658W        W21127  13.371   4.432  13.576  0.1510  0.0563 -0.2658
 5659W        W21128   9.682  16.084   1.859 -0.0691 -0.2021  0.4098
 5660W        W21129   1.978   3.231  14.387  0.3151  0.0344 -0.1393
 5661W        W21130   7.078   9.495  11.276  0.2521  0.0651 -0.0276
 5662W        W21131   5.905  13.724  13.495  0.1941 -0.1667  0.2259
 5663W        W21132  16.982   1.390   4.872  0.0107 -0.2613  0.3116
 5664W        W21133   3.530   8.061  13.935 -0.2110 -0.0566 -0.0114
 5665W        W21134  16.799   5.304   1.192 -0.2271 -0.2789 -0.0475
 5666W        W21135  14.525   7.326  13.089 -0.1228  0.4137  0.2108
 5667W        W21136  14.616  11.786   2.133 -0.1093  0.0295 -0.0593
 5668W        W21137   4.723   4.265   3.754  0.0082  0.1772 -0.3010
 5669W        W21138   1.509   5.508   0.117 -0.2719  0.1151  0.1552
 5670W        W21139   9.981   5.326   1.142 -0.2853  0.3658  0.2450
 5671W        W21140   0.318   2.946   0.928 -0.1210  0.3394 -0.1562
 5672W        W21141   6.711  10.850  15.885 -0.0224 -0.0027 -0.0700
 5673W        W21142  16.218  15.114  13.438 -0.1972 -0.0965 -0.1099
 5674W        W21143   2.842  10.600   0.813 -0.1325 -0.0642  0.2503
 5675W        W21144  14.848   5.429   4.723 -0.0647  0.0578 -0.1715
 5676W        W21145   6.749  15.972   5.026  0.2377 -0.0025 -0.3228
 5677W        W21146  17.093   1.686  16.069 -0.2118 -0.0947  0.4776
 5678W        W21147  12.724  13.299  12.868 -0.4662 -0.1049 -0.2601
 5679W        W21148  13.244  10.258   3.011  0.0080  0.0649 -0.2606
 5680W        W21149   9.302  13.765   4.187 -0.0159  0.1325 -0.0299
 5681W        W21150  14.801  11.366   3.582 -0.0147  0.2034  0.0384
 5682W        W21151  14.315   0.835  13.001 -0.1041  0.1313 -0.1643
 5683W        W21152   7.262   4.953  11.758  0.0571 -0.0599 -0.0707
 5684W        W21153   7.678   9.373   4.990  0.1703 -0.3167 -0.0132
 5685W        W21154  13.778   0.721   6.047  0.3216  0.0473  0.1844
 5686W        W21155   0.436  13.137   0.546  0.0468  0.0305  0.3317
 5687W        W21156   0.609   0.135   3.964 -0.0199 -0.0388 -0.1742
 5688W        W21157   8.793   4.615   0.019  0.1226  0.1586 -0.1034
 5689W        W21158   2.121   5.858  13.570 -0.0141  0.1513 -0.1881
 5690W        W21159   5.401   5.662   3.666 -0.3913 -0.2824 -0.1982
 5691W        W21160  17.153   2.648  15.264 -0.1158 -0.2176  0.0117
 5692W        W21161   6.139   0.012  14.056  0.1735 -0.0387  0.0079
 5693W        W21162   7.246   1.211  14.354 -0.2144  0.0252 -0.3205
 5694W        W21163  17.906  12.215   1.016 -0.1081 -0.0797 -0.1453
 5695W        W21164   5.484   8.028   1.017 -0.0479  0.2933 -0.0013
 5696W        W21165   7.135   4.388   2.164  0.0230 -0.0497 -0.3221
 5697W        W21166   2.022  13.675   0.111 -0.2433 -0.0598 -0.0004
 5698W        W21167  14.484   5.844   4.760 -0.0216  0.0589  0.1140
 5699W        W21168   9.727   5.490   3.510 -0.0480 -0.2087  0.1523
 5700W        W21169  10.784  11.377   0.350 -0.0324  0.2568 -0.0975
 5701W        W21170  17.656   6.546  12.220 -0.1084  0.3030 -0.5245
 5702W        W21171  15.806   1.457   3.680  0.2726  0.1797  0.1289
 5703W        W21172  14.758  15.467  15.364  0.3065 -0.0179  0.6159
 5704W        W21173   7.466   4.411   0.264  0.0562 -0.1386  0.1525
 5705W        W21174   3.913  12.440  14.860  0.0090  0.1156  0.0842
 5706W        W21175  15.259   8.713  12.580 -0.0285 -0.0225 -0.3864
 5707W        W21176  10.476   3.842   1.044 -0.3187 -0.3911  0.1829
 5708W        W21177   2.193   8.170   2.643  0.1198 -0.2130 -0.1678
 5709W        W21178  13.391   4.376  12.549  0.3860 -0.0728 -0.2260
 5710W        W21179  16.593  17.263   4.578 -0.0617 -0.0163  0.1715
 5711W        W21180  11.228  17.863   2.757 -0.0157 -0.0729  0.0107
 5712W        W21181  17.446   9.333   0.235  0.2828 -0.0055  0.0378
 5713W        W21182  16.280  15.682   2.413 -0.2431 -0.0758 -0.0183
 5714W        W21183  12.633   5.222   3.370 -0.1711 -0.0342  0.1767
 5715W        W21184   7.078   9.850   5.593 -0.0864 -0.2400  0.0122
 5716W        W21185   6.582   4.450  12.937  0.1081  0.5017  0.1916
 5717W        W21186   0.868  15.712   0.264 -0.1102 -0.0738 -0.2312
 5718W        W21187  15.025  10.476  12.235 -0.1920  0.0832  0.2489
 5719W        W21188   5.199  14.997  12.318  0.2209  0.2511 -0.1025
 5720W        W21189   9.813  14.242  11.391 -0.0974  0.0827 -0.1562
 5721W        W21190   6.644   8.623  15.839 -0.1727  0.1678  0.1921
 5722W        W21191  13.145   3.080  13.919  0.1427 -0.1275  0.2465
 5723W        W21192   9.090   9.197   1.530 -0.1728  0.1900  0.0783
 5724W        W21193  14.248   9.305  16.297 -0.0044  0.0614 -0.1806
 5725W        W21194   1.409   9.649   4.427 -0.3299  0.1099  0.0335
 5726W        W21195  15.487   1.525   0.073 -0.1408 -0.0497 -0.1156
 5727W        W21196   4.705   4.732  15.121 -0.1924 -0.0313  0.0124
 5728W        W21197  11.004   1.405   0.255  0.3508  0.1715 -0.0193
 5729W        W21198  10.838  12.025   4.045 -0.3971  0.2017  0.0445
 5730W        W21199   7.824  14.049   1.514  0.1772 -0.0687 -0.0547
 5731W        W21200   8.028   4.984   0.512  0.0869  0.1760 -0.1521
 5732W        W21201  12.676   3.475   0.546 -0.1183  0.0588 -0.0191
 5733W        W21202   4.675  16.954  14.064  0.1434  0.1828  0.3113
 5734W        W21203   1.137   0.569   4.507  0.0906  0.0776 -0.0304
 5735W        W21204   6.135  12.895   0.716 -0.0746  0.0059 -0.0848
 5736W        W21205  14.855  16.926   1.834  0.0568 -0.3727  0.2075
 5737W        W21206   5.408  14.835   4.674 -0.0423  0.1977  0.2926
 5738W        W21207  10.455   8.542   0.339  0.3459  0.1091 -0.0016
 5739W        W21208   0.481   0.650  11.779 -0.1895  0.1963 -0.2107
 5740W        W21209   8.381  13.672  16.486  0.0722 -0.2644  0.0863
 5741W        W21210  17.842  16.331   3.049 -0.1160 -0.0825 -0.2371
 5742W        W21211  12.980  15.628   2.519  0.0068  0.0198 -0.0894
 5743W        W21212   6.577  14.797   1.214  0.0310 -0.2012 -0.4310
 5744W        W21213  10.619   6.139   2.081  0.2757  0.2273  0.0084
 5745W        W21214  13.220   9.038   0.749 -0.1335 -0.1228 -0.0785
 5746W        W21215   4.382  12.931   1.121 -0.1204 -0.2357  0.1122
 5747W        W21216   4.001   9.801  13.677 -0.1839  0.2991 -0.0438
 5748W        W21217  10.606   7.927   3.521 -0.0614 -0.0114  0.0294
 5749W        W21218   9.087   8.296   6.413  0.1259  0.0805 -0.1681
 5750W        W21219  14.095   6.827  13.790  0.1304  0.1144 -0.0066
 5751W        W21220   1.536   2.587  16.401  0.4193  0.0224  0.1700
 5752W        W21221  13.904  10.705   2.321  0.0854  0.1951 -0.0183
 5753W        W21222   7.243   4.738   5.282  0.0968 -0.0678 -0.1918
 5754W        W21223  16.625  15.908   5.103 -0.0806  0.0274 -0.3085
 5755W        W21224  17.346  12.162   1.067 -0.1602 -0.2136  0.2877
 5756W        W21225  15.459   3.003  14.096 -0.1902  0.0328 -0.3006
 5757W        W21226  17.648  14.176  13.842  0.1569 -0.1658 -0.2150
 5758W        W21227  10.693  13.944  13.592 -0.1838 -0.0256 -0.1615
 5759W        W21228   6.881  13.662   2.370 -0.1034  0.1732 -0.1222
 5760W        W21229   0.852   2.887   0.814 -0.1117  0.3652 -0.2044
 5761W        W21230   0.630   0.568   5.376 -0.2013  0.1155 -0.0930
 5762W        W21231  14.782   6.791   2.638  0.4682  0.0920  0.0576
 5763W        W21232  15.004  17.358   2.196 -0.2534 -0.0443  0.3001
 5764W        W21233  11.920   5.807   2.081  0.0533 -0.0765  0.1038
 5765W        W21234   5.144   5.242  13.052  0.2094 -0.0664 -0.0255
 5766W        W21235  14.155   5.666  14.339  0.0396 -0.0736 -0.2019
 5767W        W21236  10.261  13.029  12.494 -0.1825  0.0563  0.2598
 5768W        W21237  15.160   0.964  11.369 -0.3597 -0.0884 -0.1827
 5769W        W21238  15.250   9.121  14.697  0.0685 -0.4711  0.4430
 5770W        W21239   5.294   6.994  10.209  0.2211  0.1565  0.1639
 5771W        W21240   7.711   1.646  12.531 -0.0753  0.1387  0.0075
 5772W        W21241   3.180  14.241   5.850 -0.0877  0.0093  0.0449
 5773W        W21242   4.018   3.999   5.343 -0.1770  0.1735  0.2379
 5774W        W21243  13.046  17.414   1.831 -0.0319  0.1999  0.0981
 5775W        W21244   7.149  11.411   4.724  0.0230  0.1255  0.2770
 5776W        W21245   2.901  14.713   5.547  0.0295  0.1008  0.0689
 5777W        W21246   9.227   5.108  12.101 -0.0129 -0.3823 -0.0476
 5778W        W21247   5.958  11.623  15.815  0.2541  0.0301 -0.1482
 5779W        W21248  12.993  14.879   5.918 -0.0719  0.2432  0.0261
 5780W        W21249   2.043   4.074   3.648 -0.1891  0.2635 -0.0390
 5781W        W21250  13.665   3.849   2.779  0.1790 -0.0146 -0.2399
 5782W        W21251  16.136  16.380  12.251 -0.1909  0.1205  0.0353
 5783W        W21252   7.938   0.192  13.236  0.1960  0.0074 -0.0068
 5784W        W21253   7.232  10.416   4.957  0.1148  0.1137 -0.1651
 5785W        W21254   7.140   6.736  11.497 -0.2223  0.2062 -0.2538
 5786W        W21255   4.367  12.647   4.117  0.1327 -0.1922 -0.0167
 5787W        W21256  15.594   2.414  13.002 -0.0599  0.2164  0.1667
 5788W        W21257  15.004   0.652   4.373  0.2709 -0.1222  0.0944
 5789W        W21258  11.293   0.044  11.977  0.2007 -0.1177 -0.0941
 5790W        W21259  11.893   1.447   0.524 -0.0856 -0.2892  0.0169
 5791W        W21260   9.975   5.410   3.909  0.1393 -0.2336  0.0440
 5792W        W21261  16.515   8.492   2.454 -0.0287  0.1478  0.0176
 5793W        W21262   3.933   1.910  11.777 -0.1680 -0.0154  0.2131
 5794W        W21263   6.584   2.240   5.331 -0.2694  0.2615  0.3829
 5795W        W21264   1.570   7.764   1.077 -0.0954 -0.1592 -0.0162
 5796W        W21265   1.115   7.523  15.661 -0.0279  0.0787  0.0411
 5797W        W21266  10.376   9.254   3.857 -0.0882  0.3295  0.0781
 5798W        W21267   1.993   2.531   0.248  0.0993  0.0886 -0.0171
 5799W        W21268   0.145  12.669   5.111 -0.0057  0.0463 -0.0450
 5800W        W21269   4.323   0.906  14.182 -0.0903 -0.1220  0.0611
 5801W        W21270   0.277   1.383   2.345  0.0419 -0.1747 -0.0204
 5802W        W21271   3.562  17.622   5.101  0.2563 -0.2792  0.0061
 5803W        W21272   9.755   9.373  13.542 -0.0503  0.0753 -0.2261
 5804W        W21273  10.392  12.888   4.850  0.1961  0.0655  0.1197
 5805W        W21274   8.986   7.439   2.668  0.0495  0.0582 -0.1717
 5806W        W21275   6.083   4.297  13.165  0.0642  0.0330 -0.1155
 5807W        W21276   9.555   3.594   3.332 -0.0017  0.0470  0.2568
 5808W        W21277  13.724  12.606   3.018 -0.0965 -0.0768 -0.0061
 5809W        W21278  14.749   0.077   2.745  0.2179 -0.2217  0.0104
 5810W        W21279  15.465  16.831   3.889  0.0651 -0.1501 -0.1821
 5811W        W21280  11.179  10.739  12.070  0.2272 -0.0582  0.1812
 5812W        W21281  14.149   1.456   1.312 -0.2142  0.0499 -0.1090
 5813W        W21282   4.046  17.123  15.717 -0.0849 -0.3718  0.1270
 5814W        W21283  12.002   1.305   2.324  0.0742 -0.0816  0.3135
 5815W        W21284  10.623   1.963   1.426  0.0963 -0.3518 -0.2609
 5816W        W21285   1.058  13.698   2.316 -0.1411 -0.1296 -0.1815
 5817W        W21286   4.498   6.899   1.429 -0.0091 -0.0442  0.2822
 5818W        W21287  15.719   7.136  11.714 -0.0009 -0.2615  0.1468
 5819W        W21288   5.907   7.378   2.331 -0.0929  0.2224  0.2878
 5820W        W21289   4.272   6.084   4.082  0.0712  0.0122  0.0955
 5821W        W21290   7.864  12.363  14.753  0.1580 -0.2322  0.2727
 5822W        W21291  10.294   3.540  12.179  0.2891  0.0547  0.0715
 5823W        W21292   0.315   0.963  13.897  0.4155  0.1697 -0.1192
 5824W        W21293   7.436   9.029   1.128 -0.2998  0.1393  0.3689
 5825W        W21294   7.854   7.290  11.475  0.3967 -0.3292  0.0860
 5826W        W21295  13.688   1.958  11.765 -0.3244 -0.2689  0.0381
 5827W        W21296   8.670  12.434   1.461 -0.1727  0.0497  0.0226
 5828W        W21297   8.818   5.071  16.424  0.0052  0.0852  0.1837
 5829W        W21298  17.742   6.640   1.360  0.2632 -0.1535 -0.2694
 5830W        W21299  15.256  15.263   6.206 -0.1833  0.1964 -0.2778
 5831W        W21300   2.051   6.941  10.066 -0.2644 -0.0332 -0.0622
 5832W        W21301  10.267   4.565  13.055 -0.0289 -0.1226 -0.2077
 5833W        W21302  10.864   7.646   0.381  0.1276  0.1393  0.0479
 5834W        W21303   2.176   3.040  11.112  0.4787  0.2294  0.1993
 5835W        W21304   4.186   1.294  16.282  0.3402 -0.2760  0.5010
 5836W        W21305  16.328   2.096   1.121  0.0555 -0.1654  0.1553
 5837W        W21306   3.917   5.508  11.669 -0.0468  0.1660 -0.3119
 5838W        W21307   0.560   5.153   4.031 -0.0690  0.1102  0.1309
 5839W        W21308   2.152   4.599  13.913  0.3617  0.0610 -0.0225
 5840W        W21309   2.297   4.813   3.188 -0.2454 -0.2151 -0.1026
 5841W        W21310  10.254   4.153   2.667  0.3521  0.0311 -0.4221
 5842W        W21311   2.268  16.091  15.111 -0.1515 -0.0242  0.0196
 5843W        W21312  14.717  11.383  16.211  0.2248  0.1914 -0.0205
 5844W        W21313   9.445   2.147   0.914  0.0413 -0.0113 -0.4293
 5845W        W21314   9.398   8.036  14.125  0.0612  0.0608 -0.0960
 5846W        W21315   6.643  13.587   4.068  0.0954  0.0624  0.0539
 5847W        W21316   4.546  11.064   1.687  0.3256 -0.1796  0.2601
 5848W        W21317   9.216  13.254   3.826 -0.1774  0.0827 -0.0678
 5849W        W21318  17.951  10.600   1.614  0.1912  0.2222 -0.1573
 5850W        W21319  14.979   7.481   5.657  0.1127 -0.4613  0.0559
 5851W        W21320  10.748   8.245  10.880 -0.0516  0.2618 -0.0603
 5852W        W21321  12.554   1.861   0.057 -0.0567  0.2693 -0.3082
 5853W        W21322  10.896   4.590   4.356  0.1447  0.0628 -0.1432
 5854W        W21323  13.798   5.507   5.377  0.0089  0.1746 -0.2543
 5855W        W21324   1.308  16.069  11.163 -0.0029 -0.1417  0.3008
 5856W        W21325   8.916   4.439   3.731 -0.2290  0.0309  0.0679
 5857W        W21326  14.085   6.125  11.435 -0.1932  0.0662  0.1508
 5858W        W21327   8.416   4.860   0.175  0.1675  0.1440  0.0448
 5859W        W21328  14.588   5.688   3.077 -0.2678 -0.0739  0.0285
 5860W        W21329   0.782   0.132   6.372 -0.2618  0.0627 -0.2066
 5861W        W21330   3.601  12.095   5.410  0.0982 -0.0492  0.0510
 5862W        W21331  10.363   7.355   3.532 -0.0435 -0.0929  0.0552
 5863W        W21332  12.543  13.673  15.311 -0.3669 -0.2578  0.1207
 5864W        W21333  15.307   0.915   0.245 -0.0047  0.2270  0.3716
 5865W        W21334   5.446   3.037   0.364 -0.2146 -0.1434  0.0828
 5866W        W21335  15.428   8.997  15.371  0.1386 -0.2119  0.1551
 5867W        W21336   7.327   0.463   0.644  0.0472  0.2218 -0.2873
 5868W        W21337   2.189  12.850  11.082 -0.1430 -0.2037  0.4528
 5869W        W21338   5.151   7.143  11.575 -0.0319  0.1172 -0.1800
 5870W        W21339   3.144   6.533   0.484  0.0433 -0.0918 -0.0272
 5871W        W21340   7.507  11.518  13.729 -0.1678  0.4876 -0.0656
 5872W        W21341   6.404   8.838   5.331  0.1380 -0.0418 -0.1644
 5873W        W21342   5.212   0.985   1.822  0.2092  0.3384  0.2492
 5874W        W21343  17.346   7.248   5.718 -0.0251 -0.1185 -0.3280
 5875W        W21344   8.864   1.022   5.111  0.0222 -0.1546  0.1157
 5876W        W21345  15.930  12.461  13.955 -0.1165 -0.0878  0.3787
 5877W        W21346   5.452  14.524  15.322  0.0497 -0.2210 -0.0657
 5878W        W21347  14.833  16.449  15.178  0.1497  0.0923  0.0051
 5879W        W21348   8.419   2.031  15.171 -0.0667  0.2411  0.1817
 5880W        W21349   2.866  10.830  11.559 -0.0974 -0.1901  0.3093
 5881W        W21350  15.661  10.988   1.889  0.2496  0.0345 -0.1458
 5882W        W21351   5.933   4.417  10.856  0.0146 -0.2070 -0.1488
 5883W        W21352  17.338  16.998  16.346 -0.3107 -0.0736 -0.0274
 5884W        W21353   3.771  10.284   2.329 -0.0194 -0.1148 -0.2563
 5885W        W21354   4.298  12.751   1.860 -0.1765  0.0146 -0.1812
 5886W        W21355  10.836   8.137  15.917 -0.3074  0.2756  0.1344
 5887W        W21356   3.450  16.994   5.427 -0.2674 -0.0407  0.4426
 5888W        W21357   1.009  14.306  14.105  0.0364  0.1347  0.1771
 5889W        W21358  12.636  13.477   1.408  0.0158  0.0704 -0.2432
 5890W        W21359  16.792  14.380  12.717  0.1695 -0.0356 -0.1106
 5891W        W21360  15.813  14.035  12.669 -0.0946 -0.2328 -0.1459
 5892W        W21361  10.689   5.398   0.292 -0.1786  0.1788 -0.1251
 5893W        W21362   6.805  17.262   1.435  0.2447  0.1456 -0.2910
 5894W        W21363  10.008   8.820   5.587  0.1099 -0.3387 -0.0171
 5895W        W21364   6.079  12.674   4.228 -0.2055  0.1250  0.1419
 5896W        W21365  11.815   4.530   1.162 -0.1276 -0.2416 -0.1124
 5897W        W21366  15.124   6.016  12.620  0.0961 -0.2444 -0.0127
 5898W        W21367  12.860  15.123  12.167  0.1052 -0.0427  0.0344
 5899W        W21368  11.649   6.236  15.831 -0.2814 -0.2357 -0.1977
 5900W        W21369  17.726   4.292  10.802  0.0847 -0.1761  0.2209
 5901W        W21370  17.456   4.394   3.864 -0.2389 -0.0065  0.1621
 5902W        W21371  15.011   0.925   3.972  0.1925 -0.0748 -0.0287
 5903W        W21372   5.400  13.347  14.195 -0.1089 -0.0029  0.2112
 5904W        W21373  14.860  16.380  13.834  0.0623  0.0810 -0.1378
 5905W        W21374   1.835  13.431   3.095 -0.1658 -0.1567  0.1875
 5906W        W21375  11.817  15.885  15.196  0.1954 -0.1868  0.1043
 5907W        W21376  15.023   7.584   0.962 -0.2963 -0.4186 -0.0306
 5908W        W21377  17.307   5.904   2.987  0.1314  0.1899 -0.0771
 5909W        W21378  11.451  12.313  13.251  0.1161 -0.0631  0.0731
 5910W        W21379  15.460  13.897   2.236  0.1461 -0.0889  0.1013
 5911W        W21380  11.501   0.402   5.674  0.1946  0.0624  0.1855
 5912W        W21381   7.715  11.446   1.706  0.0541 -0.1197 -0.1184
 5913W        W21382  12.493  14.593  13.125 -0.0287 -0.1074  0.2414
 5914W        W21383  16.661   3.052   5.670 -0.1548  0.0882 -0.3225
 5915W        W21384   9.764   7.480  12.549 -0.0894 -0.0224 -0.1271
 5916W        W21385  11.789  13.706   1.441 -0.0648 -0.1518 -0.1837
 5917W        W21386  10.644   2.459   3.978  0.2309  0.1203 -0.3229
 5918W        W21387  14.105   3.872   3.668  0.1421  0.0809  0.0126
 5919W        W21388  17.286   3.704   0.796 -0.1816  0.0636  0.0518
 5920W        W21389  14.423  16.036   2.714 -0.2294 -0.0715  0.0123
 5921W        W21390   8.532   3.719   4.112 -0.0076  0.2398 -0.1047
 5922W        W21391   2.109   8.952  11.032 -0.3889  0.2550  0.0586
 5923W        W21392  11.277  15.602   0.714  0.2189 -0.1369 -0.4325
 5924W        W21393  14.630   8.116   3.707  0.2808 -0.0277 -0.0869
 5925W        W21394  14.252   6.751   3.804  0.3321  0.0719 -0.4452
 5926W        W21395   3.219  14.028  15.012 -0.0260  0.0747 -0.2083
 5927W        W21396  15.200  17.599   4.029 -0.4146  0.0924 -0.0147
 5928W        W21397   0.852  12.804  14.812 -0.0222 -0.1413 -0.1087
 5929W        W21398   9.532  12.653   0.631  0.0566 -0.2814 -0.2836
 5930W        W21399  15.803  17.828  12.240 -0.0402 -0.1326  0.1925
 5931W        W21400   3.372   6.079   4.139  0.0191  0.0538 -0.0795
 5932W        W21401   4.137  15.703  12.167 -0.0119 -0.2874  0.1138
 5933W        W21402   1.144   6.991   1.418 -0.0876  0.1840 -0.0446
 5934W        W21403  13.572   2.993   1.130  0.4898 -0.3323 -0.2978
 5935W        W21404   7.211   0.543  13.608 -0.2171 -0.0007  0.0763
 5936W        W21405  12.260   6.411  13.940  0.2015 -0.1427 -0.1453
 5937W        W21406  11.884   5.650  16.541 -0.2061 -0.0485 -0.5673
 5938W        W21407  11.325  13.306  13.333 -0.1228 -0.3892  0.1744
 5939W        W21408  12.098  10.055   3.712 -0.0221 -0.3220 -0.1660
 5940W        W21409  15.464   1.359  13.028  0.0681  0.1225 -0.3560
 5941W        W21410  16.061   3.666  16.459  0.1140  0.3906 -0.2003
 5942W        W21411   9.294   6.506   6.094 -0.0240  0.0086  0.0859
 5943W        W21412   4.512  13.486  12.001  0.0127 -0.1064 -0.0479
 5944W        W21413   3.515  11.611  13.937 -0.1809 -0.1755  0.2058
 5945W        W21414  14.605   5.912  12.569  0.1886  0.1402 -0.0899
 5946W        W21415  16.118  14.374   4.109 -0.1780 -0.1622  0.1101
 5947W        W21416   3.293   3.481   1.516 -0.1389 -0.0817  0.1848
 5948W        W21417   9.144  17.928   4.122 -0.0432  0.2988 -0.1673
 5949W        W21418  10.360  13.640  14.072  0.0238 -0.0432  0.0905
 5950W        W21419  15.771  13.143  12.019 -0.1187  0.3183  0.0077
 5951W        W21420   8.455  16.400   2.579  0.1779 -0.1243 -0.2231
 5952W        W21421  10.499  12.860   2.937  0.2201 -0.0603  0.0501
 5953W        W21422   0.237  16.671   1.201 -0.0891  0.0236  0.0809
 5954W        W21423   1.746   8.964  12.431  0.2083  0.4679  0.3167
 5955W        W21424   3.989  12.289  16.279  0.0515 -0.1711  0.2055
 5956W        W21425  12.544   8.610   1.958 -0.2925 -0.1285 -0.0772
 5957W        W21426   0.509   5.129   1.172  0.0945  0.0181  0.1640
 5958W        W21427   4.583   6.786   5.681  0.1017  0.1534  0.1824
 5959W        W21428  13.336   5.552  13.801 -0.3414  0.1075 -0.0041
 5960W        W21429   8.906   5.745  13.482  0.0113  0.0735 -0.3149
 5961W        W21430   4.605  16.962  13.040  0.4891  0.1330 -0.1758
 5962W        W21431   7.662   9.066   2.877  0.1907 -0.0148  0.0972
 5963W        W21432  17.698   8.015   0.789 -0.0172 -0.1466 -0.2415
 5964W        W21433   0.103   7.694   2.920  0.0207 -0.1602  0.0890
 5965W        W21434  15.172   1.071   1.245  0.0271 -0.0567 -0.1599
 5966W        W21435   3.625  15.418  14.962 -0.0507  0.0926  0.0167
 5967W        W21436   6.660  12.486   2.771  0.0906  0.2045 -0.0602
 5968W        W21437   2.177   7.747   0.688  0.0102  0.4064 -0.1039
 5969W        W21438   8.674  17.858   2.193  0.0349 -0.0744 -0.2101
 5970W        W21439  11.095  11.423   2.922 -0.0434 -0.0803 -0.2671
 5971W        W21440   3.716   4.026  15.588 -0.0655  0.0337  0.1028
 5972W        W21441  17.235  15.209  10.996 -0.1014  0.0769  0.1835
 5973W        W21442  13.539  16.965   1.289  0.0062  0.2085  0.0256
 5974W        W21443   8.550   8.640  13.893 -0.1187  0.2266 -0.0457
 5975W        W21444   3.630   4.651  11.764 -0.3794 -0.0731  0.0610
 5976W        W21445  12.131   3.433   5.059 -0.2587 -0.1360  0.0069
 5977W        W21446  17.484   7.097  12.331  0.0256 -0.1263  0.0236
 5978W        W21447   5.552   8.357  13.750 -0.2566 -0.1278 -0.0359
 5979W        W21448   8.510  14.840  11.227  0.0723 -0.3838 -0.1265
 5980W        W21449   5.003   2.199   2.351  0.3528  0.0251 -0.0322
 5981W        W21450   7.517  17.408   2.446  0.0081 -0.1993 -0.1917
 5982W        W21451   3.103   0.104   3.974  0.1587 -0.2274  0.1384
 5983W        W21452   8.859  12.172  14.960  0.0013  0.0123  0.0410
 5984W        W21453  13.842   1.644  13.421 -0.2526 -0.2197  0.3387
 5985W        W21454   8.490   9.155   3.354  0.1373 -0.0188 -0.1365
 5986W        W21455  13.915   3.743  11.325  0.1084 -0.3338  0.1482
 5987W        W21456   8.666   0.012  16.127 -0.0391  0.2983  0.3827
 5988W        W21457  16.601  17.936   0.179  0.0273 -0.1980 -0.1297
 5989W        W21458   1.396  17.770   0.263  0.0140 -0.0159  0.0991
 5990W        W21459   9.348   8.833  16.015  0.0523  0.2456 -0.4759
 5991W        W21460  15.000  16.324   1.706  0.1380 -0.1196  0.1644
 5992W        W21461  11.158  10.086  14.238  0.0565 -0.2416 -0.1637
 5993W        W21462   0.592   9.812  12.238  0.0012  0.2330  0.0288
 5994W        W21463   0.817  16.809   4.393  0.0905  0.0724  0.1665
 5995W        W21464  12.924   4.638  13.536 -0.0865  0.0557  0.0916
 5996W        W21465  16.779   6.456  11.072  0.3431  0.0953  0.0836
 5997W        W21466   4.388  12.427   1.443 -0.2753 -0.1788 -0.2239
 5998W        W21467   1.678   4.791  14.928  0.1927  0.0553  0.1463
 5999W        W21468  16.396  14.179   1.067  0.2212 -0.1141  0.2337
 6000W        W21469  15.471   3.397   5.923  0.0164 -0.4426  0.1598
 6001W        W21470  17.057   9.195  11.399  0.1727  0.0293  0.1502
 6002W        W21471   5.134  17.972   3.125 -0.0023 -0.3044 -0.1505
 6003W        W21472  17.086  16.879   3.118 -0.0457 -0.2012 -0.1106
 6004W        W21473   6.033   8.782   2.100 -0.0557 -0.0400  0.1334
 6005W        W21474   8.191   6.662  11.999 -0.1488 -0.0804  0.0422
 6006W        W21475   3.257   7.978  16.025 -0.1218 -0.0105 -0.0960
 6007W        W21476   8.396   7.483   2.545  0.5967 -0.0395 -0.0325
 6008W        W21477  17.968  10.924   4.621  0.1006  0.4225  0.2363
 6009W        W21478  10.740   1.535  15.876  0.2011  0.0865  0.0189
 6010W        W21479   9.878   2.712  11.749 -0.2685 -0.1443  0.0224
 6011W        W21480  13.461   1.878   4.096 -0.0829 -0.0969 -0.0586
 6012W        W21481   7.767   4.307  12.779 -0.0463  0.0780 -0.1171
 6013W        W21482  13.377   7.565   3.196 -0.1863 -0.1125 -0.2889
 6014W        W21483   5.014   2.902  13.272 -0.0317 -0.1799  0.1195
 6015W        W21484  17.388   5.834  13.177 -0.1188 -0.0479 -0.3659
 6016W        W21485   8.806   2.356   0.042  0.0316 -0.2116 -0.0621
 6017W        W21486  12.868  15.925  16.330 -0.2306  0.2338  0.0115
 6018W        W21487   5.545  13.216   3.265  0.3318  0.3689 -0.0046
 6019W        W21488   8.183  13.927  15.652  0.3674 -0.0313  0.1687
 6020W        W21489   5.109   8.177  11.169 -0.1873  0.1725  0.0634
 6021W        W21490  11.061   4.127  15.219 -0.1028 -0.1146 -0.0139
 6022W        W21491   6.304  10.283   5.322 -0.1713 -0.0663 -0.0510
 6023W        W21492  15.363   7.282   2.248 -0.0555 -0.0710 -0.0846
 6024W        W21493  13.424   5.225  15.689  0.0691 -0.2454 -0.1125
 6025W        W21494   5.101   4.924  12.607  0.0557 -0.2107  0.0149
 6026W        W21495   3.048   4.186  13.989 -0.2940 -0.0147 -0.1242
 6027W        W21496  13.073   4.619   0.308 -0.0227 -0.0308  0.0752
 6028W        W21497  11.157   6.774   1.351  0.1820 -0.0287  0.4351
 6029W        W21498   3.214   6.961  12.741 -0.1443  0.1424 -0.4056
 6030W        W21499   9.962  13.351  13.911  0.0523  0.1754  0.3053
 6031W        W21500  15.094  17.577  15.392 -0.1892  0.2220 -0.2539
 6032W        W21501   3.978   9.943  14.233 -0.1965 -0.1917  0.2503
 6033W        W21502   9.925  15.421   1.353 -0.1737 -0.0543 -0.0754
 6034W        W21503   6.662   3.468   1.122  0.0283 -0.4412  0.1503
 6035W        W21504   7.755   1.388  14.056 -0.2281  0.3697  0.0265
 6036W        W21505  13.720   5.583  12.054  0.1036 -0.2054 -0.0335
 6037W        W21506   6.994  17.026  14.341 -0.0632  0.2618 -0.2083
 6038W        W21507  10.845   1.523   1.152 -0.1207  0.3040  0.1174
 6039W        W21508  16.852  11.210   5.052 -0.0376 -0.0083 -0.1325
 6040W        W21509  15.632   4.466   2.930 -0.2956 -0.3499 -0.1487
 6041W        W21510   2.575   4.144   0.725 -0.0074  0.0660 -0.2650
 6042W        W21511   2.449  12.367  15.440 -0.2004  0.1631 -0.0581
 6043W        W21512  15.080  13.741   1.435 -0.1050 -0.2793  0.0911
 6044W        W21513   9.596  12.846   3.093  0.0965  0.1186  0.0251
 6045W        W21514  13.265  13.411  12.837  0.2486 -0.4573  0.1397
 6046W        W21515   6.635  16.736  16.281 -0.0415 -0.1904 -0.0749
 6047W        W21516   2.760   4.360  11.027 -0.0337 -0.0552 -0.0761
 6048W        W21517  13.793   2.641   1.498  0.1158  0.1489  0.2223
 6049W        W21518  14.496   3.566   0.705 -0.2515 -0.0167  0.1676
 6050W        W21519   7.029   3.335   0.263  0.2374 -0.1164 -0.1861
 6051W        W21520  15.295   6.726   0.405  0.2919 -0.1223  0.0255
 6052W        W21521   3.636   6.398  12.325  0.1493  0.1504  0.0949
 6053W        W21522   3.518   3.623   3.487 -0.0504  0.1155 -0.0610
 6054W        W21523   3.338   3.623  15.755 -0.0926 -0.0867  0.0481
 6055W        W21524   9.451  16.235  15.218  0.1036 -0.1038  0.1058
 6056W        W21525  13.937  11.210   1.325 -0.1771  0.1795  0.1796
 6057W        W21526  15.855   7.636  15.191 -0.3007 -0.3771  0.0151
 6058W        W21527   4.766   2.043  12.279 -0.0582  0.3099  0.2695
 6059W        W21528   6.925   3.985  16.007 -0.1425  0.0407 -0.1100
 6060W        W21529   5.349  17.026   6.631  0.1963  0.0514 -0.0553
 6061W        W21530   1.344   9.437  12.878 -0.2468 -0.0371  0.0273
 6062W        W21531   2.077  11.169   4.596  0.2349  0.3164  0.0616
 6063W        W21532   7.338  13.838   2.299  0.0148 -0.1638  0.1269
 6064W        W21533   4.271  11.556  15.848  0.0870  0.0498  0.2063
 6065W        W21534   7.673   6.978   5.460  0.2147  0.1681  0.4145
 6066W        W21535   8.024  11.010   0.759  0.1641  0.3659 -0.0370
 6067W        W21536   0.321  15.982   4.867 -0.1130 -0.0424  0.1479
 6068W        W21537  17.413  14.709  13.909 -0.4913 -0.0041 -0.1187
 6069W        W21538   4.897   9.041   2.798 -0.3345 -0.0175  0.0169
 6070W        W21539   4.144   4.252   1.503 -0.1467 -0.0892 -0.1024
 6071W        W21540   0.537  16.501   4.139  0.2979  0.1312 -0.2378
 6072W        W21541   7.136   5.536   1.062  0.1916 -0.1995 -0.0922
 6073W        W21542  17.541   1.267   1.939  0.0680 -0.1460  0.1250
 6074W        W21543  10.440  14.805  13.120 -0.1364 -0.1068 -0.2121
 6075W        W21544  12.952  15.856  12.442  0.1318 -0.1701 -0.1419
 6076W        W21545   6.962   8.452   3.849  0.1497 -0.0650  0.3968
 6077W        W21546  12.785   0.173  11.762  0.1410  0.0401  0.0604
 6078W        W21547   1.121   4.400   1.926  0.2485  0.1114  0.1766
 6079W        W21548  13.009   9.820   2.273  0.1343  0.0781 -0.5808
 6080W        W21549  13.202  17.657   5.884  0.1573  0.3898  0.1257
 6081W        W21550   7.180  15.094   5.442 -0.2322 -0.1115 -0.0874
 6082W        W21551   1.013  11.186  15.624  0.0651  0.5533  0.2179
 6083W        W21552   6.580   1.765  16.386 -0.1814  0.0638  0.1869
 6084W        W21553  11.415  11.266  14.082  0.2016  0.2271  0.0959
 6085W        W21554   3.051  13.340  15.821  0.0327  0.4167 -0.2056
 6086W        W21555  13.281  15.611   3.551  0.4403  0.1280 -0.1356
 6087W        W21556  17.115   1.123   1.716 -0.2597 -0.0280  0.1668
 6088W        W21557  10.632   7.704   5.371 -0.0440 -0.0958 -0.2455
 6089W        W21558   2.239   0.382   4.863 -0.0223  0.2017 -0.2804
 6090W        W21559  10.551   4.540   3.538  0.0224 -0.1610 -0.2520
 6091W        W21560  10.230   7.886  10.847  0.0310 -0.0224 -0.0881
 6092W        W21561   9.900  17.500   4.661 -0.0903  0.0592 -0.1028
 6093W        W21562   6.894   6.025   2.807 -0.0598  0.0680 -0.2593
 6094W        W21563  14.406  14.401  11.778  0.0015 -0.1423 -0.1521
 6095W        W21564   2.183  17.489  16.350  0.1191 -0.0946 -0.1413
 6096W        W21565  10.706   1.360  11.756 -0.1942  0.0385  0.3090
 6097W        W21566  12.156  14.008  10.388  0.0884 -0.2761 -0.0138
 6098W        W21567   0.121   5.126  15.133  0.0051 -0.2705 -0.2735
 6099W        W21568   4.640   7.437   2.732  0.3753 -0.1120 -0.1062
 6100W        W21569   3.499   2.916   2.056 -0.1937 -0.0598  0.3524
 6101W        W21570   9.054   4.456   2.854 -0.3784 -0.0248  0.0324
 6102W        W21571  13.754  14.816  13.791  0.1247  0.1148  0.3116
 6103W        W21572   7.793   8.278  11.126  0.2088 -0.1649  0.0194
 6104W        W21573   4.513   4.417  15.510  0.1300  0.4428  0.1941
 6105W        W21574   0.480   1.502   5.627  0.3000  0.0485  0.2328
 6106W        W21575  13.881  14.675   2.332  0.1090  0.2096 -0.2411
 6107W        W21576   1.146  10.717  14.703  0.0673 -0.1931  0.0495
 6108W        W21577   7.475   7.140  15.573  0.6221 -0.0890 -0.2772
 6109W        W21578   6.508   3.928   3.309  0.2660  0.1959 -0.3160
 6110W        W21579   0.230   0.569  15.753 -0.1465 -0.1335  0.0872
 6111W        W21580   4.813   7.236  15.744  0.0838 -0.2392  0.0265
 6112W        W21581   0.218  15.096  10.915 -0.0755  0.2127  0.1929
 6113W        W21582  10.831  12.789   3.707  0.2952 -0.0669  0.0863
 6114W        W21583  10.967  16.385  12.554  0.1375  0.0136 -0.1472
 6115W        W21584  13.926  13.302   0.983  0.2124  0.2060  0.0694
 6116W        W21585  16.212   6.028  16.264  0.2605  0.2129 -0.1563
 6117W        W21586   4.241   4.627  15.910  0.0791  0.1447 -0.0724
 6118W        W21587  16.174  13.696  12.801 -0.1435  0.1286  0.0368
 6119W        W21588  15.310  16.196  15.939 -0.2420 -0.0479  0.0180
 6120W        W21589   8.123   3.104   0.061  0.0412  0.3391  0.0831
 6121W        W21590  17.440  15.731   1.833  0.1344  0.1329  0.1592
 6122W        W21591   7.666   6.918   6.010 -0.3162 -0.2601 -0.1200
 6123W        W21592   8.917   3.044  13.079  0.0639 -0.3026 -0.0791
 6124W        W21593   9.930  17.726  14.448  0.0595 -0.1382  0.1631
 6125W        W21594   5.314  15.813   5.181  0.0273 -0.0840  0.2151
 6126W        W21595   9.454   4.223  11.637  0.4523 -0.0286  0.2252
 6127W        W21596  15.937   1.462  16.257  0.2519 -0.0491 -0.2245
 6128W        W21597  12.588   3.191  12.026  0.1637  0.1024 -0.1543
 6129W        W21598   2.904   9.374  14.986 -0.0789  0.2689  0.1438
 6130W        W21599  16.004  12.451  11.496  0.0967  0.0594 -0.2303
 6131W        W21600  10.043  12.357   0.664  0.1844  0.0028 -0.0973
 6132W        W21601   8.157   7.587  11.135  0.2211  0.1417 -0.0258
 6133W        W21602  12.966  10.694   3.091 -0.0094  0.1787 -0.1854
 6134W        W21603  10.196  16.647  13.593 -0.1582 -0.1741 -0.2509
 6135W        W21604   5.899  12.907  12.158 -0.1134 -0.0905  0.2682
 6136W        W21605  12.049   5.971   0.692  0.1887 -0.3812  0.0765
 6137W        W21606  12.735   6.134  11.411 -0.3379  0.0560  0.0065
 6138W        W21607   1.339  11.894  14.947 -0.3326  0.0817  0.1765
 6139W        W21608  14.092   5.170   5.009 -0.3875 -0.3966 -0.4353
 6140W        W21609   4.941  16.401   2.776 -0.3012 -0.1438  0.2827
 6141W        W21610   0.100  11.946  15.374  0.0734  0.0721 -0.0198
 6142W        W21611  12.528  15.533   2.242 -0.0040  0.1660 -0.0168
 6143W        W21612   8.921   0.476   5.037 -0.1945 -0.1282 -0.0810
 6144W        W21613   2.966   7.633   5.060 -0.0235 -0.0558  0.2572
 6145W        W21614   3.547  10.528  11.980 -0.1788 -0.0502  0.2057
 6146W        W21615   7.712  11.555  14.916  0.0609  0.1127 -0.0046
 6147W        W21616   9.276  13.298   1.483  0.0534 -0.1906  0.1226
 6148W        W21617   6.168   6.111   5.337 -0.1613 -0.0234  0.2856
 6149W        W21618  14.634   7.290   4.275  0.3582  0.1600 -0.2317
 6150W        W21619   5.641  17.802   1.282  0.2606  0.1044  0.1729
 6151W        W21620   8.187  10.091   5.111  0.5168 -0.3831  0.0044
 6152W        W21621  17.553   6.066  11.327  0.1490 -0.1255  0.0138
 6153W        W21622  12.103   6.317   3.598 -0.1694 -0.4418  0.0776
 6154W        W21623  15.905   2.312  16.323 -0.1248 -0.0495  0.2362
 6155W        W21624   0.563   9.510   1.481 -0.0922  0.0798  0.1352
 6156W        W21625   8.119   0.480   0.106 -0.0241 -0.1720 -0.1816
 6157W        W21626  10.497   1.124  16.608  0.1509 -0.3171 -0.0271
 6158W        W21627   9.273   7.647  11.517 -0.0600 -0.0832 -0.3380
 6159W        W21628   3.380   9.717  14.805 -0.3416 -0.3562  0.1500
 6160W        W21629  11.988  11.825   3.359 -0.1004 -0.0835 -0.1940
 6161W        W21630   5.253   3.580   4.471 -0.0267  0.1221 -0.0777
 6162W        W21631   7.755   9.919   2.638 -0.0578  0.1353  0.1057
 6163W        W21632   8.367  13.578  14.158 -0.0921  0.0145 -0.1370
 6164W        W21633  12.123  12.990   0.177 -0.0435  0.0834  0.1297
 6165W        W21634   0.735  10.982  14.771 -0.2209  0.0110 -0.1355
 6166W        W21635  17.575  14.201  12.758 -0.0878  0.1622 -0.0220
 6167W        W21636   2.491  15.381  13.233 -0.2273 -0.0082 -0.0858
 6168W        W21637   4.005   7.904   1.458 -0.4483  0.1139  0.2304
 6169W        W21638   4.202  12.657   3.609 -0.0024  0.1510 -0.1868
 6170W        W21639   9.349   5.346   4.610  0.0838  0.0662  0.1575
 6171W        W21640   7.792   4.330  16.257  0.0286  0.0007 -0.2108
 6172W        W21641  15.746  14.074  14.636 -0.0714  0.0022 -0.0931
 6173W        W21642   7.757   4.852   4.070  0.0036 -0.0421  0.1754
 6174W        W21643   9.523  15.604  16.316 -0.0151 -0.3798  0.1653
 6175W        W21644  12.495   3.296  13.795  0.0645  0.0895  0.0913
 6176W        W21645   5.205   1.431  12.855 -0.0956 -0.2039  0.0207
 6177W        W21646   6.382   8.325   1.293  0.1068 -0.3169  0.1623
 6178W        W21647   1.020  16.229   0.068  0.0654  0.3875  0.0404
 6179W        W21648  13.507  11.307  13.164 -0.2463 -0.0807  0.0201
 6180W        W21649  10.505   6.439   3.140  0.0774  0.0341 -0.2112
 6181W        W21650   4.194  13.943   2.763  0.1172  0.1892 -0.0511
 6182W        W21651   3.430   5.353   0.120 -0.2523 -0.0407 -0.0393
 6183W        W21652   5.504  14.136   3.052 -0.0439 -0.3695  0.1452
 6184W        W21653  12.705   3.465   3.025  0.1202  0.0758 -0.0155
 6185W        W21654  10.315  10.206   1.706  0.1623 -0.0082  0.2576
 6186W        W21655   0.157   2.012  16.475  0.0959 -0.0057  0.0192
 6187W        W21656   1.033   6.438   3.083 -0.0554  0.1017  0.0297
 6188W        W21657   8.797  11.816  11.168 -0.1519 -0.3173 -0.0705
 6189W        W21658  10.722   2.429  15.075  0.1853  0.1327 -0.2476
 6190W        W21659  11.272  17.824   4.491 -0.2591 -0.0537 -0.3666
 6191W        W21660  14.679  17.349  16.323  0.3564  0.1995 -0.1855
 6192W        W21661   2.162   6.253   3.814 -0.1179 -0.1764 -0.0720
 6193W        W21662   2.722  14.810  13.506  0.0161  0.2012 -0.1265
 6194W        W21663   1.325   1.472   1.248 -0.3687  0.2399 -0.0408
 6195W        W21664  11.858  14.721   2.372  0.0179  0.3302  0.1357
 6196W        W21665   0.456  11.587  16.234  0.0537 -0.1259  0.3021
 6197W        W21666  11.506   4.865   1.482  0.0883 -0.1496 -0.0688
 6198W        W21667   9.836   7.317   3.338  0.2067  0.0223 -0.4443
 6199W        W21668  11.665   1.037   0.348  0.1052 -0.1122  0.1177
 6200W        W21669  10.645   6.627  12.249 -0.1688  0.0353  0.1778
 6201W        W21670   7.277  10.889   4.796  0.0498  0.1521 -0.3350
 6202W        W21671  13.436  15.667   5.264 -0.1350 -0.0392  0.2599
 6203W        W21672   1.360  15.982   3.383 -0.1420 -0.3147  0.0011
 6204W        W21673   0.926   9.560   4.298 -0.0961  0.0026 -0.1391
 6205W        W21674  11.530  13.848  14.308  0.0002  0.0082 -0.1612
 6206W        W21675   4.503  11.796   3.220 -0.1800 -0.0601  0.0035
 6207W        W21676   0.234  13.742  16.479  0.1479  0.1140 -0.0606
 6208W        W21677  17.766   6.667   4.551 -0.0097  0.2458  0.0073
 6209W        W21678  14.621   3.590   1.464 -0.1711 -0.0357 -0.0354
 6210W        W21679   1.694   5.439  15.692 -0.0243  0.3951 -0.0591
 6211W        W21680  10.289  15.157   4.597  0.1141 -0.0873  0.1665
 6212W        W21681   1.361   4.991   3.462 -0.0095 -0.2051  0.1743
 6213W        W21682  11.436   3.114  15.582  0.3088  0.0546  0.0241
 6214W        W21683   7.080  17.885   5.525 -0.0433  0.0212 -0.0070
 6215W        W21684   2.677  16.305  14.870 -0.0016  0.3620  0.2786
 6216W        W21685  11.967  17.567  16.588  0.0800 -0.2040  0.1237
 6217W        W21686  17.371   8.056   5.018  0.1909  0.0827 -0.2354
 6218W        W21687  13.806   2.821   0.554  0.1237  0.1717  0.1234
 6219W        W21688  14.672  10.658   4.189 -0.4627 -0.3339  0.0125
 6220W        W21689  12.313   8.895  15.195  0.0148  0.2988  0.0527
 6221W        W21690   2.742   3.630   4.706  0.2521  0.0564 -0.1753
 6222W        W21691   8.350  10.929  11.771  0.0258  0.1118 -0.0008
 6223W        W21692   3.618   3.241   5.036  0.0181 -0.1812 -0.0227
 6224W        W21693  14.599   8.890  15.648 -0.0376  0.0512  0.1756
 6225W        W21694   8.822   9.542  12.417  0.0949  0.2382 -0.0717
 6226W        W21695  16.295  13.275  15.448 -0.0102  0.0857  0.0423
 6227W        W21696   2.293   2.247   5.610  0.1418 -0.3756  0.0669
 6228W        W21697   2.489  13.523   2.863 -0.4349 -0.1924  0.0084
 6229W        W21698  14.963  14.813   2.921 -0.1168  0.4604 -0.2335
 6230W        W21699   1.424   6.983   1.918 -0.0037 -0.0784  0.2159
 6231W        W21700   1.568  10.927   3.008 -0.0516  0.1541 -0.2667
 6232W        W21701  15.586   1.852   4.542  0.1213 -0.0362 -0.3997
 6233W        W21702  16.283  15.614  14.651 -0.0587 -0.0238  0.1030
 6234W        W21703  12.116   9.212   5.399  0.0066 -0.0166  0.0230
 6235W        W21704   9.680   5.937  13.800  0.3269  0.2756 -0.0771
 6236W        W21705   6.519   4.623   0.610 -0.3680 -0.3195  0.2575
 6237W        W21706   5.055   4.198  14.311  0.1187  0.0920 -0.0893
 6238W        W21707   7.005  16.516   1.560 -0.0887  0.0584  0.1214
 6239W        W21708   1.357  14.264   1.855  0.1650 -0.2140  0.2167
 6240W        W21709   1.232   2.093  13.035  0.0998  0.1763 -0.1832
 6241W        W21710  12.789  14.678   3.312 -0.0052 -0.1980  0.1216
 6242W        W21711  14.439  15.381   0.054 -0.1138  0.2127  0.1593
 6243W        W21712  12.193   2.672   1.779  0.1275 -0.0691  0.0792
 6244W        W21713  17.406   6.784   2.431  0.1141  0.1713  0.3056
 6245W        W21714   7.112   9.583   4.668  0.0511  0.4264 -0.1165
 6246W        W21715  13.376   3.916   1.963 -0.0330  0.1745 -0.1292
 6247W        W21716  16.706   6.787   0.651 -0.0098  0.3312  0.0926
 6248W        W21717   7.413  17.644   3.790 -0.0630  0.0763  0.1729
 6249W        W21718   2.452   2.379  12.730 -0.1426 -0.3407 -0.0207
 6250W        W21719  16.161   0.188  12.187 -0.1277 -0.3788  0.3183
 6251W        W21720  16.157  16.992  12.338  0.1118  0.3289 -0.1279
 6252W        W21721  14.446  10.079  11.341 -0.1390  0.0182 -0.3754
 6253W        W21722  10.460  15.694   4.667  0.1327 -0.2518 -0.1606
 6254W        W21723   8.271   5.230  15.972 -0.2565  0.0811  0.0209
 6255W        W21724   0.373   9.848  11.674  0.0903 -0.0267 -0.2332
 6256W        W21725  11.691   4.484  12.734  0.0984 -0.0918  0.0666
 6257W        W21726  16.523   8.290  13.783 -0.0696  0.2776  0.0141
 6258W        W21727  16.215  15.782   6.330  0.2684  0.2490 -0.1374
 6259W        W21728  17.769   3.934   2.652 -0.1347  0.0507  0.1079
 6260W        W21729  11.974   5.438   1.720 -0.0108  0.0960  0.1596
 6261W        W21730   1.013  14.414   0.136 -0.3750  0.1865  0.2425
 6262W        W21731   0.860  15.472  11.487  0.1091 -0.1676  0.1263
 6263W        W21732  10.361   8.132  12.191  0.1315 -0.0561  0.2391
 6264W        W21733   0.513  15.588   5.718  0.1302  0.2774  0.1446
 6265W        W21734   2.774   2.755  15.744 -0.1443  0.3223  0.1530
 6266W        W21735  17.629   7.931  14.450 -0.3785 -0.1806 -0.0460
 6267W        W21736   2.924   9.961  15.027  0.0912 -0.3026  0.0834
 6268W        W21737   7.743  17.601   5.592  0.2533  0.2081  0.0997
 6269W        W21738   1.170   5.664   1.414  0.3745 -0.2065  0.2180
 6270W        W21739   3.757   2.114  16.477  0.0747  0.0243 -0.2175
 6271W        W21740  15.318  10.676   3.742  0.0046 -0.2313  0.0720
 6272W        W21741   7.337  13.228   4.073  0.0358  0.2833 -0.2490
 6273W        W21742   3.017   3.284  15.508  0.1205 -0.1906  0.3441
 6274W        W21743  17.527  17.730  13.689 -0.1179  0.5339  0.1401
 6275W        W21744   3.185  17.618  16.266  0.0063  0.1748  0.0667
 6276W        W21745  17.260  12.372  13.577  0.0507  0.0446  0.2011
 6277W        W21746   2.269   1.838   5.350  0.3373 -0.1153  0.1523
 6278W        W21747  17.719   3.999   4.553  0.0663 -0.0115 -0.2741
 6279W        W21748   1.984  16.244  13.235 -0.1097 -0.1097  0.0535
 6280W        W21749   0.234   9.948   4.723 -0.0778  0.0176 -0.2921
 6281W        W21750   9.904   3.265  11.723 -0.1955  0.2729 -0.0875
 6282W        W21751   8.551   5.433   1.049  0.1223  0.3633 -0.0967
 6283W        W21752  13.249   6.087   4.145 -0.1393  0.2588 -0.2707
 6284W        W21753  12.010  12.266   4.934 -0.0326 -0.0406 -0.2284
 6285W        W21754  12.526   0.201  16.160  0.0330 -0.1159 -0.0681
 6286W        W21755   1.218  14.045   4.710  0.0686 -0.0845 -0.1241
 6287W        W21756  10.671   4.149  11.470  0.1599 -0.1126 -0.2392
 6288W        W21757  16.237   7.627   3.059 -0.2125  0.1359  0.5224
 6289W        W21758  16.944   1.756   2.866 -0.0107  0.4783  0.1144
 6290W        W21759  13.324  11.640   3.588 -0.0561  0.1155  0.0079
 6291W        W21760   4.447   9.900  12.925 -0.0968 -0.2587  0.0242
 6292W        W21761   9.061  10.615  13.891 -0.5499 -0.0199  0.0437
 6293W        W21762   8.527  11.756  13.350  0.0845 -0.4684 -0.1096
 6294W        W21763   2.574  13.591  12.607  0.1122 -0.0194  0.0721
 6295W        W21764  14.792   6.997  11.693 -0.2508 -0.0030  0.0197
 6296W        W21765   2.589  13.602   1.115 -0.3184 -0.1519 -0.0386
 6297W        W21766  16.950   4.138   2.689  0.0842 -0.2096 -0.1362
 6298W        W21767   2.963  14.631   0.113  0.3439 -0.0207 -0.1530
 6299W        W21768   3.332   7.449   5.295  0.0696  0.0420 -0.1071
 6300W        W21769  12.787   5.365   0.286  0.1044  0.2768  0.0619
 6301W        W21770  12.029   6.289  11.358  0.0445  0.0308 -0.0312
 6302W        W21771  12.598  13.082   6.236  0.0853 -0.0213  0.0710
 6303W        W21772   7.818  16.610   5.894  0.1670 -0.2930 -0.1968
 6304W        W21773  16.800   5.061   4.945  0.0859  0.0025  0.0998
 6305W        W21774  12.125   1.136   0.114 -0.0852 -0.1016 -0.1822
 6306W        W21775  12.466   0.764  16.238 -0.0698  0.0741  0.0395
 6307W        W21776   6.530  14.846   1.687 -0.2483  0.2256 -0.0428
 6308W        W21777  14.717  13.398   3.315 -0.0062  0.0995  0.0765
 6309W        W21778   9.742   2.772   3.949  0.2147  0.1247  0.0189
 6310W        W21779   1.010  12.329   1.172  0.4855 -0.2382  0.0664
 6311W        W21780   7.918   5.110  15.572  0.3628  0.0046 -0.0473
 6312W        W21781  11.633   8.377  10.324  0.1765  0.0065 -0.0903
 6313W        W21782   7.483  13.752   5.123 -0.0666 -0.1431 -0.0817
 6314W        W21783  17.458  10.080  11.487  0.0524  0.1461 -0.0259
 6315W        W21784  16.705  13.838  14.896  0.1112  0.1713 -0.2452
 6316W        W21785   9.823  14.485  15.966 -0.1627  0.3537  0.0821
 6317W        W21786   1.541  16.900  13.522  0.1030 -0.4143  0.2329
 6318W        W21787  12.187  14.363  16.007  0.1214  0.0388  0.0746
 6319W        W21788  11.570  10.438  11.184  0.0793 -0.0566 -0.1772
 6320W        W21789   4.363   9.944   5.232  0.2828  0.0973  0.1100
 6321W        W21790   9.179   9.951  12.498 -0.3142 -0.3543  0.4538
 6322W        W21791   5.428  17.260   2.139  0.0074  0.2216 -0.0801
 6323W        W21792   3.223  12.735  16.524 -0.4640  0.0654 -0.0072
 6324W        W21793  14.702   1.820  13.805  0.0351 -0.0869  0.0519
 6325W        W21794   2.834   8.687  11.649  0.4169 -0.0986  0.0975
 6326W        W21795   6.846   3.881  13.745  0.1763  0.1824 -0.0174
 6327W        W21796  15.237   1.114   4.405 -0.1835  0.3524  0.1758
 6328W        W21797   2.432   5.372  12.775 -0.3895 -0.0420 -0.1653
 6329W        W21798  15.607  11.406  13.066  0.0860  0.0841  0.1174
 6330W        W21799   1.911   4.670   1.558  0.0033  0.1228 -0.2256
 6331W        W21800   6.746  12.024  11.871 -0.0329  0.0039  0.0481
 6332W        W21801  12.096   9.982   1.311 -0.0586  0.0606  0.0270
 6333W        W21802   3.866   6.710   4.677  0.1019  0.0264  0.0803
 6334W        W21803  16.711   2.014  12.367  0.0359 -0.1463  0.0220
 6335W        W21804  16.546  15.539   5.454  0.0949  0.0129 -0.1462
 6336W        W21805   3.668  15.283   2.307  0.1543 -0.0904  0.0531
 6337W        W21806   5.077  12.280   4.159  0.1733  0.1541  0.2590
 6338W        W21807   0.093   0.993  15.993  0.0961 -0.0844  0.0131
 6339W        W21808   2.684   9.226   3.290 -0.1662  0.2455 -0.2197
 6340W        W21809  14.607  12.157   3.292  0.0006 -0.3369 -0.0468
 6341W        W21810  14.916   8.041  16.296  0.0126  0.2609  0.1978
 6342W        W21811  17.605  17.860   0.391 -0.1364 -0.0080  0.1288
 6343W        W21812   5.391  17.119  13.042 -0.1070 -0.0403  0.1135
 6344W        W21813  17.310  10.577  15.965 -0.0458  0.0386  0.1518
 6345W        W21814   3.521  17.437   4.099  0.1843  0.1117 -0.0412
 6346W        W21815  11.547  11.602  13.609  0.0932 -0.2204  0.0141
 6347W        W21816  11.801   8.766   3.471  0.1163 -0.1404 -0.1478
 6348W        W21817   5.971  12.551   5.187 -0.0241 -0.0890  0.2201
 6349W        W21818   6.308   4.460   2.017 -0.0125 -0.2156 -0.2076
 6350W        W21819   1.485   6.885  15.509  0.0448 -0.1162 -0.0010
 6351W        W21820  17.450  14.717  12.485  0.1445  0.0051  0.0104
 6352W        W21821  10.511   8.362   4.864 -0.3405  0.0241 -0.1742
 6353W        W21822   2.104   6.598   2.009  0.0698  0.0571  0.2410
 6354W        W21823  15.823  15.479   2.333  0.1469  0.2817  0.0469
 6355W        W21824  16.276   5.030   9.584  0.2112 -0.3440  0.2757
 6356W        W21825   7.989   1.649  15.877 -0.1121 -0.1476 -0.0745
 6357W        W21826   3.663   2.045   1.619 -0.1904  0.0652  0.3086
 6358W        W21827   3.234   9.010  14.046  0.0007 -0.1399  0.0780
 6359W        W21828  13.406   2.197   6.018  0.1039 -0.2762 -0.0241
 6360W        W21829  12.465   5.565  14.448  0.0865  0.1731 -0.2134
 6361W        W21830   9.791  12.896  12.357 -0.0015  0.1933 -0.0102
 6362W        W21831   5.502   2.889  12.334 -0.0548 -0.3710 -0.0310
 6363W        W21832   8.029  11.730  12.294  0.0154 -0.1703  0.2111
 6364W        W21833   8.963  16.119  15.330  0.2034 -0.1148  0.0638
 6365W        W21834  10.756  17.246  11.953  0.0095  0.0992  0.1750
 6366W        W21835  12.718  11.137  14.218 -0.2494  0.1300 -0.0452
 6367W        W21836   0.172   6.661  14.294 -0.0267 -0.2433  0.2651
 6368W        W21837   0.278   5.579   3.952  0.1159  0.0396  0.2542
 6369W        W21838   3.442   2.764  12.512 -0.0862 -0.1108  0.0191
 6370W        W21839   7.707  16.141   4.795  0.0519 -0.3046  0.3373
 6371W        W21840  11.753  17.151  13.889 -0.2126  0.1319  0.0282
 6372W        W21841   0.342   3.549   0.255 -0.0327 -0.2528  0.0304
 6373W        W21842  12.263   9.471  14.869  0.1706 -0.2170  0.1907
 6374W        W21843   3.701   7.199   3.133 -0.1148  0.1205 -0.0950
 6375W        W21844  12.168  14.438  13.945 -0.0990  0.1960 -0.0194
 6376W        W21845  12.676   0.652   4.016 -0.0578 -0.1748 -0.1354
 6377W        W21846   8.200   6.555   4.302 -0.0016 -0.1014 -0.2596
 6378W        W21847   9.621   8.673  13.019 -0.0861 -0.0724 -0.0220
 6379W        W21848   4.530  10.257   0.520 -0.0381 -0.2244 -0.0591
 6380W        W21849   3.676  14.410  12.852 -0.2658  0.0338  0.0656
 6381W        W21850  17.359   1.091   1.094 -0.3501 -0.1069  0.1051
 6382W        W21851  15.802   7.902   1.028 -0.3029  0.0126 -0.0580
 6383W        W21852  12.209  10.182  14.544 -0.0598  0.0857  0.2475
 6384W        W21853   2.326  17.283   1.555 -0.1222  0.3495 -0.0593
 6385W        W21854   3.037   5.420   4.244  0.0387 -0.3241  0.1876
 6386W        W21855   6.835   6.468   1.440 -0.0359 -0.2732  0.1271
 6387W        W21856  12.455   5.745   2.043  0.0830 -0.2597  0.3611
 6388W        W21857  11.328  17.121   5.136  0.1486  0.1720  0.2578
 6389W        W21858   3.428   8.849  13.107  0.1424 -0.0555  0.2777
 6390W        W21859  12.392   5.742   4.258  0.0603 -0.0665  0.0541
 6391W        W21860   5.443   1.225   1.496  0.1571  0.3268 -0.1128
 6392W        W21861   0.623  12.846   2.496  0.2922  0.3444 -0.0926
 6393W        W21862   9.763   4.994   3.768 -0.2661  0.4595  0.0553
 6394W        W21863   9.379   9.615   1.925 -0.0397  0.1587  0.1510
 6395W        W21864   5.916   9.305   1.996  0.1421  0.2086  0.0786
 6396W        W21865   0.410  17.388  11.683 -0.0987 -0.0575 -0.2288
 6397W        W21866   7.280   7.204   5.686 -0.0901  0.0807  0.0911
 6398W        W21867   5.149   8.116  16.232 -0.0100 -0.2117  0.0710
 6399W        W21868  12.580   5.565  15.927 -0.0414  0.1599  0.0685
 6400W        W21869   1.041   5.892   0.059 -0.2921 -0.2045 -0.0243
 6401W        W21870   4.550   0.841  13.150  0.0429 -0.1920 -0.0542
 6402W        W21871  16.193   3.304  15.179  0.1064  0.0620  0.1664
 6403W        W21872  14.202   0.285   3.125 -0.1313 -0.1684  0.0525
 6404W        W21873  14.030  16.510  12.343  0.1202  0.3118 -0.0278
 6405W        W21874   9.380  14.893   5.042 -0.3223  0.0798 -0.4064
 6406W        W21875   1.647   4.371   1.298 -0.2533 -0.2372 -0.0072
 6407W        W21876  12.124  10.326  12.335  0.0008  0.1725  0.3918
 6408W        W21877   0.948  17.545   4.921  0.1581 -0.0171 -0.2290
 6409W        W21878   6.580  16.643   0.284  0.2296 -0.0077 -0.2045
 6410W        W21879   7.611  15.825  11.204 -0.1778 -0.1783  0.2042
 6411W        W21880   3.777   1.503  13.183  0.2989 -0.2740  0.1748
 6412W        W21881   5.997   2.075  12.499  0.4042  0.0057 -0.2810
 6413W        W21882  12.250   0.117  12.038 -0.2029 -0.0620  0.0899
 6414W        W21883   4.042   5.968   0.713  0.0786 -0.1876 -0.0080
 6415W        W21884   1.205   5.464  14.479  0.2545 -0.1261  0.2179
 6416W        W21885   8.024   6.946  14.087 -0.1216 -0.0216  0.0434
 6417W        W21886  13.595   6.867  12.398 -0.0693  0.1793  0.0616
 6418W        W21887   0.483   0.661   3.645  0.1079  0.2156 -0.0637
 6419W        W21888   8.852   2.675  16.231  0.1338 -0.0175 -0.1271
 6420W        W21889   2.560  14.551   3.007  0.0504  0.0678  0.1228
 6421W        W21890  15.266   3.483  12.167 -0.0201 -0.0734 -0.2563
 6422W        W21891   7.380   3.375  14.835  0.0872  0.2248 -0.1821
 6423W        W21892   1.706   2.635  13.494 -0.4613 -0.0915 -0.0630
 6424W        W21893   5.556   2.028   2.381  0.1792 -0.0328  0.0393
 6425W        W21894   1.077  11.221   5.542  0.0973 -0.1090  0.1656
 6426W        W21895  13.675  12.678  15.613 -0.0158  0.0025 -0.0927
 6427W        W21896  15.345   8.756  12.079 -0.0296  0.1402 -0.0089
 6428W        W21897   5.389   8.621   4.993  0.4101 -0.0217 -0.2402
 6429W        W21898   2.151   8.888  15.422 -0.0592 -0.1577 -0.2113
 6430W        W21899   9.259  16.563   6.018  0.1127 -0.3094  0.0448
 6431W        W21900   3.147   2.983   4.223 -0.0832  0.2266  0.3034
 6432W        W21901  11.779   6.822  13.174  0.2167 -0.2084  0.0849
 6433W        W21902   4.945  16.785   1.704 -0.0067  0.1211 -0.1894
 6434W        W21903  10.242  15.385   2.121  0.3035  0.0598 -0.1222
 6435W        W21904   0.458   4.769  12.174  0.1767 -0.0325  0.0068
 6436W        W21905   9.444   4.530   1.645  0.2482  0.0258 -0.1584
 6437W        W21906  16.367  11.150  10.956  0.1255  0.0449  0.3693
 6438W        W21907  11.639   6.441  12.297 -0.0871  0.0167  0.0557
 6439W        W21908   4.036  12.097   0.169 -0.2415  0.0068 -0.2751
 6440W        W21909   4.851  13.381   2.619 -0.1900  0.3821  0.0257
 6441W        W21910   4.335  14.097   0.978 -0.2795  0.1079 -0.0108
 6442W        W21911  12.082   2.617  15.655 -0.2264  0.1560 -0.1311
 6443W        W21912  14.404  17.296   4.491  0.1365  0.0627 -0.1894
 6444W        W21913  15.762  13.736  15.892 -0.1403  0.1552 -0.1102
 6445W        W21914   3.736   1.864  12.309  0.1388  0.0656 -0.4725
 6446W        W21915   2.277  11.722  16.447  0.1465  0.2896 -0.1256
 6447W        W21916   6.828  12.874  14.658  0.3503 -0.1454  0.4235
 6448W        W21917   0.033   8.550  12.920 -0.0047  0.2387  0.0691
 6449W        W21918   2.877  11.482  14.788  0.1000 -0.0680  0.2049
 6450W        W21919   0.106  12.066   2.642 -0.0547  0.0770 -0.1661
 6451W        W21920  15.746   9.463   2.302 -0.2096  0.0116 -0.1730
 6452W        W21921  15.087   0.042  11.707 -0.0284  0.2964  0.0462
 6453W        W21922   3.002   3.134   1.869 -0.1592  0.4627  0.0079
 6454W        W21923   8.604   5.613  12.510  0.1266  0.2089  0.3073
 6455W        W21924  10.126   0.909   2.877  0.1579 -0.4948 -0.1653
 6456W        W21925  14.389   0.726   3.925  0.1658  0.1535 -0.1723
 6457W        W21926  14.736  14.609   1.316 -0.1009 -0.0410  0.2653
 6458W        W21927   4.324   9.513   4.608  0.1794 -0.1434  0.0040
 6459W        W21928   1.454   9.288   4.957  0.1313 -0.1229  0.1632
 6460W        W21929   3.738  13.780  13.910  0.0253  0.4565  0.0895
 6461W        W21930  11.178   6.386   4.355 -0.0868  0.0225  0.2077
 6462W        W21931   3.865   9.189   1.217 -0.0652 -0.2195 -0.1733
 6463W        W21932   6.430  10.766   4.650 -0.1289  0.0807  0.0749
 6464W        W21933  17.535   6.410  15.802  0.2594  0.0296  0.1132
 6465W        W21934  10.059   6.263  13.868 -0.2163  0.2010 -0.2106
 6466W        W21935  15.763   6.831  13.342  0.1479 -0.0640 -0.0494
 6467W        W21936   6.775   4.619   1.886  0.0223 -0.0935  0.1460
 6468W        W21937  15.146   5.529   2.351  0.0742  0.0743  0.0335
 6469W        W21938   8.879  16.758   0.672  0.1025 -0.0749 -0.7437
 6470W        W21939   5.975  17.711   5.394  0.1657  0.1530 -0.2027
 6471W        W21940   8.485  13.048  12.035  0.0353  0.3209 -0.0065
 6472W        W21941  17.920   5.760   2.077  0.0230 -0.0621 -0.0496
 6473W        W21942   5.700  16.866  14.662 -0.1174 -0.0320 -0.1135
 6474W        W21943  13.818   3.211   4.129  0.0658 -0.1083  0.1942
 6475W        W21944   3.785   5.717   0.380  0.1060 -0.1602  0.1662
 6476W        W21945  11.885   3.260  13.936 -0.1541  0.0878  0.0204
 6477W        W21946  14.217   2.465  11.732  0.0192 -0.2192 -0.1518
 6478W        W21947  10.499   1.510  12.677 -0.0501  0.0355  0.1903
 6479W        W21948   7.630   8.707   5.231  0.2216  0.2197  0.2697
 6480W        W21949   4.388   0.929  15.918  0.1324  0.0271  0.0566
 6481W        W21950  16.284  12.763  13.677 -0.1067  0.0217 -0.1518
 6482W        W21951   0.853   1.585  12.280  0.0707 -0.2778  0.2165
 6483W        W21952  16.529   7.874   3.834 -0.5841  0.4482 -0.1077
 6484W        W21953   1.776   1.415  12.287  0.1504 -0.0187 -0.0159
 6485W        W21954  16.129   0.158   6.292 -0.0480  0.0880 -0.2036
 6486W        W21955  16.280  11.747   5.964  0.1533  0.0747 -0.3163
 6487W        W21956   6.319  16.226  12.181 -0.1762  0.3124 -0.2184
 6488W        W21957   7.418   3.848   1.549 -0.0255 -0.2168  0.0119
 6489W        W21958   3.794   6.815  10.718 -0.0422 -0.0222  0.1699
 6490W        W21959   5.110  17.914  16.210  0.1214  0.2561 -0.1802
 6491W        W21960   0.935  14.583   1.217  0.2210 -0.1257  0.1292
 6492W        W21961   1.154   0.028   3.316 -0.4187  0.0998 -0.1850
 6493W        W21962   8.068  10.262   0.130  0.4206  0.0636  0.0751
 6494W        W21963  16.429   3.106  14.770  0.2520  0.0961 -0.1059
 6495W        W21964  13.679   3.422   4.952 -0.0224 -0.0037 -0.1165
 6496W        W21965   7.932  14.680  15.298 -0.3309  0.0658 -0.0562
 6497W        W21966   3.406  14.221  15.537 -0.3015 -0.0782  0.2061
 6498W        W21967  16.430  11.953  11.659 -0.0146  0.3143 -0.1895
 6499W        W21968   7.846   6.243  14.472  0.1502  0.0936 -0.2658
 6500W        W21969  10.635   3.834   3.604 -0.0953 -0.0476  0.0339
 6501W        W21970   7.741   9.671  14.507 -0.0025 -0.0773  0.0839
 6502W        W21971   9.215   7.747   0.502 -0.0177  0.2849  0.2536
 6503W        W21972   7.446   6.625   1.046 -0.0674  0.2040 -0.0955
 6504W        W21973   6.976   0.085  11.598  0.3232 -0.0638 -0.2215
 6505W        W21974   7.318   9.271  12.127 -0.2815  0.2102  0.1528
 6506W        W21975   7.542   9.904  11.095 -0.3593  0.2099 -0.4311
 6507W        W21976  11.276  17.047  15.482  0.4395  0.1677  0.0317
 6508W        W21977  11.594  15.695  11.775 -0.2583 -0.2349  0.0195
 6509W        W21978  10.607   9.464  11.430  0.1690 -0.0655  0.1331
 6510W        W21979  14.003   0.023  13.251  0.0102  0.1044  0.0838
 6511W        W21980   8.374   1.223   5.256 -0.2774  0.0580  0.3577
 6512W        W21981  10.532   7.138   5.248  0.1949  0.0987  0.1123
 6513W        W21982  13.739   3.610   2.273  0.1771  0.0690 -0.0175
 6514W        W21983  12.699   2.040   2.365 -0.1414  0.1775 -0.1067
 6515W        W21984   6.484   7.401  14.310 -0.0590  0.1262  0.0669
 6516W        W21985  13.729  15.731   1.818 -0.2244 -0.2249  0.2076
 6517W        W21986   0.590  16.474  15.796 -0.0980  0.2421 -0.0425
 6518W        W21987   4.536   7.349   3.420 -0.0346 -0.1001 -0.1362
 6519W        W21988   9.716  15.309  10.554  0.0848 -0.0091  0.0874
 6520W        W21989  16.006   1.336  11.635 -0.3274  0.3062 -0.1438
 6521W        W21990   5.823   6.360   2.501 -0.2681 -0.1976 -0.1141
 6522W        W21991  13.079  15.404  14.912  0.0595  0.0454 -0.2585
 6523W        W21992   8.977   5.332   0.744  0.0031 -0.2609 -0.1230
 6524W        W21993  12.603   3.334  11.539 -0.1312 -0.1368 -0.1747
 6525W        W21994  11.400   1.542   1.959  0.2606 -0.2879  0.3881
 6526W        W21995  15.774  11.310  14.741  0.2607 -0.1642 -0.1227
 6527W        W21996   7.360  16.640   0.198  0.1483 -0.1593  0.1288
 6528W        W21997   8.721  10.603  15.928  0.5155 -0.0852 -0.0164
 6529W        W21998   6.116  14.127   2.989  0.1478 -0.2108 -0.4054
 6530W        W21999   0.503  16.121   5.447  0.0429 -0.2297  0.4475
 6531W        W22000   6.954  17.522   0.964  0.4304 -0.1238 -0.1310
 6532W        W22001  17.967  16.151  13.079 -0.3772 -0.0869  0.0374
 6533W        W22002  10.356   9.412   0.371 -0.0731  0.1286 -0.3784
 6534W        W22003   2.798   4.387  14.436 -0.1647 -0.1729 -0.2309
 6535W        W22004   5.981  15.316  15.085 -0.0213  0.0426  0.1475
 6536W        W22005  15.910   2.280  12.588 -0.0361 -0.5339  0.3533
 6537W        W22006   4.572   7.875   0.004 -0.0114  0.1506  0.1762
 6538W        W22007  13.452   0.918  12.483 -0.0745  0.0772  0.1350
 6539W        W22008  11.668  12.086  14.615 -0.1489  0.3225 -0.1048
 6540W        W22009   0.838   1.285   1.006  0.3137 -0.0165 -0.2736
 6541W        W22010   7.189   8.483  12.034 -0.1976 -0.2223  0.0376
 6542W        W22011  17.034  11.318  12.642  0.2142 -0.2319  0.1131
 6543W        W22012  12.493   3.242   5.387  0.0648  0.0927  0.2774
 6544W        W22013   0.656   9.913   0.555 -0.2232 -0.0097 -0.1446
 6545W        W22014  12.754  11.582   1.097 -0.2951  0.2180 -0.2641
 6546W        W22015   6.350   4.009  13.531  0.1471  0.0953 -0.0704
 6547W        W22016  15.515  12.566   0.616 -0.0874  0.4622  0.4634
 6548W        W22017   6.904   8.240  15.017  0.1156  0.3810  0.0600
 6549W        W22018  10.366  12.134  15.776 -0.1647  0.0968 -0.0211
 6550W        W22019  10.577  10.219   2.196  0.1821  0.0168 -0.1307
 6551W        W22020   0.392  15.193  13.286  0.4727  0.0611  0.2964
 6552W        W22021   1.389  10.890  12.547  0.2787  0.1646 -0.0068
 6553W        W22022  13.497   1.159  14.244 -0.1264  0.1749  0.0500
 6554W        W22023  11.581  13.604   2.410 -0.0823  0.0161 -0.2931
 6555W        W22024   7.512  17.036  12.616  0.3481  0.0160  0.0328
 6556W        W22025   7.430  16.864   2.296 -0.1089  0.0859  0.1399
 6557W        W22026  17.199  11.975  15.068  0.0296  0.1799  0.2008
 6558W        W22027   1.079   9.301  11.335 -0.1357  0.3901 -0.1690
 6559W        W22028  10.044  16.757   3.572 -0.0295 -0.2038 -0.3681
 6560W        W22029   8.810   7.501   4.899 -0.1702 -0.1201  0.1100
 6561W        W22030  12.283  17.931   1.745  0.0118  0.0165  0.4318
 6562W        W22031   3.990   4.479  15.440 -0.0210  0.3053 -0.1969
 6563W        W22032   6.620   1.599  14.440 -0.1306 -0.0301  0.1662
 6564W        W22033   7.241   7.620   0.318 -0.0417 -0.1140  0.2470
 6565W        W22034   2.926   7.345  11.550 -0.2008  0.0423  0.0075
 6566W        W22035   1.639  14.103   2.801  0.1355 -0.2536 -0.2009
 6567W        W22036   0.879   2.137  13.934 -0.1464 -0.1352  0.3054
 6568W        W22037  11.210   9.701   5.691  0.1237  0.0366  0.2295
 6569W        W22038  12.225   6.712  11.467  0.0968  0.2014 -0.3422
 6570W        W22039   7.663   8.770   6.037  0.0781 -0.0363 -0.1927
 6571W        W22040   0.586  15.856   2.981 -0.0391  0.1167  0.0763
 6572W        W22041  13.633   4.723  11.843 -0.1568 -0.3370 -0.1224
 6573W        W22042   4.805   7.511  11.935 -0.2262  0.1699  0.0406
 6574W        W22043   6.522   3.017  15.836 -0.0635 -0.0329 -0.2025
 6575W        W22044  10.436  14.348   2.724 -0.3127 -0.0050 -0.1392
 6576W        W22045  12.850   1.906  12.526  0.3780  0.1536 -0.0904
 6577W        W22046   9.155   2.055   0.465  0.3279  0.0566 -0.1546
 6578W        W22047   3.577  12.652   4.858  0.3415  0.2149  0.2634
 6579W        W22048  10.822  17.611  13.766 -0.0552 -0.0562 -0.0073
 6580W        W22049   7.226   7.268  16.553 -0.1514 -0.0869 -0.1872
 6581W        W22050   2.397   5.820  14.623 -0.0127 -0.2103  0.1575
 6582W        W22051   1.661   0.180   4.888  0.1286  0.0895 -0.0561
 6583W        W22052   7.463  16.496  14.596  0.2937 -0.3779 -0.2957
 6584W        W22053   4.757  17.894  11.884  0.3113  0.0515  0.1203
 6585W        W22054  15.477  14.830  12.736 -0.2477  0.0301 -0.1215
 6586W        W22055   5.832   4.343   3.336 -0.0616  0.0284  0.1940
 6587W        W22056  16.518   7.229   5.981  0.1646  0.1012 -0.2379
 6588W        W22057  13.270   3.310  14.553  0.1274  0.0097  0.0811
 6589W        W22058   1.903  16.899   4.304 -0.3928  0.0207 -0.1992
 6590W        W22059   3.677  17.776  14.316  0.0053  0.0433  0.1669
 6591W        W22060   2.477  17.407   5.004 -0.1297  0.0156  0.1416
 6592W        W22061   2.625   1.533  14.092  0.0234  0.6061 -0.0353
 6593W        W22062  12.106  16.792  11.865  0.0654 -0.1756 -0.1344
 6594W        W22063  10.742  17.951   5.625 -0.1804  0.1715  0.0953
 6595W        W22064   8.870  15.559  13.547 -0.1546 -0.3692 -0.0152
 6596W        W22065   0.406   3.257  11.676 -0.1682  0.4178 -0.4180
 6597W        W22066   6.315   7.695   0.528  0.0593  0.0445 -0.1511
 6598W        W22067   5.504   3.474  13.845 -0.2917  0.3754 -0.0899
 6599W        W22068  13.572   4.826   0.067 -0.0231 -0.1255 -0.0387
 6600W        W22069   0.443   5.421  15.797  0.3381 -0.2261  0.1333
 6601W        W22070   3.539  10.106   2.785 -0.3014  0.1917 -0.0221
 6602W        W22071   1.985   5.479  14.339  0.1429  0.0861  0.2865
 6603W        W22072   2.390   5.012  13.627  0.2993  0.2156  0.3595
 6604W        W22073  17.541  12.917   0.114  0.2301  0.1500  0.0898
 6605W        W22074   4.628  10.091   0.953 -0.1868  0.1466  0.0323
 6606W        W22075   8.449  10.305   0.439  0.0480 -0.0160 -0.0097
 6607W        W22076  12.063   4.041   1.846 -0.1970 -0.4907 -0.0944
 6608W        W22077   1.663   2.150   0.213 -0.0502 -0.0202  0.4940
 6609W        W22078  14.828  16.080   3.004 -0.1567 -0.0998  0.0516
 6610W        W22079  17.263  14.966   3.363 -0.2840 -0.2054  0.2161
 6611W        W22080   7.265   3.687   3.599 -0.0727  0.1551  0.0171
 6612W        W22081   6.489  15.424   2.468  0.0851  0.2977  0.1890
 6613W        W22082   3.299   2.627   1.604  0.1484  0.1891  0.0630
 6614W        W22083  10.899   8.818   2.602 -0.0215 -0.0442  0.3028
 6615W        W22084  16.453   1.680  11.275 -0.1234 -0.2297  0.3463
 6616W        W22085  15.876   3.184   2.569 -0.1893 -0.0775 -0.0852
 6617W        W22086   4.650  17.540   1.522  0.0799  0.0925 -0.1067
 6618W        W22087   9.327   9.239  13.351 -0.0554  0.0995 -0.1369
 6619W        W22088  16.176   1.866   5.156  0.2201 -0.1510  0.0955
 6620W        W22089   6.890  14.144   2.387 -0.0443  0.0336  0.0288
 6621W        W22090  14.634  13.066  16.539  0.4208 -0.0829 -0.4865
 6622W        W22091   4.029  14.543  14.659 -0.1310 -0.0431 -0.0293
 6623W        W22092   1.168   0.867  11.919 -0.1243 -0.1732  0.1065
 6624W        W22093   7.234  10.103  15.058  0.0034  0.2542 -0.1945
 6625W        W22094   2.777   0.083   4.810  0.0531  0.1256  0.1973
 6626W        W22095   8.284  17.447  12.592 -0.3191 -0.1777 -0.1178
 6627W        W22096   3.623  14.036   4.819  0.1305  0.0386  0.1313
 6628W        W22097   0.987   9.918  13.444 -0.1885  0.1134 -0.0839
 6629W        W22098   7.467   5.709   2.001  0.2919  0.0461 -0.2577
 6630W        W22099  16.585  12.497  11.742 -0.5242  0.1292  0.0655
 6631W        W22100   0.552   4.252   0.772  0.1571  0.0942  0.1569
 6632W        W22101   9.404   1.615  15.567  0.3722  0.0831 -0.2536
 6633W        W22102  14.568   9.313  12.270 -0.0158  0.2728 -0.0538
 6634W        W22103   1.853  14.137   1.033  0.3552  0.1107  0.1557
 6635W        W22104  11.615  11.505  15.194 -0.3205 -0.2688 -0.0706
 6636W        W22105   6.250  11.245  15.765 -0.0123  0.1734 -0.3517
 6637W        W22106  11.210   1.889   0.492 -0.0126 -0.1622 -0.1821
 6638W        W22107  15.630  12.247  11.820 -0.1633 -0.2687 -0.4127
 6639W        W22108  10.566  13.613   6.259 -0.2356  0.0962  0.0299
 6640W        W22109  12.260   4.777   0.962 -0.2035 -0.0254 -0.0843
 6641W        W22110   6.513   0.080   1.734  0.1336 -0.1892 -0.0302
 6642W        W22111   2.483  10.814   1.838 -0.1424 -0.3015  0.0164
 6643W        W22112   5.088  15.581  13.228 -0.1850  0.2775  0.1015
 6644W        W22113   4.404  16.439   0.047 -0.0252 -0.0142  0.0906
 6645W        W22114   7.821   3.842  15.485  0.1428  0.0516 -0.0402
 6646W        W22115  11.502   6.529  11.324  0.1997  0.1739  0.2157
 6647W        W22116   8.756   2.112  13.387 -0.0576  0.4403  0.5140
 6648W        W22117   1.652  10.049   4.554  0.1767 -0.1514 -0.0461
 6649W        W22118  13.252  13.496  13.396  0.1112  0.0785 -0.1846
 6650W        W22119  12.373  13.672  11.308  0.2159 -0.0034 -0.0992
 6651W        W22120   6.567   3.129   3.258 -0.1436  0.0647 -0.0742
 6652W        W22121   6.832  13.887  15.879  0.1869  0.0899  0.0772
 6653W        W22122  12.964   4.170  12.606  0.1589  0.2133  0.1184
 6654W        W22123   0.038  15.678  13.177  0.3322 -0.0334 -0.0054
 6655W        W22124   8.140   5.984   2.767 -0.0682 -0.0367 -0.1552
 6656W        W22125  10.225   5.109  11.489 -0.1634  0.0259 -0.3698
 6657W        W22126   8.241  16.629  15.916 -0.2495  0.0926  0.1607
 6658W        W22127  15.409   2.030  15.108  0.3411  0.1472 -0.1047
 6659W        W22128   2.136  13.161  15.353  0.0310 -0.3428 -0.0914
 6660W        W22129  13.444  15.724   2.946 -0.1079  0.2059 -0.1384
 6661W        W22130  15.449  12.269  13.778 -0.3248 -0.1230 -0.0005
 6662W        W22131   6.162   2.035  16.093 -0.0730 -0.0563  0.4470
 6663W        W22132  14.038  15.305  11.515 -0.1312 -0.3279 -0.1148
 6664W        W22133  12.766  17.579  15.336  0.0458  0.3626  0.2591
 6665W        W22134  11.610   3.677  13.972 -0.2239  0.1159 -0.0102
 6666W        W22135  16.699  14.592   5.662  0.1243 -0.1839  0.1378
 6667W        W22136   0.110   2.035  14.377 -0.1209 -0.1384 -0.2251
 6668W        W22137  14.133  15.871   1.451 -0.0326  0.1759 -0.0271
 6669W        W22138  10.250   5.597  16.521 -0.2918 -0.1441  0.0078
 6670W        W22139  17.273   1.147   2.487  0.0699  0.2059 -0.0156
 6671W        W22140   0.089  13.240   3.097 -0.0470  0.3748  0.0786
 6672W        W22141   8.077   2.533   1.800  0.2006 -0.0766  0.1475
 6673W        W22142  12.233  17.553  14.654  0.2706  0.2270 -0.0607
 6674W        W22143  10.664   8.219   0.738  0.2979  0.2783 -0.0814
 6675W        W22144  10.514   6.392   5.317  0.0739  0.0236  0.0721
 6676W        W22145   9.179  15.431   2.686  0.3575 -0.0975 -0.2119
 6677W        W22146   0.523   9.631  14.083 -0.0202  0.0348  0.1197
 6678W        W22147   0.395  13.742  13.818  0.0099  0.2222  0.0915
 6679W        W22148   0.543  10.191  10.919  0.0193 -0.2925 -0.1304
 6680W        W22149  15.534  17.911   4.987  0.0234 -0.0208 -0.1424
 6681W        W22150  14.086  11.422   4.311  0.3743 -0.1509  0.0727
 6682W        W22151  14.486  17.402   5.738  0.1034  0.0155 -0.1679
 6683W        W22152  13.383   4.937   2.772 -0.1309  0.0083  0.2902
 6684W        W22153   5.759   0.185   2.311 -0.1466 -0.1297 -0.0424
 6685W        W22154  13.760   6.286  16.522 -0.1357  0.1470  0.0710
 6686W        W22155  11.254  13.637   1.646  0.0006  0.0224  0.4259
 6687W        W22156   9.017   4.956  14.542 -0.0138 -0.1886  0.1163
 6688W        W22157  13.747  11.202  12.031  0.1086 -0.1049 -0.1526
 6689W        W22158  13.551  11.316   1.662 -0.3474 -0.0870 -0.3190
 6690W        W22159   1.686   1.030  14.266  0.0084  0.2234  0.0149
 6691W        W22160   0.473   7.085  12.659  0.2265 -0.1362  0.0726
 6692W        W22161  13.980  14.423  14.534  0.1460  0.1613  0.2994
 6693W        W22162   8.663  14.603   4.548 -0.1909 -0.1587  0.1587
 6694W        W22163  13.074  13.900  13.734  0.1067  0.0505 -0.0540
 6695W        W22164  10.255   6.076  14.305 -0.0724  0.2859 -0.1071
 6696W        W22165   0.635   9.339   5.265 -0.0523  0.2432  0.0136
 6697W        W22166   9.278   0.826  13.990  0.3491  0.2608 -0.2101
 6698W        W22167  10.390   3.811   3.034  0.0153 -0.1931  0.1859
 6699W        W22168  12.310   3.543   2.172  0.0864 -0.1853  0.1138
 6700W        W22169   3.239   4.921   0.007 -0.0954 -0.3306  0.0992
 6701W        W22170   2.386   4.596   2.325 -0.1227 -0.2087  0.3007
 6702W        W22171  10.516   6.719   4.976 -0.0070  0.0076  0.0131
 6703W        W22172   1.266   5.405  15.245  0.3218 -0.2241 -0.1549
 6704W        W22173   1.696   2.212   2.773  0.3597 -0.3086 -0.1216
 6705W        W22174   2.182  15.112  12.406  0.0031 -0.0669  0.2529
 6706W        W22175   7.149  11.804   1.086  0.0558 -0.1177 -0.2367
 6707W        W22176  15.704   9.140   0.355 -0.0534  0.3236  0.0207
 6708W        W22177   8.585   8.295  15.444 -0.1301  0.1514 -0.1449
 6709W        W22178  15.833  10.427   3.676 -0.0812 -0.1764  0.1074
 6710W        W22179  16.268  11.545  11.309  0.0010 -0.0049 -0.2196
 6711W        W22180  14.828  15.608  11.895 -0.4096  0.4030 -0.2005
 6712W        W22181   0.122  17.334   2.764  0.1714  0.0821 -0.0460
 6713W        W22182  14.876  13.451   3.885  0.3476  0.2023  0.1622
 6714W        W22183   9.461   2.597  16.360  0.0273  0.3404  0.1632
 6715W        W22184   1.237   8.020  13.861  0.2368  0.2103  0.4488
 6716W        W22185   1.766   9.669  11.050  0.2136 -0.0053 -0.0116
 6717W        W22186  10.602  17.484   4.675 -0.2219  0.2140 -0.4239
 6718W        W22187   4.598   2.940  11.710 -0.6260  0.1157  0.2369
 6719W        W22188  14.646  15.582   6.103  0.1121  0.0075  0.0858
 6720W        W22189  11.859   6.961  14.668 -0.0399 -0.0725  0.1294
 6721W        W22190  10.941   2.852   1.695 -0.4136  0.1083 -0.2641
 6722W        W22191   1.053  14.727  15.117 -0.2808  0.1676  0.1147
 6723W        W22192  10.288   1.105   1.501 -0.3804 -0.0857 -0.0427
 6724W        W22193  13.180  13.467   3.828 -0.0813 -0.2013 -0.2045
 6725W        W22194   8.523   0.833  16.589  0.2976  0.1805  0.2816
 6726W        W22195  17.666  10.417   2.030  0.0651  0.2662 -0.1093
 6727W        W22196  17.466  10.476   1.579  0.0016 -0.2536  0.0373
 6728W        W22197   4.078   0.497   5.075  0.2917 -0.0739 -0.0880
 6729W        W22198   6.813   7.028   5.294 -0.3434 -0.1047  0.0184
 6730W        W22199  14.025  14.609   4.018  0.0008  0.3306  0.1779
 6731W        W22200  15.535   9.222  11.389 -0.0292 -0.0460 -0.1042
 6732W        W22201  12.939   8.266   4.370 -0.1287 -0.1156  0.0904
 6733W        W22202   9.262   8.776  14.514  0.0382  0.0571 -0.0770
 6734W        W22203   9.882  15.241  15.567 -0.0325  0.1240 -0.0902
 6735W        W22204   8.084  12.821  14.780  0.0336 -0.1010 -0.1423
 6736W        W22205  15.595  11.046   0.471  0.0251 -0.0043 -0.1876
 6737W        W22206  10.600   7.985   2.203 -0.2574  0.0870 -0.1425
 6738W        W22207   7.961   6.738   2.264  0.1608  0.2142 -0.0002
 6739W        W22208   6.391   2.566  14.490 -0.0834 -0.3481 -0.1775
 6740W        W22209  12.945   1.298  13.137  0.2428 -0.0670  0.0555
 6741W        W22210   5.765   4.344   4.730  0.1930 -0.1201  0.0208
 6742W        W22211  15.535  16.531  14.535  0.1614 -0.4064  0.0366
 6743W        W22212   1.747  15.098   1.405 -0.3119  0.1446 -0.0561
 6744W        W22213   0.585  11.952  16.538  0.2046 -0.0193  0.2115
 6745W        W22214  17.794   7.654   0.390 -0.1571 -0.0653 -0.0205
 6746W        W22215  10.177  11.917   0.162  0.0341 -0.1287  0.3100
 6747W        W22216  17.498   8.288  14.842 -0.1035  0.1612 -0.2194
 6748W        W22217   9.238   2.440  14.130 -0.0520  0.1268 -0.0889
 6749W        W22218   0.069  11.898   5.565 -0.0205 -0.1258  0.2248
 6750W        W22219   4.316   3.256  14.119  0.1153  0.3394 -0.0891
 6751W        W22220   6.046   0.679  13.024  0.1321  0.0388  0.0724
 6752W        W22221   0.951   2.757  14.572  0.0896 -0.4461 -0.5245
 6753W        W22222  15.702   0.614  13.567 -0.2470 -0.2073  0.0952
 6754W        W22223  15.714   3.761   1.972 -0.1527 -0.1672 -0.2799
 6755W        W22224  10.158   4.937   4.711 -0.1003  0.0051 -0.0025
 6756W        W22225   5.651   0.275   0.349  0.0113 -0.2753 -0.1336
 6757W        W22226  17.865  16.131   3.510  0.2373  0.0300 -0.1123
 6758W        W22227   2.199  16.872  11.738  0.0483  0.0129 -0.0465
 6759W        W22228  15.782   1.400  12.585 -0.0979 -0.4198  0.0117
 6760W        W22229   7.966   9.096  13.846  0.1102  0.0956 -0.0348
 6761W        W22230  16.238   4.781   4.366  0.2171  0.0768  0.2988
 6762W        W22231   0.999   2.323  11.041 -0.0518  0.1058  0.2085
 6763W        W22232   6.243  12.952  11.716 -0.2080  0.0572  0.1577
 6764W        W22233   0.751  15.101   3.010  0.3578 -0.1028 -0.0690
 6765W        W22234  10.093  12.521   5.025 -0.3068  0.0213  0.1908
 6766W        W22235  17.781   6.912  13.344 -0.1149 -0.1824  0.0945
 6767W        W22236  14.748  17.843  16.329  0.2564 -0.0160  0.1421
 6768W        W22237  16.909   0.160  12.986  0.1438 -0.2724  0.1324
 6769W        W22238  11.270  12.838  15.135 -0.0161  0.1352  0.4191
 6770W        W22239   6.697   5.854  15.370 -0.0770  0.2009  0.0160
 6771W        W22240  15.377  16.301   4.191 -0.1295 -0.1282 -0.0225
 6772W        W22241  12.126   3.129   0.483  0.2561 -0.0065 -0.3076
 6773W        W22242   8.529   8.439  11.130 -0.0242  0.0003  0.3170
 6774W        W22243   0.318   1.233  14.395  0.0959 -0.1601  0.1888
 6775W        W22244  14.151   0.419   5.956  0.1480  0.2727  0.0481
 6776W        W22245  10.818   0.171  13.715  0.0964  0.1206 -0.1630
 6777W        W22246   8.198  13.365   5.552 -0.1000  0.0270  0.0555
 6778W        W22247   7.990  13.188   5.133 -0.1177 -0.2478 -0.0280
 6779W        W22248  13.647  10.531   0.012  0.1472 -0.0326  0.1078
 6780W        W22249  16.540  10.919  13.841  0.2317  0.1270  0.0575
 6781W        W22250   5.048   9.504  15.951 -0.1641  0.0919 -0.0484
 6782W        W22251   7.350  12.205  16.300 -0.2357 -0.0955 -0.0029
 6783W        W22252   0.003  10.245   1.289  0.0762  0.2120 -0.1896
 6784W        W22253   3.430   9.655   5.120 -0.2213  0.2605 -0.5509
 6785W        W22254  14.766   0.383  12.622 -0.1782  0.2536 -0.3162
 6786W        W22255   3.160   1.375   2.740  0.2314 -0.1401 -0.2270
 6787W        W22256  14.323  11.742  15.280  0.0890 -0.0179 -0.0549
 6788W        W22257   2.856   4.016  14.908  0.2520 -0.0598  0.4479
 6789W        W22258  12.832   3.168   2.077  0.1934 -0.0176  0.0865
 6790W        W22259   4.187  13.263  13.427  0.2438 -0.0799 -0.0213
 6791W        W22260   2.800  17.305  11.800 -0.5650 -0.3015  0.1971
 6792W        W22261  14.890  17.528  10.913  0.2061 -0.1004 -0.0509
 6793W        W22262  15.074  14.040  14.504 -0.1314 -0.0051 -0.1912
 6794W        W22263   5.089  11.089   3.457  0.0295  0.1538 -0.1945
 6795W        W22264   5.593  15.484  14.908  0.3108 -0.3153  0.2253
 6796W        W22265  17.653  15.700  12.769 -0.2157  0.1381 -0.1534
 6797W        W22266  17.033  11.699  15.504  0.0117 -0.0190 -0.0699
 6798W        W22267  13.462  15.203   1.681  0.1639 -0.1523  0.0883
 6799W        W22268  12.117   4.825   4.706  0.3006  0.1154 -0.3292
 6800W        W22269   0.445  15.545  15.582  0.3013  0.1577 -0.1016
 6801W        W22270   7.072   4.504  11.542  0.0812 -0.2126  0.0161
 6802W        W22271  14.034  13.737   4.126 -0.0491  0.2567 -0.2348
 6803W        W22272   5.296  16.052  15.708 -0.0073 -0.1772 -0.0478
 6804W        W22273   6.286   7.661  14.667 -0.1650  0.1291  0.1793
 6805W        W22274   0.075  11.592  15.983  0.1078  0.0944  0.2067
 6806W        W22275  10.988   7.440   5.214 -0.0727  0.0345  0.0736
 6807W        W22276   4.035  15.710   3.107 -0.1331  0.2539 -0.0368
 6808W        W22277   5.440   5.934  13.361 -0.1062 -0.2271 -0.0841
 6809W        W22278   2.973  10.823   3.206 -0.0055 -0.2134  0.2082
 6810W        W22279  12.115   9.514   6.051  0.2067  0.5403  0.0601
 6811W        W22280   5.904   0.126   0.907 -0.0615  0.1538  0.1541
 6812W        W22281   8.291   4.977   2.652  0.1665 -0.1361  0.1316
 6813W        W22282   9.514   0.456  15.667 -0.1416 -0.0151 -0.1309
 6814W        W22283  11.409  14.507   4.104 -0.0538  0.0225  0.3042
 6815W        W22284   7.801   0.856  12.987 -0.1052  0.0703 -0.2292
 6816W        W22285   6.029   1.723  15.729 -0.2972 -0.0907 -0.0200
 6817W        W22286  12.515  17.182   2.330  0.0280  0.0881 -0.3476
 6818W        W22287  13.242  10.961   0.577  0.1738 -0.1075 -0.1613
 6819W        W22288   8.030  15.900   5.125 -0.2472 -0.0667  0.1920
 6820W        W22289   6.919   3.441  13.899 -0.3021 -0.0030 -0.2997
 6821W        W22290  17.819   1.034  15.540 -0.0887  0.0529 -0.3403
 6822W        W22291   5.684   7.531   1.298  0.0697 -0.1617 -0.1207
 6823W        W22292   3.089   8.636   0.020 -0.3128  0.1473  0.0144
 6824W        W22293   8.219  12.980   3.558 -0.0219 -0.1740  0.3298
 6825W        W22294   1.024  13.049  12.810  0.2798 -0.0270  0.0065
 6826W        W22295   4.712   8.759   2.046 -0.0055  0.3814 -0.0031
 6827W        W22296   7.303   8.009   1.695 -0.0442  0.1544 -0.0379
 6828W        W22297  16.334   8.569   0.824 -0.1880  0.2919  0.0849
 6829W        W22298   0.814  11.164  14.298  0.0822  0.0980  0.2122
 6830W        W22299  17.040   4.647   4.138 -0.2299 -0.4400 -0.2514
 6831W        W22300   2.170  11.526  14.590 -0.0033  0.1392 -0.1868
 6832W        W22301   3.500  15.741  13.919  0.0144 -0.0412  0.0665
 6833W        W22302   6.311  12.535   4.819  0.0442  0.2059  0.3001
 6834W        W22303  14.388  14.060   1.875  0.2555  0.1733 -0.2570
 6835W        W22304  11.895   2.167   1.807  0.1298 -0.2552  0.1716
 6836W        W22305  16.684   6.865  12.319  0.0016  0.1896  0.2717
 6837W        W22306   6.719  17.977  14.824  0.0269  0.3536  0.0157
 6838W        W22307   6.628   2.099   0.701 -0.2765 -0.0762 -0.0910
 6839W        W22308   9.643   7.195  15.153  0.2156 -0.1490  0.0459
 6840W        W22309   9.029   2.818   0.036 -0.1699 -0.1566  0.3096
 6841W        W22310  13.406  12.714   4.458 -0.0248 -0.0935  0.2014
 6842W        W22311  16.147   1.524   1.551 -0.0555 -0.0068 -0.0017
 6843W        W22312   9.036   5.639  15.734 -0.1653 -0.1620  0.1600
 6844W        W22313   1.058  10.850  16.018  0.2702  0.0125 -0.0171
 6845W        W22314  13.910  16.411   2.340  0.1408 -0.3276 -0.0910
 6846W        W22315   1.626   8.834  16.287 -0.0065 -0.2501 -0.0940
 6847W        W22316   0.791   5.648  12.616 -0.1536 -0.1184  0.1473
 6848W        W22317  17.531  10.402  15.156  0.0923 -0.1181  0.2286
 6849W        W22318  11.812  17.052  15.102 -0.2238 -0.1887  0.0299
 6850W        W22319   2.180   5.469  13.836 -0.0604  0.0614  0.0673
 6851W        W22320  15.864   1.330   6.298 -0.0888  0.2119 -0.1636
 6852W        W22321   8.457  11.617  15.521  0.1449 -0.0096  0.0938
 6853W        W22322   1.654   1.674  15.580 -0.1468 -0.0986 -0.0063
 6854W        W22323  14.913   3.976   1.805 -0.0773 -0.0841 -0.2094
 6855W        W22324   2.903   7.927   5.840  0.3088  0.0415 -0.2168
 6856W        W22325   2.826   4.760  12.890  0.0706 -0.1367 -0.0775
 6857W        W22326  16.875  17.005  14.814  0.1735  0.1039 -0.0010
 6858W        W22327  10.336   7.511  15.963  0.2379 -0.2397  0.1728
 6859W        W22328   6.501  13.402  14.795  0.0608 -0.2326 -0.2347
 6860W        W22329  17.955   8.119  11.670 -0.1635  0.3025  0.1232
 6861W        W22330   9.160  15.410  12.633  0.0154 -0.3561  0.0457
 6862W        W22331  14.339  13.159  13.289  0.2908  0.0114  0.0075
 6863W        W22332  17.065  14.777  13.363  0.2971 -0.0894  0.2633
 6864W        W22333  15.829  16.089   5.499 -0.4043 -0.0176 -0.1740
 6865W        W22334   0.050   9.167   1.262 -0.2613  0.2886  0.3314
 6866W        W22335   2.195  10.468   5.933 -0.0619  0.0577  0.4162
 6867W        W22336  15.898   4.952  13.667  0.0454  0.0138 -0.0952
 6868W        W22337   3.205   4.981   0.539  0.0449 -0.2322  0.6227
 6869W        W22338  16.377  15.707  13.774 -0.2849  0.0794  0.0755
 6870W        W22339   7.517  12.739   5.121  0.1610 -0.2597  0.0967
 6871W        W22340   7.578  10.113  14.297 -0.0787 -0.2124 -0.2593
 6872W        W22341  16.832  12.748   3.727 -0.0421 -0.0069  0.1623
 6873W        W22342  13.932   1.614  16.600 -0.0398  0.0215 -0.0486
 6874W        W22343   0.812   3.856   3.893 -0.0504  0.0445 -0.1927
 6875W        W22344   7.635  17.663   6.092  0.1680  0.0161 -0.1638
 6876W        W22345   0.994   5.779   4.589  0.1577 -0.1099 -0.2834
 6877W        W22346   3.494  13.403   1.516  0.2015 -0.0428 -0.2617
 6878W        W22347   5.171   8.546  12.939 -0.0255  0.1291  0.0444
 6879W        W22348   3.389   9.333  13.595 -0.1000  0.0976  0.2590
 6880W        W22349   2.720  16.190  16.302 -0.1211 -0.1894  0.3253
 6881W        W22350  13.644   6.796   0.663 -0.0069  0.0691  0.0486
 6882W        W22351  10.665   9.287  13.642 -0.3763  0.3873 -0.0740
 6883W        W22352   5.219   0.156  13.243  0.1247 -0.1128  0.0931
 6884W        W22353  17.885  16.913  11.185 -0.2264 -0.0476 -0.2505
 6885W        W22354   4.367  15.956  13.643  0.4345  0.2413 -0.1521
 6886W        W22355  11.277  16.580  15.292 -0.0002 -0.2886  0.1350
 6887W        W22356   1.161   8.393  14.575  0.1228 -0.0625 -0.1168
 6888W        W22357  11.243   1.477  16.339 -0.3479  0.3017 -0.1447
 6889W        W22358   4.644   6.244   5.016  0.1498 -0.0179 -0.1069
 6890W        W22359  14.324   2.586  14.858 -0.0457  0.0424 -0.2117
 6891W        W22360   3.779  10.860   0.311 -0.1450 -0.1571  0.1450
 6892W        W22361  11.016  11.713  11.906  0.0522  0.4657  0.1620
 6893W        W22362   6.165  16.251  12.717 -0.1051  0.2088  0.0742
 6894W        W22363  16.237  17.604  14.999 -0.0282 -0.0271 -0.2885
 6895W        W22364  10.388   4.914  15.870 -0.1331 -0.2423 -0.2221
 6896W        W22365   9.719  16.712  13.335 -0.1014  0.0674  0.0421
 6897W        W22366  16.360  12.123  13.232 -0.1211  0.1087  0.1460
 6898W        W22367   4.784   8.897  15.816  0.0403  0.0988 -0.1997
 6899W        W22368  12.269  13.908  11.881  0.1175  0.1377 -0.0944
 6900W        W22369  13.758  15.698  12.641  0.1171  0.0949  0.2551
 6901W        W22370  10.817  14.378  13.241  0.0032 -0.1148 -0.2069
 6902W        W22371   0.819  15.998  11.294  0.0661  0.0187  0.0109
 6903W        W22372   9.776  16.985   1.971  0.0570  0.0294 -0.2839
 6904W        W22373  13.618   4.424   5.514 -0.1676 -0.1032 -0.0427
 6905W        W22374  12.027   4.437   4.979  0.1224  0.1858 -0.1800
 6906W        W22375   2.492  10.185  12.511 -0.0586  0.0803 -0.4148
 6907W        W22376   5.632   9.062  10.233 -0.1705 -0.1937 -0.0064
 6908W        W22377  14.734  12.016   2.541  0.2435  0.1753 -0.3406
 6909W        W22378   5.262   6.801  14.370 -0.0543 -0.0254 -0.1681
 6910W        W22379  16.065  12.797  14.705  0.0662  0.1966 -0.0746
 6911W        W22380  15.337  11.944  14.997  0.1766 -0.0928 -0.1225
 6912W        W22381  14.425   2.059  14.852  0.1228 -0.3779 -0.0794
 6913W        W22382  17.558   8.865  10.766 -0.0107  0.1559  0.0029
 6914W        W22383   5.837  14.334  14.505 -0.2617 -0.0731  0.0389
 6915W        W22384  10.312   1.497   4.911 -0.1451 -0.3436 -0.1709
 6916W        W22385  17.417   1.992  11.675 -0.2039 -0.1717  0.1642
 6917W        W22386  13.514  14.074   5.707  0.0281  0.0202  0.2851
 6918W        W22387   1.850  11.702  14.290  0.0536  0.3885  0.1890
 6919W        W22388   5.048   2.349  12.595  0.0496 -0.0890  0.0845
 6920W        W22389  15.684   1.828  12.379 -0.0291  0.1134 -0.2546
 6921W        W22390  10.674   8.426  14.382  0.0211  0.0031  0.1594
 6922W        W22391   8.381   7.448   0.038  0.4135  0.0813 -0.2595
 6923W        W22392   7.790   7.162   2.912  0.1932 -0.0679  0.1142
 6924W        W22393  14.019  15.976  14.942 -0.1398  0.1238  0.2160
 6925W        W22394   7.492   9.435   2.079 -0.0882  0.2118 -0.1032
 6926W        W22395   1.292   6.188  11.486  0.0051 -0.0066  0.3917
 6927W        W22396   4.193  11.108  16.124  0.0337 -0.0697  0.1016
 6928W        W22397   7.942   1.378   3.435  0.3906  0.1181  0.1870
 6929W        W22398   5.906   6.947   4.641  0.0673 -0.4025  0.0998
 6930W        W22399   2.511   0.267  14.597  0.3025  0.0821  0.5118
 6931W        W22400  13.605  10.145  11.241  0.0199 -0.1331  0.1624
 6932W        W22401  10.074   1.980   6.969 -0.0530  0.0263  0.0131
 6933W        W22402   0.536   7.447  11.995 -0.1126 -0.0672 -0.3321
 6934W        W22403  11.908   8.222  13.302  0.0434  0.0176 -0.1080
 6935W        W22404  10.510   6.055   4.038  0.0632  0.1367  0.2299
 6936W        W22405  12.882   1.397  12.624  0.1264  0.0022 -0.1475
 6937W        W22406   8.334   6.470  13.064  0.2201  0.1244 -0.0481
 6938W        W22407   2.130   9.512  13.309  0.2560 -0.2937 -0.4567
 6939W        W22408   3.568   3.014   1.519  0.0356 -0.0134  0.0074
 6940W        W22409  10.364   2.397  11.563  0.1291 -0.2987 -0.0864
 6941W        W22410  10.022   9.323  15.007  0.0209 -0.2718 -0.1896
 6942W        W22411  12.735   1.625   5.706 -0.0243 -0.3056  0.1205
 6943W        W22412   2.272   0.688   5.250 -0.0459 -0.1155 -0.0649
 6944W        W22413   5.174  11.469  14.339  0.0560 -0.0934  0.0931
 6945W        W22414   2.204  13.286   3.882 -0.0986 -0.0406 -0.1043
 6946W        W22415  17.512  14.052  13.238 -0.0299 -0.1741  0.3550
 6947W        W22416  13.055   9.874  14.371  0.2753 -0.1678 -0.2359
 6948W        W22417  17.418  16.298   1.127 -0.4169  0.1140  0.1028
 6949W        W22418  15.282  16.151  13.735 -0.1764 -0.1472 -0.3303
 6950W        W22419  16.280  16.788  13.247  0.0280 -0.1293 -0.2016
 6951W        W22420  15.616  14.883   5.581 -0.0846  0.2470 -0.1020
 6952W        W22421   7.453   6.549   5.050  0.2091  0.3156  0.0316
 6953W        W22422   2.365  10.965  15.741  0.0540 -0.1379  0.0466
 6954W        W22423   9.098  11.680  14.111 -0.0302  0.0019 -0.1242
 6955W        W22424   1.868   0.551   1.089  0.1921 -0.0821  0.0247
 6956W        W22425   1.354   4.476   0.491  0.0032 -0.1246  0.3743
 6957W        W22426  10.052  11.471  15.327  0.0944  0.0102 -0.1461
 6958W        W22427   5.412  10.839   2.106 -0.1508 -0.0624  0.2082
 6959W        W22428   7.116   3.962   4.047  0.2569 -0.0856 -0.0156
 6960W        W22429  10.940  14.884   2.087 -0.0701 -0.0408  0.3957
 6961W        W22430  15.796   8.954  14.105 -0.2373 -0.0022  0.1776
 6962W        W22431   7.137   4.813   0.094  0.0066 -0.0971  0.0273
 6963W        W22432  14.272   9.543   1.852 -0.1517 -0.0077  0.0338
 6964W        W22433   5.059   2.792   1.285  0.3598  0.0227 -0.1520
 6965W        W22434   1.246   0.451   5.068 -0.2005  0.0767  0.1893
 6966W        W22435  12.519   4.185   1.537  0.3771  0.1888 -0.1031
 6967W        W22436  10.530  13.561  14.533  0.4377 -0.2107 -0.0811
 6968W        W22437   9.891   3.778   2.862  0.2050 -0.0947 -0.1555
 6969W        W22438  13.229   3.595   0.736  0.1169 -0.0419  0.3446
 6970W        W22439   3.316   9.133  11.730  0.1355 -0.3483  0.3141
 6971W        W22440   2.761   6.178  14.966 -0.1544 -0.2023 -0.3010
 6972W        W22441  17.247   2.865   5.507  0.0369  0.1226  0.1283
 6973W        W22442   7.475  17.855   3.339  0.1115 -0.0166  0.3386
 6974W        W22443   7.026  13.497  12.223  0.1210  0.0038 -0.1432
 6975W        W22444  12.655   3.254  15.450 -0.0200  0.2126 -0.1378
 6976W        W22445  17.636   5.019  15.662 -0.2450 -0.2205 -0.1806
 6977W        W22446   7.154  16.027   3.591 -0.2755  0.0546  0.0705
 6978W        W22447  13.407   4.772  13.196 -0.1274  0.1635  0.1598
 6979W        W22448  15.869   8.607  15.337  0.3643 -0.3036 -0.0500
 6980W        W22449  12.811   7.155  15.642  0.1054  0.1630  0.1226
 6981W        W22450  16.640   5.072  14.134 -0.2176  0.0685  0.2302
 6982W        W22451  14.269  17.324  12.226  0.1630 -0.0030  0.0078
 6983W        W22452  17.983  13.654  12.510 -0.4610  0.0363  0.0138
 6984W        W22453   8.878  15.197  12.232 -0.0129 -0.0816 -0.3035
 6985W        W22454   1.602  16.403   3.348 -0.0479  0.0534 -0.2566
 6986W        W22455  14.428  16.447   2.384  0.0325 -0.2193  0.0156
 6987W        W22456  17.841  17.016  12.184  0.0730  0.1133  0.0243
 6988W        W22457  16.190   3.528  10.437  0.0698  0.0437 -0.3176
 6989W        W22458   1.465  15.258   4.810 -0.0897  0.0603 -0.0929
 6990W        W22459   1.892  11.110  15.852 -0.1252  0.1869 -0.0664
 6991W        W22460   8.972   5.424  14.769 -0.0882  0.1117  0.1665
 6992W        W22461  16.647  10.603   3.202 -0.0378 -0.2885  0.2465
 6993W        W22462   2.563  13.516   0.594 -0.1572 -0.0883 -0.3029
 6994W        W22463  10.548   9.815  11.881  0.0155 -0.1170 -0.3014
 6995W        W22464  10.693  17.852   2.933  0.0562 -0.2350  0.0463
 6996W        W22465  11.765  14.178  14.863  0.4754  0.0203  0.1290
 6997W        W22466  13.991   3.036   5.089 -0.3555  0.0688 -0.0124
 6998W        W22467   5.328   9.940   0.083  0.2693  0.2509  0.1648
 6999W        W22468  16.742   6.319   0.860 -0.0209 -0.2877  0.1999
 7000W        W22469   4.273   0.479   1.792 -0.2100 -0.1564 -0.2441
 7001W        W22470   4.664   4.343   2.914 -0.2104  0.0294  0.0109
 7002W        W22471  12.968  10.043  15.121  0.2025  0.0300  0.1504
 7003W        W22472   5.927  13.851   5.015  0.0250  0.1074 -0.2872
 7004W        W22473   9.081   4.072  13.352  0.1096 -0.1331 -0.0044
 7005W        W22474  14.602  14.118   0.753  0.0729 -0.2164  0.0399
 7006W        W22475  12.007   7.441  13.814 -0.2741 -0.2548 -0.0817
 7007W        W22476  13.390   5.905  16.246 -0.2502  0.2311  0.2415
 7008W        W22477   0.457   3.405  12.671  0.1523 -0.1186  0.1430
 7009W        W22478  15.975   5.944   5.034  0.1233 -0.0153  0.0144
 7010W        W22479   3.296   4.957  11.388  0.1635 -0.0142 -0.0576
 7011W        W22480   6.667   7.567  13.807 -0.1256  0.1933 -0.0896
 7012W        W22481   7.392  17.904  12.435 -0.1466 -0.0959  0.0592
 7013W        W22482   8.124   4.614  13.858 -0.0031 -0.1366  0.1680
 7014W        W22483   3.790   6.115  11.348  0.0982  0.0573  0.1854
 7015W        W22484   1.361   4.867  12.785  0.1692 -0.1360 -0.0668
 7016W        W22485  13.798   3.902  15.827 -0.0029  0.1173 -0.0235
 7017W        W22486   9.663  11.747  16.202 -0.0390  0.0232  0.3889
 7018W        W22487   1.438  17.618   5.607 -0.1039  0.0059  0.0644
 7019W        W22488   1.332   1.451  11.606  0.1862 -0.1597  0.1452
 7020W        W22489   0.783  13.907   5.407  0.2321 -0.1643 -0.2204
 7021W        W22490  11.334   5.681  11.401 -0.0225 -0.2621 -0.1803
 7022W        W22491   5.287   6.114  13.829 -0.0868  0.3981 -0.0008
 7023W        W22492   1.148  16.755  14.182  0.1180  0.3521 -0.2043
 7024W        W22493   7.674  14.019   1.045 -0.2054  0.4765 -0.0825
 7025W        W22494   1.031   1.180   2.072 -0.3072  0.0193  0.4085
 7026W        W22495  13.176  10.621   1.586 -0.1306 -0.0546  0.2479
 7027W        W22496  13.341   5.017   3.488  0.0616  0.2187  0.1982
 7028W        W22497  17.954   5.632  13.721 -0.2504 -0.3076  0.2897
 7029W        W22498   0.229  14.066   3.318 -0.0203  0.2804 -0.1388
 7030W        W22499   3.724  11.266   0.616 -0.2912  0.2162 -0.1144
 7031W        W22500   2.376   6.097   3.397 -0.1417  0.1963 -0.2123
 7032W        W22501   5.634  14.886   1.070 -0.1807 -0.0545 -0.0113
 7033W        W22502   4.523   1.265   3.263 -0.1014 -0.0632  0.2784
 7034W        W22503   1.593   4.815   9.972  0.2176  0.2896  0.1145
 7035W        W22504  15.000  16.601  14.483  0.0738 -0.0820  0.0053
 7036W        W22505  11.824  11.910  12.623 -0.1468  0.0459  0.1959
 7037W        W22506  11.491   6.673   4.589  0.1684  0.0869 -0.3716
 7038W        W22507  14.684  13.384  11.945  0.0326 -0.0649 -0.2307
 7039W        W22508   6.594  11.712  13.883 -0.4810 -0.1394 -0.1842
 7040W        W22509   9.180   2.600   0.920 -0.2774 -0.0626 -0.1760
 7041W        W22510  10.017   6.114  11.813  0.1960  0.0809 -0.1663
 7042W        W22511   9.772   6.963  12.140  0.0806 -0.0871  0.0563
 7043W        W22512  13.255  10.347   4.747 -0.1772 -0.2162 -0.0560
 7044W        W22513   9.067  17.401  14.820 -0.0991  0.4522 -0.2630
 7045W        W22514  11.271   0.004  15.852  0.0292  0.1016 -0.3372
 7046W        W22515  10.879   3.363   2.269 -0.2073 -0.0720 -0.3245
 7047W        W22516   0.446   7.902  16.097  0.1907 -0.0488 -0.3006
 7048W        W22517  12.166   3.557  11.754 -0.0935 -0.3432  0.1108
 7049W        W22518  17.176   6.351   2.350  0.0972 -0.2476 -0.2023
 7050W        W22519  13.952  17.160   5.600 -0.0138 -0.0308 -0.1940
 7051W        W22520   9.242  10.130   3.988 -0.0654 -0.0635 -0.3410
 7052W        W22521  15.556   9.941  14.238 -0.1692  0.0305  0.1222
 7053W        W22522   2.021  13.859  14.865  0.4408  0.0539  0.0626
 7054W        W22523   1.916   0.181  16.344 -0.0803 -0.0042 -0.3992
 7055W        W22524  16.201  16.073  12.620  0.0892 -0.0906 -0.1367
 7056W        W22525  12.964   5.169   3.762 -0.0895  0.4194  0.1368
 7057W        W22526  14.055   2.974   3.658 -0.2830 -0.0799 -0.1301
 7058W        W22527  14.320   9.172   2.728 -0.1554 -0.2494  0.1264
 7059W        W22528   4.055  13.552   4.190  0.0641  0.0542 -0.2403
 7060W        W22529   8.820   7.862   2.465  0.0447 -0.0581 -0.1032
 7061W        W22530   5.232   5.908  11.494 -0.0319  0.1233  0.0515
 7062W        W22531   1.389   1.907  13.881 -0.3823  0.3171 -0.1775
 7063W        W22532   3.238  14.065  12.139  0.0202  0.0644  0.0887
 7064W        W22533   0.953   2.716  16.378  0.0912 -0.0868  0.0723
 7065W        W22534  16.036  10.860   3.410  0.0030 -0.0979 -0.2783
 7066W        W22535   9.930   6.043  14.738  0.1765 -0.4755  0.0101
 7067W        W22536  15.023   4.006  12.227  0.1010 -0.0407  0.0345
 7068W        W22537  11.839   3.259  11.087 -0.0860  0.0367  0.1023
 7069W        W22538   4.700  17.065  12.007  0.0152 -0.0842 -0.0706
 7070W        W22539  14.333   7.787  15.520  0.0749 -0.3502  0.0588
 7071W        W22540  10.424  12.290   4.658  0.2874 -0.1435  0.0376
 7072W        W22541  16.139  11.572   3.000  0.0392  0.1915  0.2407
 7073W        W22542   0.530   6.105   5.666  0.3555 -0.1350  0.2394
 7074W        W22543   5.522  11.088   5.292 -0.0958  0.3777 -0.1912
 7075W        W22544   6.024   0.697   1.083  0.0466  0.3079 -0.1578
 7076W        W22545   8.533  11.904   2.312 -0.1012 -0.0042  0.0231
 7077W        W22546  12.751   8.012  11.035 -0.1265  0.0101  0.2147
 7078W        W22547   3.963  17.224  13.390  0.0146 -0.2459  0.0962
 7079W        W22548  13.949   9.868  13.165  0.0558  0.1445 -0.2370
 7080W        W22549   4.479  16.012  12.885  0.0064  0.1580 -0.0281
 7081W        W22550   3.119  16.728   5.047  0.0497  0.0434  0.2253
 7082W        W22551  14.023   3.548   1.438  0.1243 -0.1051 -0.1314
 7083W        W22552   5.530   7.137   0.038 -0.1012 -0.1284  0.3079
 7084W        W22553  17.046  14.123  15.203 -0.1286  0.1048 -0.3915
 7085W        W22554   3.640   5.395  15.757  0.2577 -0.1928  0.1292
 7086W        W22555   0.331   8.085  12.462 -0.0470  0.2085  0.1809
 7087W        W22556  16.878  10.567   3.788  0.0206  0.0567 -0.3689
 7088W        W22557  17.358   2.156  16.111  0.1715 -0.0613 -0.0358
 7089W        W22558  16.193   9.471   5.386 -0.2798 -0.2096  0.3158
 7090W        W22559   1.556   5.333  12.368  0.0548 -0.0840  0.1251
 7091W        W22560   9.380  14.317  13.855  0.2657 -0.1597 -0.2008
 7092W        W22561  13.358   5.300  13.267  0.2400  0.0250 -0.0152
 7093W        W22562  16.677   5.629   4.265 -0.0284  0.0540 -0.0605
 7094W        W22563   9.904   5.751  11.199  0.0061 -0.0438  0.1920
 7095W        W22564   9.350   9.490   3.675  0.1118  0.0646  0.0326
 7096W        W22565  16.606   8.447   5.161  0.0509  0.1424  0.0812
 7097W        W22566   1.684  12.143  13.996  0.0649  0.1871  0.0805
 7098W        W22567   6.468   5.797  12.456  0.0576 -0.0038  0.1926
 7099W        W22568   4.511  14.388  14.693 -0.1426 -0.0092 -0.1397
 7100W        W22569   0.574  12.744  16.296 -0.3203  0.1091 -0.2370
 7101W        W22570   9.757   3.857  11.786  0.1448  0.2151  0.4304
 7102W        W22571   1.628  14.551  11.884  0.1678 -0.1070  0.0721
 7103W        W22572   8.224   2.673   4.239  0.1497  0.0550 -0.0045
 7104W        W22573   8.118   6.510   2.783  0.0042  0.0432 -0.0303
 7105W        W22574   8.549  12.751  14.252  0.2853 -0.0440 -0.1882
 7106W        W22575   2.862   6.595  14.345  0.3546 -0.0472  0.1893
 7107W        W22576  15.593   2.189   5.813 -0.0644 -0.1366 -0.0695
 7108W        W22577   9.003   2.005  11.974 -0.0787 -0.0826 -0.1398
 7109W        W22578  16.320   3.151   2.316  0.2479 -0.0243  0.2569
 7110W        W22579   4.102   6.500  11.111  0.0374  0.1540 -0.1800
 7111W        W22580   3.486  12.257  15.923 -0.1569 -0.0977 -0.0650
 7112W        W22581   8.720   7.837   1.926 -0.0443 -0.1485  0.0386
 7113W        W22582   8.789  13.706   2.815  0.2195 -0.0719 -0.1283
 7114W        W22583  10.941  16.898  15.081 -0.1903  0.2760 -0.0916
 7115W        W22584  14.153  15.686   3.385 -0.1716  0.1815 -0.1068
 7116W        W22585   8.040  10.779   5.015  0.2080 -0.1733 -0.0326
 7117W        W22586  13.238  10.737   2.691 -0.1606 -0.0502 -0.0473
 7118W        W22587   6.394  10.363  15.320  0.1818  0.0537  0.2809
 7119W        W22588  14.362   9.941  15.315 -0.0687  0.0202  0.0288
 7120W        W22589   4.103   0.406   4.546 -0.1775  0.2247 -0.2306
 7121W        W22590  10.108   4.749   0.326 -0.2307 -0.0132  0.0673
 7122W        W22591   1.939   9.071  14.991 -0.0438 -0.1589  0.1131
 7123W        W22592   9.346  10.465   1.738 -0.0478 -0.0218 -0.1654
 7124W        W22593  11.358   4.491  11.718  0.0966 -0.1269 -0.1693
 7125W        W22594   7.168   8.315   4.403 -0.2985  0.0450 -0.2442
 7126W        W22595   6.403   2.337   2.843 -0.0664 -0.0970 -0.0747
 7127W        W22596  14.389   3.192   1.648  0.1311 -0.3261 -0.2186
 7128W        W22597  13.569   4.331  12.129 -0.1398  0.3319  0.0829
 7129W        W22598  12.825  17.593  13.898  0.1968 -0.1002 -0.0784
 7130W        W22599   1.139  16.961  15.649 -0.0982  0.1499 -0.0860
 7131W        W22600  13.146  11.677  11.144 -0.1080  0.1056  0.5110
 7132W        W22601  14.627   9.088   1.870 -0.0429 -0.0884  0.2828
 7133W        W22602   3.159  16.178  15.218 -0.3668  0.3213 -0.2141
 7134W        W22603   1.092  13.890  15.411 -0.0618 -0.0131 -0.0712
 7135W        W22604   4.858  12.449   3.062  0.1474 -0.1034 -0.0262
 7136W        W22605  13.706   2.026   5.626  0.0745  0.0897 -0.0640
 7137W        W22606  10.332   2.762   5.250 -0.2021 -0.3153  0.0080
 7138W        W22607  14.487  16.118  15.296 -0.1377  0.2494 -0.1906
 7139W        W22608   5.680   9.824   4.471 -0.0196  0.0132 -0.3852
 7140W        W22609  17.259   4.796  13.159  0.1708 -0.2995  0.0267
 7141W        W22610  12.306   5.169  15.627 -0.0352  0.3007 -0.1689
 7142W        W22611  13.996   9.762  10.246 -0.1749 -0.0300  0.2164
 7143W        W22612   0.274   4.547   1.825  0.1324  0.0508  0.1713
 7144W        W22613   9.730  10.207  16.118  0.0270  0.1441  0.1532
 7145W        W22614   5.412  16.224   5.514  0.1291 -0.1850 -0.0082
 7146W        W22615   4.515   8.770   5.342 -0.1722 -0.1352 -0.1117
 7147W        W22616   1.209  16.584  16.128 -0.3545  0.0029  0.4588
 7148W        W22617   8.169   1.430  12.272 -0.1054  0.1176 -0.0334
 7149W        W22618   9.871  15.702   2.211 -0.1460  0.0314 -0.0647
 7150W        W22619   4.505  14.101  13.493 -0.1755  0.0811  0.2306
 7151W        W22620   3.915  14.172   1.209 -0.0533 -0.0625 -0.0662
 7152W        W22621   4.799   8.196   0.474  0.0593 -0.0966  0.0180
 7153W        W22622   2.591   7.423   0.483 -0.0147  0.3380 -0.2018
 7154W        W22623   4.197   6.106  13.148 -0.4032 -0.2057 -0.2197
 7155W        W22624   7.015   4.100  11.795 -0.2189 -0.1431  0.1347
 7156W        W22625   8.234   8.624   5.278 -0.1461  0.0381 -0.2400
 7157W        W22626   6.558   7.465  10.496 -0.3118 -0.1660 -0.1416
 7158W        W22627   5.361   6.943  12.360 -0.2338 -0.0652  0.1925
 7159W        W22628  12.245  14.417   4.474 -0.1697 -0.4030 -0.3461
 7160W        W22629   1.082  16.765  13.624  0.3151  0.2241  0.1522
 7161W        W22630   1.799   9.833   2.657 -0.1306  0.2174 -0.2623
 7162W        W22631   3.858   2.837   2.510 -0.2878 -0.1364 -0.0388
 7163W        W22632  10.774   4.701   1.122  0.0910  0.0379 -0.0776
 7164W        W22633   8.263  16.686   5.455 -0.2242 -0.1962 -0.1188
 7165W        W22634  16.424  11.810  12.127 -0.1500  0.0847  0.0422
 7166W        W22635  17.414  17.448   2.537 -0.0951  0.1503 -0.1641
 7167W        W22636  15.334  13.307  12.293  0.1154 -0.2067 -0.3200
 7168W        W22637   4.121   1.941  13.588  0.0091  0.0957  0.0790
 7169W        W22638  13.395  12.333   2.146  0.3402 -0.2248 -0.1088
 7170W        W22639  12.059   5.869  15.195 -0.3569  0.2448  0.1188
 7171W        W22640  15.596   1.127   1.508  0.0577 -0.1772  0.1280
 7172W        W22641   9.540   6.384  11.894  0.3529  0.1731 -0.0131
 7173W        W22642  15.076   3.563   1.661 -0.2167  0.1405 -0.0618
 7174W        W22643   6.796  15.938   3.133 -0.0629  0.1804  0.0778
 7175W        W22644   3.531   3.403   0.875  0.1838 -0.1934  0.0907
 7176W        W22645  15.757   3.488   5.523 -0.0244  0.3008  0.0274
 7177W        W22646   2.310  17.912   3.690  0.3104 -0.0583 -0.3628
 7178W        W22647   5.866  17.358   6.549 -0.0528  0.1118 -0.0459
 7179W        W22648  14.705   8.690   3.059  0.4478  0.0983 -0.1028
 7180W        W22649   3.710   6.197  11.836 -0.0233  0.1046 -0.0441
 7181W        W22650   4.441   0.982   3.764 -0.0404  0.2053 -0.1259
 7182W        W22651   9.069  12.594   0.334  0.4304 -0.0663 -0.1613
 7183W        W22652  15.326  16.235   1.242  0.3901 -0.1143 -0.3269
 7184W        W22653   9.307  17.604   2.977  0.1635 -0.1463 -0.2811
 7185W        W22654   5.484  13.995   3.588  0.0584  0.0159  0.2324
 7186W        W22655   6.060   0.294  16.533 -0.1844 -0.0275 -0.1402
 7187W        W22656   9.449   4.233   3.981  0.0953 -0.1823  0.4174
 7188W        W22657   0.520   9.298  13.011  0.0661 -0.1476  0.0918
 7189W        W22658   0.825  11.154   0.808 -0.1331  0.1467  0.0609
 7190W        W22659   8.234   6.231  13.635  0.1320 -0.2608 -0.1567
 7191W        W22660   1.949   5.060   4.495 -0.1277 -0.1035  0.1046
 7192W        W22661  15.921   3.141  13.651 -0.0339  0.2404 -0.0655
 7193W        W22662   6.718  16.081   0.907  0.1583 -0.1972 -0.0113
 7194W        W22663   7.259   6.500   2.845  0.3660 -0.2886 -0.2429
 7195W        W22664  15.899  13.147  15.105 -0.2095  0.2745 -0.1121
 7196W        W22665   8.995  12.869   1.415  0.0527  0.0900 -0.1478
 7197W        W22666  15.179   8.901   5.932  0.1256  0.3517  0.0678
 7198W        W22667  13.596   6.156   3.731  0.2193  0.1812  0.3689
 7199W        W22668  11.553   5.657  14.987  0.0620 -0.1529  0.2238
 7200W        W22669   1.938   4.731  11.335  0.2061  0.1185 -0.1186
 7201W        W22670  14.858  14.187   1.725  0.0390 -0.0094 -0.2473
 7202W        W22671   1.585  11.698  13.874 -0.1363 -0.0679 -0.2161
 7203W        W22672  12.468  11.727  15.682  0.0399 -0.2411 -0.0912
 7204W        W22673   5.863   8.713   2.813  0.3110 -0.2919 -0.0190
 7205W        W22674  16.061   3.673   1.661  0.0107 -0.0027 -0.0341
 7206W        W22675   3.107  17.753   1.450 -0.1091 -0.1555  0.1884
 7207W        W22676   4.175  16.936   4.238 -0.5275  0.1143  0.2043
 7208W        W22677   4.349   5.079   4.135  0.0144 -0.2993  0.0815
 7209W        W22678   4.244   0.426  14.227 -0.1495 -0.0735  0.0611
 7210W        W22679  11.204  15.469  15.381 -0.0522 -0.3154 -0.0421
 7211W        W22680  12.980   9.771   1.740 -0.0995  0.0092 -0.1682
 7212W        W22681  14.846   3.184  12.887 -0.0855  0.3824  0.1982
 7213W        W22682  15.130   0.132  12.247 -0.0283  0.3017  0.2536
 7214W        W22683  12.058  13.475  15.837 -0.0361  0.0670 -0.0532
 7215W        W22684   4.841  16.075   6.607  0.2231  0.4080  0.2575
 7216W        W22685  17.135  17.029   2.621 -0.2413  0.0608  0.1197
 7217W        W22686   2.417   6.178  11.114 -0.1777 -0.0019 -0.2032
 7218W        W22687   9.775   8.447  14.752 -0.0122  0.2640  0.4240
 7219W        W22688  14.870   3.255   0.496 -0.1776 -0.1628 -0.0922
 7220W        W22689   1.792  14.002  15.311  0.0089  0.2838 -0.1167
 7221W        W22690  14.581   0.347  15.014 -0.3092 -0.2167  0.0419
 7222W        W22691  15.196   5.779  13.699 -0.0877  0.0015 -0.1512
 7223W        W22692   6.842  14.917  16.052 -0.2052  0.3910 -0.1998
 7224W        W22693  15.081   9.543   0.797  0.0361  0.0289  0.0462
 7225W        W22694   3.502   4.834  10.955  0.2020 -0.1329 -0.0046
 7226W        W22695   8.972   6.152   0.320  0.1907 -0.0205  0.1171
 7227W        W22696   2.149   5.636  16.512  0.0493 -0.3884  0.0202
 7228W        W22697   2.731   4.683  13.864  0.0594  0.3746 -0.0782
 7229W        W22698   2.335   3.947   5.541  0.0001 -0.1232  0.0040
 7230W        W22699  15.115  13.911  11.449  0.1457 -0.0960  0.0149
 7231W        W22700  13.656   6.950   3.270  0.1676  0.0657  0.1082
 7232W        W22701  17.248  11.658   0.993  0.0199 -0.0665 -0.3741
 7233W        W22702  12.034   6.346  15.395  0.1767  0.0753 -0.2384
 7234W        W22703   3.725   0.064  12.859 -0.0283 -0.0911 -0.2549
 7235W        W22704   7.615  10.001   3.535  0.0127 -0.1707 -0.0086
 7236W        W22705  12.278  13.492  16.615  0.1516 -0.1673 -0.0674
 7237W        W22706   8.005  17.605  15.016 -0.1612  0.3358  0.0034
 7238W        W22707  15.257   5.698   1.348 -0.3961  0.0045  0.0876
 7239W        W22708   5.290   7.146   0.570 -0.1897  0.0598  0.0566
 7240W        W22709   6.545  12.763  12.625  0.0171 -0.0263  0.5498
 7241W        W22710   5.654   6.326  16.178  0.2654 -0.4100 -0.0978
 7242W        W22711   5.795  16.883   3.543  0.0310 -0.1158  0.0079
 7243W        W22712   4.266   9.499   4.088 -0.0915  0.0973 -0.0893
 7244W        W22713  10.221  11.872   0.754  0.2228  0.1430  0.0836
 7245W        W22714  13.181  10.752   5.791  0.0590  0.1018 -0.1289
 7246W        W22715  10.533   5.382   1.503 -0.1033 -0.0046 -0.1820
 7247W        W22716   3.027   0.963   4.555  0.3328  0.3095  0.1085
 7248W        W22717  15.913  15.874  15.841  0.2308 -0.2198 -0.1097
 7249W        W22718  17.334   7.120  11.850 -0.0339 -0.0810 -0.0090
 7250W        W22719   9.852   9.164   3.326  0.2034  0.1291 -0.0528
 7251W        W22720   0.203   7.215  13.325  0.4169  0.2434 -0.2265
 7252W        W22721  12.233   6.665  13.013  0.3000 -0.0012  0.0399
 7253W        W22722   1.185  17.190   4.666  0.1894 -0.1263  0.2948
 7254W        W22723  17.923   3.067   9.874 -0.0908 -0.0739  0.0735
 7255W        W22724   5.980  13.493   0.434  0.2021  0.2589 -0.3247
 7256W        W22725   2.167  10.895   5.629  0.1311 -0.0415  0.2588
 7257W        W22726  13.021  13.988   4.251  0.4095 -0.0468 -0.1284
 7258W        W22727  16.262   1.198   2.310  0.0215 -0.0550  0.0327
 7259W        W22728   9.563   0.089   1.722 -0.3255  0.1662  0.0989
 7260W        W22729   4.779   4.838  15.644 -0.0885 -0.2138 -0.1246
 7261W        W22730  11.502   0.384   3.393 -0.1544 -0.0765 -0.0271
 7262W        W22731   5.087  11.512   0.741 -0.0503 -0.0859  0.0332
 7263W        W22732  12.772   5.913   1.141  0.1477 -0.1759 -0.1012
 7264W        W22733  15.103  14.711   5.421  0.1532 -0.0455 -0.0485
 7265W        W22734   7.294  15.653   1.952 -0.1528 -0.0734  0.1024
 7266W        W22735   3.535  12.631  13.654  0.1730 -0.1953 -0.3083
 7267W        W22736   9.558   8.465  14.292 -0.3243 -0.0171 -0.2968
 7268W        W22737   7.146   1.171   1.450  0.3709 -0.2755  0.1333
 7269W        W22738   4.473   3.512   2.633  0.1555 -0.0880  0.0068
 7270W        W22739  10.526  11.216  14.000  0.0776 -0.1687  0.2332
 7271W        W22740   8.075  16.747  12.337 -0.0210 -0.2071 -0.0243
 7272W        W22741   3.488   1.420   5.265 -0.1015  0.1818 -0.1857
 7273W        W22742  16.403   3.079   4.423 -0.4200 -0.1408 -0.0214
 7274W        W22743   8.475  16.774  13.245  0.0652 -0.1210 -0.0795
 7275W        W22744   3.498  12.203  16.406  0.0222  0.1750  0.1100
 7276W        W22745  17.213   9.804  15.523  0.0799  0.0438 -0.3313
 7277W        W22746  13.895  17.050  14.541 -0.2549 -0.0435  0.0624
 7278W        W22747   5.310  14.525   3.276 -0.1393 -0.0304  0.3230
 7279W        W22748   8.317   4.834  16.333 -0.3045  0.0693  0.1951
 7280W        W22749   8.907   6.114  15.073 -0.1622  0.3861  0.0550
 7281W        W22750  11.058   0.700  13.605  0.0324 -0.1482  0.4229
 7282W        W22751   2.749   5.207   0.552 -0.3389  0.2227  0.1364
 7283W        W22752  12.045   7.818  11.952  0.4785  0.0831  0.0298
 7284W        W22753   4.894  17.993   6.289  0.1264 -0.0636 -0.0460
 7285W        W22754   3.424   5.332   4.593  0.0998 -0.2273 -0.0217
 7286W        W22755  16.171   6.940   0.632 -0.1673 -0.2289  0.1929
 7287W        W22756  10.638   6.227  12.536 -0.2228 -0.2049  0.2336
 7288W        W22757  10.531  15.192   4.027  0.3833  0.1871 -0.1236
 7289W        W22758   8.319   5.412  14.643 -0.0627 -0.0939  0.0330
 7290W        W22759   3.035  16.368   4.514  0.0851  0.2201  0.0268
 7291W        W22760   3.874  10.956  14.576  0.1816  0.1056  0.0803
 7292W        W22761   4.294  13.560  15.083  0.0093 -0.2276 -0.1002
 7293W        W22762   6.323  13.006   1.415 -0.2151 -0.0453  0.1543
 7294W        W22763   5.079  16.750  12.179  0.1598 -0.0403  0.1990
 7295W        W22764  15.994  10.564   0.289 -0.0132  0.0772 -0.1602
 7296W        W22765   3.833   3.352   3.814 -0.1634  0.3112  0.0554
 7297W        W22766  12.315   6.316  16.186  0.0251  0.3076  0.3859
 7298W        W22767   7.158   9.447  16.168 -0.0362 -0.1272 -0.1063
 7299W        W22768  12.324   3.651  12.226 -0.0683  0.0708  0.0472
 7300W        W22769   7.707   9.315   3.991  0.0163 -0.2012  0.0642
 7301W        W22770   3.615  16.836   2.380 -0.0313 -0.0708  0.0560
 7302W        W22771   8.007  11.143  14.871 -0.2300 -0.2036  0.1612
 7303W        W22772   8.515   9.969  15.082  0.1168 -0.1968 -0.1351
 7304W        W22773  14.073   4.604   0.384 -0.0314  0.1135 -0.0055
 7305W        W22774   8.997   0.644  12.731  0.0152 -0.0856  0.3783
 7306W        W22775   1.677   2.084   3.792 -0.0460 -0.1617 -0.2962
 7307W        W22776   2.541   0.224   2.793  0.1024 -0.1934 -0.0157
 7308W        W22777   3.743   8.646  14.652 -0.0879 -0.0737 -0.3159
 7309W        W22778   3.477  17.171   4.930 -0.1101 -0.1848  0.0220
 7310W        W22779  14.832  10.407  14.713  0.1737  0.2548  0.0142
 7311W        W22780  11.559  10.247   1.813 -0.0455 -0.2417 -0.2096
 7312W        W22781   3.248  11.706   0.459  0.1283 -0.0988  0.0890
 7313W        W22782  15.840   6.691   3.288  0.1106  0.1297 -0.2431
 7314W        W22783  12.311  10.876   1.603  0.4237 -0.0881  0.3723
 7315W        W22784   6.888  12.179  16.085 -0.2100  0.0442 -0.0333
 7316W        W22785  14.398   6.768  15.063 -0.0361 -0.3190  0.1116
 7317W        W22786   9.079   1.403   6.321  0.2041 -0.2375  0.1153
 7318W        W22787  10.347  13.921  14.903 -0.1532 -0.0086  0.2242
 7319W        W22788  10.898  10.052   3.162 -0.0919  0.2022  0.2490
 7320W        W22789  15.249  13.704  15.875  0.2968  0.1752  0.1400
 7321W        W22790   6.746  14.841   3.001  0.1571 -0.0756  0.1152
 7322W        W22791  13.937   4.995   1.286 -0.3365  0.0552  0.1264
 7323W        W22792  16.428   7.121   4.541 -0.0199 -0.1865  0.0469
 7324W        W22793   7.780  12.213  14.130 -0.1576 -0.3187  0.0815
 7325W        W22794   6.857   6.199  14.864 -0.1195 -0.2440  0.1261
 7326W        W22795   1.470   1.194   5.490 -0.2716 -0.1641  0.0247
 7327W        W22796  17.196   8.522   3.699 -0.1984 -0.1271  0.1869
 7328W        W22797   3.043   2.375  12.500  0.2188  0.0075 -0.0638
 7329W        W22798   5.817   3.768  14.810 -0.2817 -0.1651 -0.0228
 7330W        W22799   8.362   8.947  16.575 -0.1429  0.3903  0.0877
 7331W        W22800  12.171   2.060   2.220 -0.1034 -0.1571 -0.1547
 7332W        W22801   7.081   5.019  13.169  0.0677  0.1696 -0.4449
 7333W        W22802  16.086   8.830   2.433 -0.0527 -0.0107 -0.1894
 7334W        W22803   6.991   3.636  12.430 -0.3645 -0.0830  0.0989
 7335W        W22804  10.439  13.832   2.975 -0.3544 -0.0735  0.0681
 7336W        W22805   9.924   0.391   1.918  0.2472 -0.0203  0.1321
 7337W        W22806   5.679  12.753   3.350 -0.1112 -0.0446 -0.2840
 7338W        W22807   3.462  10.876   4.603 -0.0138 -0.2049  0.1559
 7339W        W22808   4.699  17.754  13.819  0.0419 -0.4382 -0.0856
 7340W        W22809  13.792   3.856  12.022  0.3497  0.0660  0.0893
 7341W        W22810   9.470   8.881   1.296  0.2271  0.0385  0.1290
 7342W        W22811   2.754   2.381   1.882 -0.4531 -0.1073  0.1757
 7343W        W22812  15.762   1.591  15.087 -0.1563 -0.0264  0.1955
 7344W        W22813   1.925   7.497  15.769 -0.1138 -0.2877 -0.0845
 7345W        W22814   2.350  17.194   1.073 -0.0827  0.1925 -0.1523
 7346W        W22815  16.093   0.183   0.566 -0.1446  0.0020  0.0913
 7347W        W22816  17.918   8.369   3.374 -0.3828 -0.0848  0.0945
 7348W        W22817  17.767  12.478  13.677 -0.1323 -0.0063 -0.0664
 7349W        W22818   2.951  13.926  13.472  0.0439 -0.0566 -0.3178
 7350W        W22819  15.863  16.092   0.225  0.1834  0.3798  0.2702
 7351W        W22820  10.698   6.070   0.587 -0.2107  0.0583  0.1164
 7352W        W22821  12.466   5.347   1.726 -0.1789  0.1472 -0.0394
 7353W        W22822  15.796  14.918  13.148  0.3570  0.1400 -0.0607
 7354W        W22823   6.422   3.742  16.612 -0.0055  0.0592 -0.3042
 7355W        W22824   7.818  14.271   1.960  0.0309  0.0399 -0.1809
 7356W        W22825  14.281   5.791  15.254 -0.2705  0.3111  0.2759
 7357W        W22826  14.270   4.716   2.500 -0.2141 -0.0301 -0.0719
 7358W        W22827   5.797  10.330  16.016  0.0552  0.1800 -0.0159
 7359W        W22828  11.811  12.371  12.922  0.0422  0.1443 -0.1676
 7360W        W22829   7.708  17.620  14.629 -0.0889 -0.0363  0.1399
 7361W        W22830  14.314   4.754  15.893 -0.0075 -0.0468 -0.0812
 7362W        W22831  16.451  11.531   5.010 -0.1641  0.4045 -0.0804
 7363W        W22832  11.229  10.766  15.638 -0.0122 -0.1082  0.1474
 7364W        W22833   9.544   7.449   0.838 -0.0755  0.0345  0.0968
 7365W        W22834   3.397  14.851   0.421 -0.0091 -0.0928 -0.0770
 7366W        W22835  14.059  10.993  11.678 -0.0050  0.0040  0.1003
 7367W        W22836   5.825  14.878   2.428 -0.1207  0.2975 -0.2468
 7368W        W22837   1.018   5.963   0.594  0.0559 -0.3496 -0.1486
 7369W        W22838  16.531  17.006   0.015  0.0524 -0.2348 -0.2173
 7370W        W22839  17.624   0.047  12.838 -0.3187  0.0766  0.0880
 7371W        W22840  15.605   2.614   5.175  0.3100  0.1595 -0.0648
 7372W        W22841   1.270   8.156  11.601  0.2584 -0.1205  0.3750
 7373W        W22842   8.948   8.797   2.059 -0.0403 -0.1856 -0.2510
 7374W        W22843  11.879  13.246   2.345  0.0025  0.3980 -0.0981
 7375W        W22844  17.124  17.482  12.319 -0.0903  0.1266  0.1613
 7376W        W22845  15.078   7.227   3.465 -0.1587  0.0476 -0.2616
 7377W        W22846   6.564   9.081  16.064  0.0155 -0.3779  0.1038
 7378W        W22847  17.870  14.521  15.779 -0.0946  0.2539 -0.0418
 7379W        W22848  13.076   1.369  14.122 -0.2410 -0.3225 -0.0782
 7380W        W22849   5.754   3.466  11.143 -0.3010  0.2680 -0.0236
 7381W        W22850  14.136   8.405   0.048 -0.1815  0.1016 -0.0114
 7382W        W22851   5.496   9.924  15.645 -0.0356 -0.0747 -0.2490
 7383W        W22852   2.305  17.494   5.795 -0.1752 -0.2265  0.0092
 7384W        W22853  11.308   5.483   3.785  0.0374  0.0850  0.1387
 7385W        W22854   5.408   2.036  16.600  0.0785 -0.2416  0.0897
 7386W        W22855  11.117  14.940  11.686 -0.2295 -0.0012 -0.1006
 7387W        W22856   1.631   4.642  13.651 -0.0364  0.2859 -0.0042
 7388W        W22857   3.861  14.412   1.937 -0.1505 -0.1480 -0.0157
 7389W        W22858   2.452  16.318   4.663 -0.0916 -0.1529  0.0882
 7390W        W22859   0.329   6.942   1.872  0.1351 -0.2247 -0.0724
 7391W        W22860   7.926  16.688  16.416 -0.1973 -0.3710 -0.0576
 7392W        W22861  11.327   6.875  12.577 -0.1893 -0.1947 -0.2882
 7393W        W22862  17.727   6.038  13.509  0.1298 -0.2716 -0.3686
 7394W        W22863   6.311   3.747  14.642  0.2472  0.0095  0.3582
 7395W        W22864   4.917   5.868   0.552 -0.0839  0.2079  0.1638
 7396W        W22865   5.064  14.751  16.255 -0.0768  0.0657  0.0337
 7397W        W22866   2.284  12.731  11.561  0.4195  0.0167 -0.0748
 7398W        W22867   0.587  15.148   5.417  0.0676  0.1701 -0.0357
 7399W        W22868  12.211   1.707   1.506  0.1457 -0.0899  0.2311
 7400W        W22869   2.422  17.785   1.915  0.2059  0.0452 -0.1931
 7401W        W22870   7.294   4.040   0.566 -0.0899  0.2467 -0.1896
 7402W        W22871   8.906  15.509   1.761  0.0119  0.1280 -0.0475
 7403W        W22872  11.168   8.413  16.263  0.0290 -0.1617  0.0693
 7404W        W22873   4.046  16.308  14.328 -0.0286  0.1778  0.2594
 7405W        W22874  14.124   0.207  11.687  0.3189  0.2449 -0.1029
 7406W        W22875  13.247   1.098  15.190  0.4268  0.2660  0.1032
 7407W        W22876   9.295  10.239   0.501  0.2222 -0.2022 -0.3585
 7408W        W22877   3.941   3.579  15.463  0.1307  0.1115 -0.3466
 7409W        W22878  12.331  16.458   2.648 -0.2720 -0.0685 -0.2763
 7410W        W22879   9.850   3.387  16.471 -0.0909  0.4514  0.0794
 7411W        W22880  13.967  13.315  12.121 -0.2835 -0.2395  0.0421
 7412W        W22881  13.406  16.180   5.482 -0.0096  0.1675 -0.2650
 7413W        W22882  13.276  13.732   2.146  0.0366 -0.1011 -0.1102
 7414W        W22883  13.015  15.437   3.016  0.0969  0.1153 -0.0132
 7415W        W22884   8.657  12.029   1.172  0.0132 -0.1052  0.1962
 7416W        W22885   7.266  11.834  14.834  0.1800 -0.0667  0.3411
 7417W        W22886   4.444  14.257  12.219  0.2774 -0.0120  0.2468
 7418W        W22887  15.206   9.179  12.765 -0.2687 -0.0267 -0.2640
 7419W        W22888  12.585   8.176   2.882 -0.0260 -0.1162 -0.1102
 7420W        W22889   4.950  10.478  11.103 -0.0504 -0.1002 -0.0768
 7421W        W22890   1.159  15.211  15.073 -0.0548  0.0125 -0.0544
 7422W        W22891  10.725  13.609   5.250 -0.3616  0.0941  0.0279
 7423W        W22892  16.077   7.114  12.079  0.3269 -0.0818  0.0194
 7424W        W22893  15.945   6.027   0.472 -0.0412 -0.0702 -0.1941
 7425W        W22894   0.584  14.462   2.436 -0.2586 -0.1985  0.2550
 7426W        W22895   1.987   2.079   1.862 -0.0216  0.1565 -0.2134
 7427W        W22896  10.085   6.205  15.207  0.3744  0.2439 -0.1810
 7428W        W22897  11.995   9.935  14.915  0.3500 -0.0813  0.2259
 7429W        W22898  12.356   7.632  15.300  0.1256  0.1310  0.0675
 7430W        W22899  10.286   8.613   3.397  0.1523  0.0184  0.1947
 7431W        W22900   3.820   1.841   3.251  0.0210 -0.0335  0.0360
 7432W        W22901   6.105   1.431   3.334 -0.0288  0.0293 -0.0493
 7433W        W22902  14.108  10.427   1.880 -0.1821 -0.1760 -0.0065
 7434W        W22903   5.702  12.920   2.389  0.1773 -0.1064  0.0236
 7435W        W22904  14.647   6.714   3.370 -0.0934  0.0347 -0.0571
 7436W        W22905  16.420   3.791  16.042  0.0534  0.2698 -0.2048
 7437W        W22906   0.739  13.447  15.753 -0.2983  0.2072 -0.2091
 7438W        W22907   0.558   5.102   5.129 -0.1643  0.1125  0.1657
 7439W        W22908  10.238   0.516  11.495  0.0580 -0.1871 -0.1767
 7440W        W22909   2.503  16.203   3.026  0.0624 -0.2149 -0.1154
 7441W        W22910  17.317  12.701  11.071  0.3094  0.0676 -0.0965
 7442W        W22911  12.291   2.034   4.755  0.3546 -0.0950  0.2855
 7443W        W22912   1.033  10.272   3.085  0.1879 -0.0019  0.1086
 7444W        W22913  15.813   8.679   3.872 -0.2194 -0.0142  0.0618
 7445W        W22914   9.930   5.971   3.830  0.0360  0.0020  0.1157
 7446W        W22915  15.089   9.992   2.449  0.0447 -0.2181 -0.1672
 7447W        W22916  12.256   8.255  14.382 -0.2058  0.2007  0.1860
 7448W        W22917  14.597   8.957  13.362 -0.1784 -0.0303 -0.3826
 7449W        W22918  16.908  17.326  15.504  0.1214 -0.1104  0.3089
 7450W        W22919   6.118   8.047  14.342 -0.4011 -0.1249  0.0018
 7451W        W22920   8.498  14.452  11.536  0.0886  0.1224 -0.3352
 7452W        W22921  16.653  17.780  12.780  0.0706 -0.0447 -0.0588
 7453W        W22922   0.027  15.695   5.308  0.0079 -0.0484 -0.0595
 7454W        W22923  14.620   0.100  14.015  0.2031 -0.1332  0.1186
 7455W        W22924  14.377  17.433  15.858  0.0570  0.1260 -0.2362
 7456W        W22925   5.746   1.751  12.264  0.3544 -0.0614  0.1627
 7457W        W22926  16.648   4.991  12.512  0.0589 -0.1093  0.1211
 7458W        W22927   1.709   8.863   2.720 -0.0541  0.1904 -0.0988
 7459W        W22928   6.779   7.451   2.267 -0.0366  0.0159  0.2140
 7460W        W22929  10.588  17.136   0.128  0.0531 -0.2871  0.0864
 7461W        W22930   1.149   1.558   3.305 -0.2117 -0.0915 -0.2549
 7462W        W22931   4.611   5.123   1.340 -0.1137 -0.1582  0.0605
 7463W        W22932  11.577  15.924   1.513  0.0945  0.0181 -0.0716
 7464W        W22933   9.077  14.270  14.395 -0.4703  0.2392  0.0875
 7465W        W22934   1.203  14.969  13.266 -0.5446  0.1472  0.1269
 7466W        W22935   3.579   8.772   0.320  0.0700 -0.0328  0.0607
 7467W        W22936   4.860   3.694   5.368 -0.0822  0.1656  0.1578
 7468W        W22937   6.425   7.637   6.317  0.1945 -0.0403 -0.2345
 7469W        W22938  12.892   8.393   3.227 -0.3378  0.2048  0.0501
 7470W        W22939   7.148  17.144  15.087 -0.1749 -0.1237  0.0896
 7471W        W22940  10.599  12.005   1.952  0.0332  0.1211  0.0554
 7472W        W22941   7.184  15.015  15.613 -0.0419 -0.1151 -0.2343
 7473W        W22942   3.463  17.853  15.949  0.0004  0.3549 -0.0082
 7474W        W22943   3.203   3.746  16.358 -0.2279  0.2867 -0.1109
 7475W        W22944   1.078  10.968  12.941 -0.2109 -0.2116 -0.1669
 7476W        W22945   2.110   2.460   2.924  0.1796  0.3592  0.0720
 7477W        W22946   7.138   9.087   2.770  0.1615 -0.2998  0.0578
 7478W        W22947   0.258   5.817  13.284  0.0891  0.2535 -0.2170
 7479W        W22948   6.037   5.343  15.735 -0.2019 -0.1027 -0.1789
 7480W        W22949   6.572  10.280   5.698  0.1948  0.6327 -0.2184
 7481W        W22950   6.884  15.088   2.587 -0.0493  0.1189 -0.1790
 7482W        W22951   5.539   2.674  11.339  0.5187 -0.0168  0.3858
 7483W        W22952  12.778  15.149   0.236  0.1570 -0.1553  0.0188
 7484W        W22953  12.234  10.002  16.517  0.0262  0.0675  0.0358
 7485W        W22954   4.310   3.914  14.778 -0.1250 -0.0785 -0.0499
 7486W        W22955   0.645   8.470   1.307  0.1153 -0.0896  0.0040
 7487W        W22956   2.865  14.864   1.366  0.1641  0.0115 -0.0977
 7488W        W22957   5.518   0.945  11.715  0.1254  0.4602 -0.0000
 7489W        W22958  14.882   6.805   0.097 -0.0228 -0.1977 -0.0356
 7490W        W22959  13.452  10.311  15.107  0.0740 -0.1337 -0.1766
 7491W        W22960   4.936   0.623  10.758 -0.0102  0.1104 -0.0149
 7492W        W22961   6.065  13.475   1.402 -0.0499 -0.1371  0.1276
 7493W        W22962   8.585   8.481   2.161  0.1333  0.2633  0.1868
 7494W        W22963   0.339   1.740   1.676  0.1965  0.0484 -0.2470
 7495W        W22964   2.012  15.390   0.632  0.1286 -0.0920  0.0311
 7496W        W22965   2.263  16.109   5.506  0.1659 -0.0155  0.0418
 7497W        W22966   1.697   2.846   6.054 -0.3176 -0.1222 -0.2389
 7498W        W22967   8.754  16.568   4.597 -0.1827 -0.2399  0.1443
 7499W        W22968   2.526   5.759  13.178  0.3591 -0.3694 -0.2747
 7500W        W22969   6.782  16.608  12.159 -0.2563 -0.0348 -0.0286
 7501W        W22970  12.631   6.825   2.270  0.0652 -0.0262  0.0612
 7502W        W22971   5.913  13.093   3.881 -0.1575  0.0502  0.3058
 7503W        W22972  11.716   3.255   3.011 -0.0772 -0.0018 -0.0978
 7504W        W22973   8.656   7.876  16.486  0.1546  0.2698 -0.0580
 7505W        W22974  12.432  11.852   5.485  0.0122 -0.0726  0.0502
 7506W        W22975  12.582   8.693   2.901  0.0625 -0.0213  0.0602
 7507W        W22976  10.349   4.444  10.804 -0.3699  0.2171  0.1048
 7508W        W22977  17.183   4.930   4.517  0.0922 -0.0035  0.0736
 7509W        W22978  15.083   8.458  11.742 -0.3264 -0.1738 -0.1471
 7510W        W22979   9.217  14.568  12.975 -0.3099 -0.0085 -0.0361
 7511W        W22980  15.872  12.116   4.722 -0.1853  0.0912  0.1181
 7512W        W22981  10.964  16.354   0.730  0.3294 -0.1458 -0.0122
 7513W        W22982   8.305   6.454  15.580 -0.1959 -0.2130 -0.1537
 7514W        W22983   7.173   5.586  12.708  0.2669  0.2871 -0.2709
 7515W        W22984   4.218   5.008   2.630  0.1839  0.1832  0.0877
 7516W        W22985   8.131   6.928   5.770 -0.0012  0.2793 -0.3236
 7517W        W22986   5.295   1.446   5.308  0.3314  0.0197  0.1717
 7518W        W22987  14.987   5.986  11.746  0.2226  0.0884 -0.1356
 7519W        W22988   5.652   5.457  13.120  0.0527  0.0543 -0.0678
 7520W        W22989  15.366   4.102  11.305 -0.2636  0.1532 -0.0947
 7521W        W22990  14.823   6.637   1.793 -0.4795 -0.1530 -0.0395
 7522W        W22991  14.171   5.445   0.229 -0.1566 -0.0269  0.3374
 7523W        W22992   1.375  11.959  11.409  0.0344 -0.0742 -0.0260
 7524W        W22993  13.505  16.415  16.540  0.1567 -0.0927  0.0913
 7525W        W22994   2.953  17.830  11.786  0.2397 -0.0130  0.3460
 7526W        W22995   4.551  17.739  16.202  0.1357  0.2917 -0.0571
 7527W        W22996  11.461   2.195   3.117 -0.0388 -0.0444  0.2411
 7528W        W22997   0.124  17.645   4.620  0.3071  0.0466  0.3996
 7529W        W22998  17.039  14.708   0.720 -0.2521 -0.1383  0.0801
 7530W        W22999  14.807  16.631  13.172  0.0099 -0.3340 -0.0060
 7531W        W23000   2.654  12.077   2.234 -0.0385  0.3454  0.0790
 7532W        W23001   4.431   3.688  13.028  0.3482  0.3198  0.2611
 7533W        W23002   8.587   4.399  13.514  0.0169 -0.0429  0.2488
 7534W        W23003   3.256   0.226   4.498 -0.2903 -0.4443  0.0244
 7535W        W23004   4.012  16.836  12.457  0.2808  0.1195 -0.0648
 7536W        W23005   4.190   2.735   0.235  0.1167  0.2587  0.0545
 7537W        W23006  17.037   5.957   1.573 -0.1062  0.0254 -0.0429
 7538W        W23007   9.274  15.768  15.105 -0.2756  0.0472  0.2495
 7539W        W23008  17.203   3.167  12.011  0.1498 -0.1881  0.1371
 7540W        W23009  13.608   0.413  12.131 -0.1227 -0.0077  0.1428
 7541W        W23010  15.656   9.460   3.771 -0.1135 -0.0453  0.0540
 7542W        W23011   6.430  15.245   0.910  0.2359 -0.0942  0.0093
 7543W        W23012   6.189   9.253   5.581  0.2981 -0.3343  0.0107
 7544W        W23013   2.757   5.136  15.667  0.3277  0.0905  0.0004
 7545W        W23014  10.784   4.198   2.613 -0.0183 -0.0469 -0.0137
 7546W        W23015   2.242  13.377  15.885 -0.2150 -0.1585  0.0219
 7547W        W23016   8.182  11.854   4.349 -0.1168  0.0746 -0.1675
 7548W        W23017  10.791  10.699   3.606  0.1701  0.1063 -0.1337
 7549W        W23018  12.877  16.560  15.459 -0.1754  0.0318 -0.0163
 7550W        W23019  11.372   9.676   2.312 -0.3749  0.0650  0.0595
 7551W        W23020  13.135  10.716   5.227  0.0191  0.0936  0.0742
 7552W        W23021   3.142   5.044   3.878 -0.1094  0.0297  0.3680
 7553W        W23022  12.532   1.577   2.356  0.2663 -0.1676  0.4776
 7554W        W23023   0.197  14.376   0.454 -0.0887 -0.2962 -0.0592
 7555W        W23024  13.099  13.012   0.367  0.1262  0.1123 -0.3813
 7556W        W23025  17.363   7.481   0.199 -0.1905 -0.1801 -0.0952
 7557W        W23026  16.640  12.303   1.461 -0.0179  0.0577 -0.0176
 7558W        W23027  14.350   3.339   1.142 -0.1280  0.2593 -0.1269
 7559W        W23028  13.728  10.817   0.436  0.2612  0.0763  0.2771
 7560W        W23029   0.798   3.761  16.268  0.0733 -0.0151 -0.1642
 7561W        W23030  17.832  15.104   3.044 -0.1430 -0.2248 -0.4927
 7562W        W23031  16.573  14.107   5.663  0.2217 -0.1746  0.1776
 7563W        W23032   5.920  15.829  14.293  0.0574 -0.2030 -0.0499
 7564W        W23033   9.330  16.506  13.610 -0.0455 -0.2290 -0.2255
 7565W        W23034  15.547   5.978   0.823 -0.2851  0.0086 -0.1490
 7566W        W23035   3.459   3.148   0.483  0.1870 -0.0630  0.0613
 7567W        W23036   0.279  13.474  13.429 -0.0517  0.1382 -0.0815
 7568W        W23037  12.120   7.446   2.699 -0.2308 -0.1301  0.0355
 7569W        W23038  11.696  13.008   5.520 -0.1498  0.2876 -0.1023
 7570W        W23039   7.325   1.649  14.122 -0.1936  0.3648  0.1042
 7571W        W23040   4.905  12.795   2.676  0.0668 -0.0956  0.0362
 7572W        W23041   7.315  10.377   1.965 -0.3344 -0.1042  0.2478
 7573W        W23042  17.520  11.994  15.457 -0.2374 -0.1872  0.0320
 7574W        W23043   2.868  10.044   2.209  0.0870  0.0471 -0.2309
 7575W        W23044  12.327  12.784  11.709  0.1852  0.0284  0.1960
 7576W        W23045   0.125  11.873   0.698  0.0510 -0.1721 -0.0729
 7577W        W23046   8.466  10.928   4.832  0.0506 -0.0652 -0.1459
 7578W        W23047  11.663  10.598  15.317  0.2114  0.0141 -0.2269
 7579W        W23048  12.640   5.971   2.796 -0.3271 -0.0114 -0.2494
 7580W        W23049   2.019   3.933   1.877  0.0420  0.0827 -0.0350
 7581W        W23050   0.710   9.359  16.188  0.0782 -0.0027  0.1444
 7582W        W23051  14.474   0.237  14.543  0.2154  0.0688  0.1376
 7583W        W23052   2.637   3.406  15.763 -0.0331 -0.2728 -0.3348
 7584W        W23053   4.869   9.938   3.924  0.0762  0.1692  0.2032
 7585W        W23054  12.824  13.776  13.103 -0.3222  0.1378  0.1780
 7586W        W23055   9.249  16.355   4.609  0.0161  0.0562  0.0271
 7587W        W23056   3.591  14.515   1.443 -0.0173 -0.0762  0.0797
 7588W        W23057   0.913  15.585  15.396  0.0155  0.1811 -0.3261
 7589W        W23058   5.193   7.698  15.419  0.0662  0.4641 -0.1473
 7590W        W23059  11.141  14.003   5.272  0.0970 -0.1709 -0.1655
 7591W        W23060   0.124   3.081   5.961  0.0216 -0.0032  0.0105
 7592W        W23061  15.631   0.569   2.705  0.3157  0.0049 -0.0678
 7593W        W23062   9.494  11.151   2.459  0.3137  0.2697 -0.0208
 7594W        W23063   9.630   6.985  10.873 -0.2057  0.2731  0.1876
 7595W        W23064   0.527  10.376   0.545 -0.2732 -0.0222  0.1532
 7596W        W23065  13.462  17.157   5.659  0.1030 -0.1204  0.2669
 7597W        W23066   8.206   3.403   1.437 -0.0778  0.0065  0.1976
 7598W        W23067  10.704   8.997   0.467  0.1146  0.3158 -0.0241
 7599W        W23068  13.576   0.823  13.729  0.0640 -0.2025  0.0068
 7600W        W23069   6.262   2.838   5.867  0.0958  0.1437  0.1971
 7601W        W23070   4.310  11.315  10.920 -0.1770 -0.4506  0.0254
 7602W        W23071   1.809  11.408  13.128 -0.0493  0.3238  0.0557
 7603W        W23072  12.467  12.398   0.740 -0.0547  0.0267  0.1754
 7604W        W23073  17.699  17.817   3.278  0.1654 -0.0213 -0.0211
 7605W        W23074  17.312   2.294  10.356  0.2237  0.0596 -0.2198
 7606W        W23075   0.201   8.160   2.604 -0.1855  0.0339  0.5146
 7607W        W23076  14.137   5.552   1.150 -0.2799 -0.1153  0.4118
 7608W        W23077   4.504  16.025   1.622 -0.1494  0.1016 -0.1823
 7609W        W23078  16.689   1.193  12.697 -0.3704 -0.1590  0.0503
 7610W        W23079   7.143  10.944   0.270  0.1519  0.0550  0.3670
 7611W        W23080   4.535   2.499   6.325 -0.0844 -0.2311  0.1810
 7612W        W23081   8.396   2.410  16.269 -0.0817  0.0847  0.2538
 7613W        W23082  13.351  15.944  12.857 -0.0224 -0.2716 -0.2997
 7614W        W23083   3.201  16.763   2.594  0.1830 -0.2443 -0.0363
 7615W        W23084   0.673   7.796  16.511 -0.1039  0.0697 -0.4986
 7616W        W23085   1.898  10.005   5.040 -0.1355  0.1481 -0.1467
 7617W        W23086  13.696  13.210   1.526 -0.0835  0.2021  0.0418
 7618W        W23087  10.452  15.537  13.401 -0.2720 -0.0072  0.0077
 7619W        W23088   2.475   8.246  16.007 -0.0408 -0.0186  0.0389
 7620W        W23089   1.601   4.177  10.511 -0.2347  0.1756  0.0445
 7621W        W23090   5.299   9.761  10.709  0.2276 -0.1326 -0.3476
 7622W        W23091  14.441   0.045  12.978 -0.3120  0.2267  0.0212
 7623W        W23092  14.435  12.979   3.195  0.0793 -0.1669  0.0756
 7624W        W23093   0.374   4.639   4.980 -0.0669 -0.1676 -0.1250
 7625W        W23094   3.272  12.754  13.247  0.1140  0.0966 -0.0640
 7626W        W23095  11.000  10.629  13.465 -0.1284  0.3166 -0.3122
 7627W        W23096  16.170   4.456  11.418 -0.0303 -0.0603  0.0769
 7628W        W23097  15.624   6.393   2.430 -0.1879 -0.1110  0.0399
 7629W        W23098   5.097   6.341  13.432 -0.3175 -0.3282 -0.2311
 7630W        W23099   1.118  11.597  15.323 -0.1562 -0.2412 -0.0716
 7631W        W23100   5.538  15.310   4.551  0.0273  0.0910 -0.1444
 7632W        W23101   0.921  13.060  16.056  0.1409 -0.0828 -0.1513
 7633W        W23102  13.018  17.287   2.318  0.0364 -0.1295 -0.1978
 7634W        W23103  14.162   4.201  12.926  0.3070 -0.0816 -0.0784
 7635W        W23104   4.956   8.562  13.751  0.2548 -0.1513 -0.1358
 7636W        W23105  12.918  11.632  15.876 -0.2377  0.1894 -0.2038
 7637W        W23106   7.836  16.353  16.035  0.1278  0.0305  0.0155
 7638W        W23107  16.656  11.907   2.109  0.0237  0.0187  0.1919
 7639W        W23108  11.717  11.641   3.032 -0.0499 -0.0367 -0.0311
 7640W        W23109  11.099   0.466   0.230  0.2137  0.1140  0.2617
 7641W        W23110   9.358   4.903  13.610 -0.2185  0.2509  0.2094
 7642W        W23111  15.761  17.338   6.007 -0.0949 -0.1306  0.0135
 7643W        W23112   2.874   2.802  14.804  0.1414 -0.0443 -0.0152
 7644W        W23113  12.729  14.168   4.727  0.0225 -0.1085  0.4155
 7645W        W23114   9.689   0.968  15.711  0.1138  0.0846 -0.1727
 7646W        W23115   0.832   4.781   5.370 -0.0077 -0.0107 -0.0300
 7647W        W23116  17.620  15.154   0.160  0.4571 -0.1731  0.2860
 7648W        W23117   8.392   8.071   2.759  0.2058  0.1386  0.1033
 7649W        W23118  16.236  17.204   2.521 -0.4839 -0.1627  0.0735
 7650W        W23119   3.188  15.403   4.806 -0.2458 -0.0697 -0.0180
 7651W        W23120   2.959  13.633   0.051 -0.3527  0.0380 -0.0918
 7652W        W23121   3.404   1.786   0.632  0.0070  0.1031 -0.0276
 7653W        W23122   8.463   9.624  16.325  0.0512  0.2881 -0.1425
 7654W        W23123  11.640   7.173  12.830 -0.0621 -0.1244 -0.1399
 7655W        W23124  13.523   8.655  15.814 -0.0026  0.1090  0.1295
 7656W        W23125   5.541  16.632   3.875  0.0958  0.0116  0.0914
 7657W        W23126   6.749  15.125   3.904 -0.2150 -0.2769 -0.3275
 7658W        W23127  14.409   9.767  16.508  0.0935 -0.2362 -0.1448
 7659W        W23128   3.487  11.473  12.964  0.2731 -0.2698  0.3249
 7660W        W23129  16.502   5.612  14.464  0.4047 -0.0503  0.1977
 7661W        W23130   2.925   3.346  13.550  0.0216 -0.0775  0.1171
 7662W        W23131   6.961   2.086  13.599  0.2548  0.0404 -0.0030
 7663W        W23132   4.574  12.318   1.950 -0.1451  0.1603 -0.2526
 7664W        W23133   7.318   7.063   3.604  0.2549  0.0599 -0.1558
 7665W        W23134  10.820  15.078   4.526 -0.1331 -0.2028 -0.0971
 7666W        W23135   3.816  12.651   4.022 -0.0235  0.2938  0.0846
 7667W        W23136   7.709   8.461  12.150  0.2098 -0.1163 -0.1606
 7668W        W23137  12.550   1.410  15.812 -0.0353  0.4013  0.2986
 7669W        W23138   6.198  13.565   5.358 -0.2027 -0.1746  0.0467
 7670W        W23139   9.703  15.665  12.441  0.4749  0.1739  0.0578
 7671W        W23140   1.734   9.775  14.091 -0.0803  0.2807 -0.1958
 7672W        W23141   4.219   3.034  12.319 -0.1199  0.2009 -0.1513
 7673W        W23142   6.711   0.910   2.775 -0.0143 -0.1523 -0.1282
 7674W        W23143  17.129   2.409   1.012 -0.0434 -0.0638 -0.1210
 7675W        W23144   5.089   6.786   1.537 -0.0257 -0.0600  0.4063
 7676W        W23145   5.647  16.987   6.203  0.0600  0.0402 -0.0208
 7677W        W23146  10.398  17.666   5.852  0.0471  0.3455  0.0681
 7678W        W23147   0.718   2.953  15.531  0.1484 -0.0116  0.1811
 7679W        W23148   1.489   5.294   3.799  0.1026  0.2029 -0.1994
 7680W        W23149   6.756   8.145  13.285  0.2646 -0.2348  0.0994
 7681W        W23150  14.194  13.538  11.654  0.1169  0.3910  0.0614
 7682W        W23151  13.475   2.290  13.951 -0.1217 -0.3356  0.0921
 7683W        W23152   5.366   0.978  14.734 -0.0580 -0.0106 -0.0044
 7684W        W23153   7.609  17.124   4.963 -0.0447  0.0513 -0.1076
 7685W        W23154   9.733  17.817  12.623  0.2093 -0.0543 -0.2517
 7686W        W23155  16.990  10.726   0.091  0.1813  0.0427  0.0003
 7687W        W23156   7.075   3.253  11.740 -0.1911 -0.0386 -0.1484
 7688W        W23157   2.357  17.081   5.403 -0.3568 -0.1994 -0.2366
 7689W        W23158  15.100  16.904   2.519 -0.2060  0.0108  0.1459
 7690W        W23159   4.673  10.688   0.220 -0.0413 -0.2631 -0.3194
 7691W        W23160  11.326  11.605   3.375  0.0236  0.1193  0.2140
 7692W        W23161  17.764  17.377   5.866  0.0862  0.3150 -0.0755
 7693W        W23162   0.803  11.578   2.731 -0.0588  0.1174  0.1527
 7694W        W23163   0.845   8.279   4.209  0.0182  0.1176  0.2041
 7695W        W23164  15.732   8.292  16.210  0.0852 -0.1169 -0.0224
 7696W        W23165  16.000  16.018  13.916  0.0789  0.0176 -0.0384
 7697W        W23166   8.542  10.388  11.416  0.1064 -0.0581  0.1790
 7698W        W23167   7.996   5.560   1.902  0.1280  0.1427  0.2056
 7699W        W23168  12.358   6.517   4.025  0.1189 -0.1341  0.0683
 7700W        W23169  17.751  16.023  16.496  0.2545 -0.3152  0.1237
 7701W        W23170   3.900   7.775  12.333 -0.3550  0.4808 -0.2756
 7702W        W23171   2.246   0.904  13.423  0.0882 -0.2901 -0.1874
 7703W        W23172   1.368   0.479   6.018 -0.2304  0.2707  0.1620
 7704W        W23173   8.216   8.110  11.356 -0.3302  0.0723  0.0301
 7705W        W23174   3.109  15.879  16.446  0.2487  0.0234  0.0989
 7706W        W23175   4.660  14.852  13.455  0.1189 -0.0443  0.2599
 7707W        W23176  13.624  15.167  16.344 -0.0086 -0.1720  0.0137
 7708W        W23177   1.375  17.178   0.833  0.0112  0.0362  0.2126
 7709W        W23178   7.771  14.557  14.815  0.2803  0.1187  0.0130
 7710W        W23179   8.468   4.974  14.551 -0.0830  0.0683 -0.0931
 7711W        W23180   5.447  14.227   0.436  0.0988  0.1463  0.1351
 7712W        W23181  14.137  16.723   5.826  0.0582 -0.1771 -0.2377
 7713W        W23182   2.520   2.677  11.232  0.1121 -0.1852 -0.1216
 7714W        W23183   9.355   2.374   1.371 -0.1711 -0.0982 -0.1787
 7715W        W23184  11.526   0.514  15.344  0.0039  0.1809 -0.1595
 7716W        W23185  11.583   2.801   0.025  0.0422  0.0599 -0.0409
 7717W        W23186  12.337   3.857  14.763 -0.0450  0.4227 -0.3374
 7718W        W23187   0.552  14.145   5.858 -0.2584 -0.2410  0.2197
 7719W        W23188   6.687   1.781  14.945  0.2901  0.1060  0.2482
 7720W        W23189  10.664   7.126  12.614 -0.0034  0.1658  0.0200
 7721W        W23190   0.931  15.013  14.655 -0.1214 -0.2133  0.2196
 7722W        W23191  11.383  16.578   1.727  0.2445  0.0951  0.0013
 7723W        W23192   0.801  13.084  16.604  0.1332 -0.0953  0.1877
 7724W        W23193   2.767   0.908   5.059 -0.0637  0.2201 -0.2885
 7725W        W23194   4.103   8.917  14.469 -0.0866 -0.0158 -0.0656
 7726W        W23195   4.453  16.059   3.052  0.2836  0.0036 -0.2511
 7727W        W23196   3.768   9.673   4.590  0.1522 -0.0486 -0.0546
 7728W        W23197   2.917   8.062  14.285  0.2810 -0.0010 -0.3798
 7729W        W23198   6.115   0.119   5.612 -0.1279  0.1867 -0.0058
 7730W        W23199   1.362  13.096   4.407 -0.1307 -0.0215 -0.3692
 7731W        W23200   4.060  17.567   5.505 -0.0143  0.3320 -0.4119
 7732W        W23201  13.865  17.567   3.647 -0.2817 -0.2481 -0.0809
 7733W        W23202   4.341  11.866  16.232 -0.0236  0.2479 -0.3853
 7734W        W23203   6.509  15.828   3.677  0.2633  0.1345  0.1954
 7735W        W23204   0.873   7.728  10.654  0.0095 -0.2315 -0.0954
 7736W        W23205  14.509   1.185   3.538 -0.2119  0.1822 -0.0400
 7737W        W23206  15.977  14.911   2.918 -0.1884 -0.0286 -0.1932
 7738W        W23207   7.263   1.469   1.998  0.1302  0.1251 -0.0169
 7739W        W23208   9.364  10.187   2.569  0.1972 -0.0712  0.0077
 7740W        W23209   5.173  15.254  14.865  0.0573  0.2653 -0.1492
 7741W        W23210  13.059   2.197  13.316 -0.0642 -0.4504 -0.0537
 7742W        W23211   9.567  16.413   1.083 -0.0234  0.0371  0.1369
 7743W        W23212   8.176  10.044  11.330 -0.2251  0.0731  0.2339
 7744W        W23213  15.259   8.361   3.559 -0.1936  0.0917 -0.1223
 7745W        W23214  15.073  11.894   4.546  0.0751  0.0568 -0.1078
 7746W        W23215  11.157   4.996  15.424 -0.0391 -0.0236  0.1929
 7747W        W23216  16.843  16.424   0.111 -0.1322 -0.1722 -0.1223
 7748W        W23217  14.802   6.197   9.665  0.0740  0.0878  0.1739
 7749W        W23218   4.862  12.253   2.494  0.0470 -0.0730  0.2167
 7750W        W23219  12.304   8.694  14.196 -0.1092 -0.2993 -0.0592
 7751W        W23220  16.708   7.630  12.969 -0.1488  0.0100  0.3933
 7752W        W23221   9.096  15.888   4.162  0.0356  0.0826  0.2413
 7753W        W23222  12.771  13.770  11.577 -0.0521  0.0458  0.3987
 7754W        W23223  15.854  17.203  15.822 -0.0112  0.0352 -0.0394
 7755W        W23224   5.113   4.742  16.602  0.0115 -0.1766  0.0984
 7756W        W23225   7.698  11.545   0.197  0.1786 -0.0276  0.1556
 7757W        W23226   4.292   0.001  12.998  0.2499 -0.5498  0.0843
 7758W        W23227  13.146   8.642   5.112  0.2337  0.1333 -0.0561
 7759W        W23228   0.758   9.020  12.027 -0.1033  0.1004 -0.1329
 7760W        W23229  12.169  11.868   1.971 -0.1311 -0.0729 -0.2685
 7761W        W23230   1.195   2.777   1.230  0.1936  0.1973 -0.2208
 7762W        W23231  10.356   4.632   0.796  0.1045  0.0727 -0.0135
 7763W        W23232   3.012   8.779   2.485 -0.0554  0.1495 -0.2074
 7764W        W23233   6.644  13.158   5.458  0.2786  0.3150  0.0158
 7765W        W23234  17.445  16.625   6.098 -0.0961 -0.2498  0.3019
 7766W        W23235   9.293  15.894  12.828 -0.1315 -0.2398  0.1720
 7767W        W23236   6.891   9.628  12.753  0.0534 -0.0651 -0.2663
 7768W        W23237  16.203   9.851  14.869 -0.0478  0.0808  0.2362
 7769W        W23238   0.980   4.122  15.162 -0.1526 -0.0499 -0.2641
 7770W        W23239   7.857  10.104  15.980  0.1756  0.2708  0.0414
 7771W        W23240   7.845  10.446   1.798 -0.1104  0.3183  0.0682
 7772W        W23241   6.152   2.288   0.593 -0.1264 -0.4222  0.1255
 7773W        W23242  12.615  16.460   4.622  0.1073 -0.0038 -0.1733
 7774W        W23243   0.201   7.155   5.177 -0.5175  0.3818 -0.2501
 7775W        W23244  15.205   9.713  13.349  0.1119 -0.0638 -0.0451
 7776W        W23245  14.079   3.917   2.466  0.0216  0.1605 -0.0745
 7777W        W23246  12.530   7.264  16.305  0.1267 -0.0333 -0.1367
 7778W        W23247  15.339   2.516   0.683 -0.3171 -0.1805  0.1033
 7779W        W23248   7.591   0.446   0.234 -0.0529 -0.1843  0.0200
 7780W        W23249   0.966  17.367   2.138 -0.0054  0.1050 -0.3298
 7781W        W23250  13.566   8.447   0.228 -0.0138 -0.1742 -0.2484
 7782W        W23251   2.583   4.843  12.035 -0.0337 -0.0010  0.2404
 7783W        W23252  13.115   0.372  13.109 -0.1867  0.1208  0.0346
 7784W        W23253   4.324  13.616   1.934  0.0394 -0.2306 -0.1281
 7785W        W23254   1.416   3.015   0.006 -0.0554  0.1930  0.0017
 7786W        W23255   1.422   7.478  11.297  0.1259 -0.0181 -0.0317
 7787W        W23256  17.962  10.033   0.013  0.0213 -0.1564  0.1277
 7788W        W23257   7.149   9.901   3.033 -0.1554  0.2657 -0.0562
 7789W        W23258  13.272   4.351  15.550 -0.2623  0.0053  0.0818
 7790W        W23259  12.602   6.492   2.651 -0.0321 -0.2880 -0.2724
 7791W        W23260  11.188  11.163   3.613  0.2114 -0.4374 -0.0440
 7792W        W23261   7.084  12.974   4.864  0.0845 -0.4862 -0.0729
 7793W        W23262  13.929  13.852   3.423 -0.1113  0.1512  0.3163
 7794W        W23263   7.699  17.731  13.479 -0.2888 -0.0557  0.2178
 7795W        W23264  14.698  11.670  12.724  0.0252 -0.1132 -0.2189
 7796W        W23265  17.824   3.198   4.819 -0.1236 -0.1847  0.0214
 7797W        W23266   3.184  12.877  16.036 -0.2296 -0.2430  0.0904
 7798W        W23267  16.444  10.919  16.050 -0.0726 -0.3788  0.0451
 7799W        W23268   4.602  10.827  13.272  0.1924  0.0955  0.0079
 7800W        W23269   2.201   4.265  15.387  0.1399 -0.1742  0.1661
 7801W        W23270   5.639  16.205  14.999 -0.1512 -0.1162  0.2769
 7802W        W23271   1.412   4.934   2.286  0.1311 -0.1223 -0.2806
 7803W        W23272   2.504   2.136   2.236 -0.2909 -0.0701 -0.0083
 7804W        W23273  16.805  17.769  13.251 -0.2271  0.1069  0.2530
 7805W        W23274   3.437   6.988  14.764 -0.0956  0.1602  0.1184
 7806W        W23275  14.924  14.755   3.856 -0.1330  0.1809 -0.0108
 7807W        W23276   6.851   1.287  12.742  0.0704 -0.3348 -0.1166
 7808W        W23277   5.561  11.198   3.223 -0.2271  0.4173 -0.1568
 7809W        W23278   4.890   6.940   4.334  0.1012 -0.0757 -0.1757
 7810W        W23279  10.774   0.218  15.945 -0.0816  0.0188  0.5650
 7811W        W23280   8.231   1.973   4.251  0.0282 -0.0043  0.1342
 7812W        W23281  10.692   2.099  12.033  0.3165  0.0795 -0.2547
 7813W        W23282   9.979   5.879   1.104 -0.2647 -0.2128  0.0439
 7814W        W23283   3.703  10.078  11.696  0.0712 -0.3974  0.0606
 7815W        W23284   2.299   0.883   0.046  0.0661 -0.0611  0.1672
 7816W        W23285   6.390  14.406  13.256  0.1524 -0.1665  0.1472
 7817W        W23286   4.871  12.706   4.047  0.0463  0.0937 -0.0275
 7818W        W23287  10.138  12.057  15.155 -0.1953 -0.2344  0.0177
 7819W        W23288   0.147   9.982   4.064 -0.0139 -0.1034 -0.0549
 7820W        W23289  16.919  16.832  12.418  0.4179 -0.2953 -0.2134
 7821W        W23290  14.035   3.457   2.836 -0.0827 -0.0543  0.0541
 7822W        W23291  12.549   2.899  15.002  0.1104  0.1442 -0.0506
 7823W        W23292  17.539   1.672   1.116  0.0106  0.0799  0.3581
 7824W        W23293   1.216   7.442   1.282  0.1566  0.1718  0.1716
 7825W        W23294   9.568   2.124  12.065  0.0785  0.0285 -0.0840
 7826W        W23295   9.048  12.290  15.453 -0.0563 -0.0559 -0.0641
 7827W        W23296   5.997   2.017   2.669 -0.0103  0.1010 -0.1775
 7828W        W23297  16.115   2.273   0.179  0.1697 -0.1283 -0.0484
 7829W        W23298   7.694   4.538  14.480 -0.0323  0.0588  0.0436
 7830W        W23299   2.838  16.416  12.811  0.1788 -0.0363  0.0937
 7831W        W23300   6.789   4.901  11.705 -0.1005 -0.3272  0.2071
 7832W        W23301  14.668   8.483  14.836  0.1425 -0.1576 -0.2028
 7833W        W23302  11.354   8.978  15.274  0.0581  0.3329  0.1970
 7834W        W23303   6.878   8.523  16.271 -0.0398  0.2120 -0.2912
 7835W        W23304   6.471   9.239  11.921  0.2336 -0.2435  0.2732
 7836W        W23305   9.269  12.796   5.052  0.0275  0.1282 -0.5974
 7837W        W23306   9.186   4.940   4.394  0.3659 -0.2543 -0.2513
 7838W        W23307   6.506  13.604  12.263  0.1705  0.0279  0.0742
 7839W        W23308   4.701  12.833   1.536  0.0301 -0.0750  0.0388
 7840W        W23309  10.354  15.599  11.585  0.2016  0.2057  0.1924
 7841W        W23310  13.744   2.375   2.006  0.1930 -0.0068 -0.1038
 7842W        W23311   2.408   3.312   1.882 -0.0295  0.2235 -0.2907
 7843W        W23312  14.979  10.116  16.221 -0.1705 -0.0487 -0.0559
 7844W        W23313   1.959  12.473   2.896  0.0072  0.2085 -0.0594
 7845W        W23314   3.704   0.928   4.103  0.4261 -0.4686  0.0031
 7846W        W23315   1.046  14.465  15.563  0.0537 -0.0747 -0.3281
 7847W        W23316  10.937  14.486   3.314 -0.2772  0.1269 -0.0316
 7848W        W23317  11.611  13.046  13.617  0.3291 -0.1242  0.0674
 7849W        W23318   6.711  10.773   0.517  0.0892 -0.0264 -0.0561
 7850W        W23319   0.711   6.258   0.251  0.0976 -0.0680 -0.0792
 7851W        W23320   5.118  17.379   4.181 -0.3216  0.1572  0.1344
 7852W        W23321   0.242   3.937   9.759 -0.0177 -0.0132 -0.0218
 7853W        W23322   0.355   8.642   0.942  0.0292 -0.3174 -0.0414
 7854W        W23323   3.991   8.134  10.996  0.1371  0.3244  0.1758
 7855W        W23324  12.482   9.571  11.651  0.4149  0.3406  0.1321
 7856W        W23325   6.452  11.216   2.870 -0.0047 -0.1329 -0.0693
 7857W        W23326   6.119   7.083  12.900  0.1763  0.0158 -0.1330
 7858W        W23327   0.309   9.560  12.618  0.2819  0.2197  0.2304
 7859W        W23328  11.191   6.564   3.299 -0.1208 -0.1584 -0.1667
 7860W        W23329   7.185  11.949   4.747 -0.0311  0.1597  0.2076
 7861W        W23330   5.634   6.425  14.142 -0.2924 -0.1018  0.0592
 7862W        W23331   2.695   2.806   2.114  0.0047 -0.1803 -0.0789
 7863W        W23332   6.617  13.388   0.678  0.1836  0.0294 -0.2857
 7864W        W23333   3.614  10.089  15.592  0.0215 -0.1684  0.0314
 7865W        W23334   2.687  17.440  16.379 -0.1567  0.1151 -0.1908
 7866W        W23335   5.697  13.876   2.204 -0.1236 -0.0381  0.0254
 7867W        W23336   5.479  16.608   0.844 -0.1974  0.1300  0.0327
 7868W        W23337   2.597   2.367  14.633  0.1198  0.2979  0.0829
 7869W        W23338  13.055   9.357   0.359  0.1048  0.0582 -0.1453
 7870W        W23339  12.633   5.893  11.875 -0.0663  0.1714  0.0729
 7871W        W23340  11.462   3.649   3.988 -0.1294 -0.0649  0.0197
 7872W        W23341  15.761  10.233  11.469  0.0283  0.1825 -0.2877
 7873W        W23342  14.122   5.230  14.016  0.1827 -0.0641 -0.1080
 7874W        W23343   9.565  17.857  13.173  0.0276 -0.2567 -0.0195
 7875W        W23344   8.741  15.768  15.664 -0.1603 -0.0847 -0.2147
 7876W        W23345  11.015  12.522  13.527 -0.0323 -0.0698  0.2133
 7877W        W23346  17.225   8.671  12.140 -0.0791  0.2651 -0.0180
 7878W        W23347   6.443   7.169   1.639  0.1226 -0.0813  0.3653
 7879W        W23348   5.296  14.160   4.172 -0.1947  0.0103 -0.1118
 7880W        W23349  15.571  12.452  12.669  0.0325 -0.2629 -0.0724
 7881W        W23350  13.607   7.190  14.909  0.0242 -0.1215  0.1888
 7882W        W23351   5.067  13.304  13.869  0.0125  0.2583  0.2090
 7883W        W23352   1.870   2.844  14.620  0.0531 -0.0574  0.1445
 7884W        W23353   8.724  14.604   4.071  0.0252 -0.2009 -0.1967
 7885W        W23354  16.818  15.618  14.131  0.1375  0.0109  0.2030
 7886W        W23355   1.598   5.841   4.307 -0.0178 -0.3092 -0.0944
 7887W        W23356  10.929  10.936   4.060 -0.0038 -0.1566  0.0753
 7888W        W23357   0.253  12.834   2.129 -0.2080 -0.1878  0.2205
 7889W        W23358  16.275   9.593  13.547  0.1472  0.0519 -0.1195
 7890W        W23359   8.248   1.596  14.897 -0.0799  0.0600 -0.1725
 7891W        W23360  12.013  13.342  11.875  0.2601 -0.0990 -0.2448
 7892W        W23361   5.384   2.468   2.173 -0.0266 -0.0747  0.0299
 7893W        W23362   1.654   6.746  14.036  0.0776  0.0364  0.0230
 7894W        W23363   3.952  12.660  14.349  0.0969 -0.3191  0.0605
 7895W        W23364  17.375   3.424   1.986  0.0183 -0.0425 -0.0998
 7896W        W23365   3.401   5.864   4.591 -0.4313  0.2527 -0.1293
 7897W        W23366   4.729   3.623  16.377 -0.0935 -0.2350 -0.0379
 7898W        W23367   9.078   5.400  12.708  0.0809  0.2093  0.0729
 7899W        W23368   7.527   1.407  15.889  0.1243 -0.0031 -0.0527
 7900W        W23369   7.649  14.837   1.983  0.0309  0.1804  0.1352
 7901W        W23370   8.107   3.119  11.827 -0.1541  0.4029  0.2130
 7902W        W23371  12.710   2.835   3.156 -0.1488 -0.1989 -0.0306
 7903W        W23372  10.114  11.623  12.966  0.3013  0.0678 -0.0267
 7904W        W23373   2.758   1.258   6.029 -0.1593  0.0096 -0.0856
 7905W        W23374   4.669  14.618  11.734  0.0240 -0.0655  0.3731
 7906W        W23375   1.147   9.126   2.584  0.3009  0.0634 -0.3098
 7907W        W23376  14.796   3.411   3.591  0.0422 -0.0374  0.0396
 7908W        W23377   2.290   7.888  15.690  0.0142 -0.0091 -0.3455
 7909W        W23378  16.826   0.367  13.832 -0.2285 -0.3023  0.1253
 7910W        W23379  13.427   1.876   6.415 -0.0389 -0.0012  0.0605
 7911W        W23380   9.150   1.596  11.399  0.2677 -0.0767 -0.1119
 7912W        W23381  16.407  10.429  13.777  0.0184  0.1166  0.0648
 7913W        W23382   3.672  12.568   2.351  0.4268  0.1552 -0.0426
 7914W        W23383  12.925   7.663   0.533  0.0786 -0.4164  0.0400
 7915W        W23384   4.882   2.494  11.618 -0.2801  0.1045 -0.1334
 7916W        W23385   3.974   3.428   4.378  0.0831 -0.1191  0.0311
 7917W        W23386   6.370  10.361  14.631 -0.3105  0.1586  0.2210
 7918W        W23387  12.448   0.719   4.732  0.1030  0.1026 -0.2484
 7919W        W23388  13.291   3.725  14.268  0.0062  0.2807  0.5329
 7920W        W23389  13.743   6.232   2.705 -0.2682 -0.2581  0.0494
 7921W        W23390   0.940   6.041  11.919 -0.3000  0.3033  0.0691
 7922W        W23391  15.847   5.989  14.804  0.0510  0.0278  0.1186
 7923W        W23392   4.739  15.479  15.831 -0.0865 -0.0251 -0.0514
 7924W        W23393  12.667  11.767  14.387 -0.2506  0.0936  0.0056
 7925W        W23394   5.823  10.171  11.216  0.2324  0.0633  0.1411
 7926W        W23395  11.901  14.150   1.602 -0.0033 -0.0559  0.0809
 7927W        W23396   4.593  14.427   6.268  0.3402 -0.2288  0.0887
 7928W        W23397  17.993  17.431  12.450  0.0562  0.1800 -0.0438
 7929W        W23398  10.265  11.002  13.056 -0.1747 -0.0084  0.1002
 7930W        W23399  15.846  15.305  12.803  0.1416  0.2574 -0.1433
 7931W        W23400   8.396   9.883   3.560  0.0924 -0.1718 -0.0629
 7932W        W23401  14.245  16.556   3.571 -0.0227 -0.0950 -0.1261
 7933W        W23402  11.298  13.587  15.257 -0.0067  0.0348 -0.0210
 7934W        W23403  15.926  15.774   5.840  0.0421  0.1502 -0.0033
 7935W        W23404   0.731  16.524   1.260  0.1539 -0.2637  0.0335
 7936W        W23405   8.541   8.220  12.901 -0.0555  0.0148  0.1698
 7937W        W23406  16.658  15.269   4.097  0.0209 -0.0800  0.3038
 7938W        W23407   4.808   8.318  16.484  0.0958  0.3677  0.0360
 7939W        W23408   0.081   8.129   1.713  0.1816  0.0854 -0.0364
 7940W        W23409   8.799   8.603  15.004 -0.3914 -0.1389 -0.3066
 7941W        W23410  14.039  13.622  14.016  0.0498 -0.1573 -0.0064
 7942W        W23411  14.359  11.619  15.824 -0.2393 -0.1816 -0.1339
 7943W        W23412  17.631   6.495   3.682  0.1241 -0.0638 -0.1958
 7944W        W23413  16.929  10.100   2.912 -0.2460 -0.2047 -0.2913
 7945W        W23414   4.111  17.896  14.012  0.4033  0.1380  0.1098
 7946W        W23415  17.491   4.102   1.198 -0.3210 -0.0130 -0.1643
 7947W        W23416  17.607  11.572   5.415 -0.0743 -0.1527 -0.1484
 7948W        W23417   9.013  17.508  11.826 -0.2744 -0.1454  0.1667
 7949W        W23418  10.577   6.365  13.054  0.0777  0.2056  0.1977
 7950W        W23419   7.452  16.795  14.140  0.2525 -0.0616  0.3039
 7951W        W23420  17.178   0.890   2.948  0.0296 -0.0121 -0.0566
 7952W        W23421  13.651  15.568  11.700 -0.1003 -0.2267 -0.0423
 7953W        W23422   6.941   6.465   5.374 -0.1249 -0.1097  0.0424
 7954W        W23423   4.791  17.693   5.095 -0.3001 -0.2860 -0.0690
 7955W        W23424   2.070  17.711   6.166 -0.3845 -0.1976 -0.0548
 7956W        W23425  10.006   3.589  11.295  0.2637 -0.1175  0.0773
 7957W        W23426  15.057   5.231   4.271  0.0372  0.0337  0.3833
 7958W        W23427  10.518   4.445  15.960 -0.0458  0.2479 -0.0472
 7959W        W23428   0.058  14.890  14.194 -0.1757 -0.0500 -0.1020
 7960W        W23429  11.662  10.860  14.023  0.0332  0.3156  0.1926
 7961W        W23430  11.111  14.774   3.677 -0.0474  0.1198 -0.0482
 7962W        W23431  17.682   9.791  11.163 -0.1281 -0.1356 -0.4245
 7963W        W23432  13.609  10.534  15.605  0.3929  0.0342 -0.0723
 7964W        W23433   0.674  11.906   1.426 -0.2098  0.0501  0.3281
 7965W        W23434  17.831   7.120   3.006 -0.1990  0.1512 -0.1121
 7966W        W23435   8.011   5.526  14.257  0.1896  0.2233  0.2641
 7967W        W23436  13.644  17.323  11.384  0.0871  0.4605 -0.1620
 7968W        W23437  11.834  12.944  11.593 -0.0794 -0.2752 -0.2531
 7969W        W23438  15.860   4.171  16.563  0.2357 -0.0653 -0.0313
 7970W        W23439  13.976   4.208   0.674 -0.3366 -0.2481 -0.2494
 7971W        W23440  12.179   2.408   1.215 -0.0466  0.0696 -0.3466
 7972W        W23441   2.151  15.762  13.151  0.0668 -0.1769  0.0729
 7973W        W23442   0.018   0.485  16.346  0.2187  0.1929 -0.0926
 7974W        W23443  17.173   8.994   3.926 -0.1208  0.1315 -0.2291
 7975W        W23444   6.984   7.810   4.563 -0.0954 -0.3660  0.0995
 7976W        W23445  10.874   0.213  14.975 -0.0946 -0.0252 -0.0336
 7977W        W23446   2.857  14.984   0.459  0.1007  0.0220  0.1915
 7978W        W23447   7.842   2.255   2.852 -0.2449 -0.1821 -0.0800
 7979W        W23448   2.890  17.129   3.741 -0.3209 -0.0469  0.0254
 7980W        W23449   4.295   6.422   1.557  0.1689  0.2393 -0.1136
 7981W        W23450   7.721   7.774  14.648  0.0260 -0.1413 -0.0871
 7982W        W23451   7.503  16.134   5.471  0.0817  0.1660  0.2011
 7983W        W23452  17.651   7.736  16.442  0.0487  0.2747 -0.1345
 7984W        W23453   1.858  17.357   2.469 -0.1117 -0.1591  0.1293
 7985W        W23454  12.419   8.977  15.764 -0.1858  0.2644  0.2045
 7986W        W23455  14.391  14.869   0.450  0.0527 -0.0881 -0.3013
 7987W        W23456  15.872   2.762   4.751  0.2068 -0.0393  0.4667
 7988W        W23457   4.030   8.941   0.790  0.1144 -0.0698  0.0085
 7989W        W23458  13.183   2.795   2.020  0.1444 -0.1989  0.1118
 7990W        W23459  14.698   0.939   1.168 -0.2137  0.2250  0.1863
 7991W        W23460   4.353   1.212  12.322 -0.1702  0.1799  0.1654
 7992W        W23461  12.232   6.171   2.253 -0.0138  0.3353  0.0541
 7993W        W23462   9.456   2.018   5.909 -0.1067  0.1007  0.2253
 7994W        W23463  14.117  12.839  15.421 -0.2190 -0.1103 -0.0242
 7995W        W23464   8.444  17.745   2.857  0.2916  0.2586 -0.3634
 7996W        W23465   4.051  12.160  13.235  0.0192 -0.0647  0.0804
 7997W        W23466   4.870  14.538  14.306 -0.0896 -0.0193  0.3695
 7998W        W23467  11.888   9.238   3.624 -0.1141  0.3906 -0.0039
 7999W        W23468   4.032   2.947  11.752 -0.2619 -0.0457  0.0292
 8000W        W23469   3.381   1.667   3.629  0.2646 -0.0240  0.0638
 8001W        W23470  11.304  15.831   4.306 -0.0561  0.1159 -0.4057
 8002W        W23471  17.878   6.888   2.171  0.3005  0.0324 -0.2746
 8003W        W23472  15.272  15.617  13.640 -0.2347 -0.1511  0.1970
 8004W        W23473   6.058   2.790  12.352  0.2822  0.0081 -0.2066
 8005W        W23474   9.261   7.706   2.182  0.3078  0.2207 -0.1895
 8006W        W23475  17.560   1.200   0.225 -0.0258  0.1256 -0.1088
 8007W        W23476   3.092   2.713  15.351  0.0751  0.3165  0.0237
 8008W        W23477  10.404   6.676   4.433  0.0506  0.0094 -0.0186
 8009W        W23478   9.055  10.067  13.002 -0.1184 -0.0189 -0.0754
 8010W        W23479  14.548   3.241  15.756 -0.1745 -0.2189  0.1020
 8011W        W23480   0.616  11.781   4.343  0.2368 -0.1191 -0.1689
 8012W        W23481  10.688  10.306  13.133 -0.2606 -0.1501 -0.0002
 8013W        W23482  14.914   3.928  11.066  0.1086  0.1204 -0.1834
 8014W        W23483   8.323  11.762   0.147 -0.0227  0.0130 -0.0198
 8015W        W23484  12.906   4.056   1.823  0.5347  0.0117  0.3399
 8016W        W23485   4.535  13.099  13.821  0.0058 -0.2471 -0.2436
 8017W        W23486  13.297   4.738  15.959 -0.0489  0.2119 -0.4274
 8018W        W23487  12.498  13.042  16.361 -0.0699 -0.4132  0.3573
 8019W        W23488   5.567   4.084   2.334 -0.2552 -0.1000 -0.2561
 8020W        W23489  14.741  11.783  12.248  0.3364 -0.2008  0.0839
 8021W        W23490  10.464   0.379   3.701 -0.1944  0.2405  0.2039
 8022W        W23491   8.427   9.932  10.928 -0.0235  0.2392 -0.0180
 8023W        W23492  17.408  16.056  13.905 -0.1808 -0.0141 -0.2225
 8024W        W23493   5.900  17.136   2.919  0.1849 -0.1172  0.1371
 8025W        W23494  15.847  17.469  12.593 -0.1191 -0.2572 -0.4245
 8026W        W23495   5.625   5.790   2.637 -0.0611  0.1381  0.0359
 8027W        W23496  16.027  11.759   0.672  0.2220 -0.1295  0.2986
 8028W        W23497  17.948   0.816  12.643  0.0975  0.1571  0.1638
 8029W        W23498  16.320   7.332  16.500  0.0407  0.1169  0.5459
 8030W        W23499   8.007   4.712   3.452  0.2277 -0.1028  0.0545
 8031W        W23500   5.778  14.442   3.383  0.0239  0.1866 -0.1880
 8032W        W23501   1.637   8.184   3.599 -0.1499 -0.0440 -0.1106
 8033W        W23502  17.928  12.130  15.804 -0.0493  0.2153 -0.2284
 8034W        W23503   5.434   0.625   2.273  0.1392 -0.0172  0.1883
 8035W        W23504   9.437   5.267   5.179 -0.1813 -0.1802  0.0168
 8036W        W23505  16.378   9.185   4.090  0.0259 -0.1975 -0.0566
 8037W        W23506   4.713  12.770  14.547  0.2938  0.5600  0.0868
 8038W        W23507   4.963   2.950   0.821 -0.2517 -0.0504  0.0732
 8039W        W23508   9.867   8.380   5.427 -0.0926  0.1015 -0.0657
 8040W        W23509  15.233   8.616   0.961 -0.0142 -0.0989  0.0219
 8041W        W23510  16.044   7.502   5.879  0.2455 -0.2665  0.1707
 8042W        W23511   8.269  17.207  14.174 -0.4601 -0.3170 -0.0985
 8043W        W23512   9.576  16.954  12.900 -0.0681 -0.0429 -0.1080
 8044W        W23513  16.192   7.810  10.085  0.3305  0.1094 -0.4779
 8045W        W23514  12.932   7.007  11.217 -0.3153 -0.1235 -0.0214
 8046W        W23515  10.168   3.342   2.867 -0.3564 -0.0511  0.0762
 8047W        W23516  15.726   1.179   2.347 -0.2521 -0.2061  0.1981
 8048W        W23517   4.436   1.398  14.367  0.2785  0.0297  0.0704
 8049W        W23518   5.978   4.036  15.955  0.0487  0.1200 -0.0976
 8050W        W23519   7.440   2.447  12.176  0.0877 -0.3041 -0.1231
 8051W        W23520   6.947  12.061   5.229  0.1413  0.1039 -0.2019
 8052W        W23521  12.489  17.380   4.792  0.0772  0.1042  0.1285
 8053W        W23522  17.214   5.699   0.261  0.1808 -0.1077 -0.3129
 8054W        W23523   0.423  11.462   1.582 -0.1445 -0.0780 -0.0715
 8055W        W23524  15.532   5.870   2.317  0.1039 -0.2595 -0.0599
 8056W        W23525   4.736   6.677   2.764 -0.2175 -0.5196  0.0918
 8057W        W23526   6.730   2.652   3.195  0.1560  0.1277  0.0013
 8058W        W23527   3.740   5.370   1.530  0.0327 -0.0471  0.1004
 8059W        W23528   8.197  15.773  12.409 -0.0315 -0.1568 -0.3316
 8060W        W23529   5.925  16.794  15.633 -0.2580  0.3085 -0.2436
 8061W        W23530   7.656  12.290   5.398 -0.1000 -0.0746 -0.0312
 8062W        W23531  14.463  14.845   4.000  0.1926  0.0381 -0.0148
 8063W        W23532  10.758  18.001   4.632  0.0800 -0.0834 -0.0545
 8064W        W23533  12.465  16.767   1.029  0.1422 -0.1237 -0.2652
 8065W        W23534   0.742  12.056  15.451 -0.1386  0.1082 -0.0360
 8066W        W23535  11.973  11.408   5.181 -0.1893  0.1506 -0.1740
 8067W        W23536  12.272   6.549  13.494  0.0399 -0.0061 -0.2172
 8068W        W23537   9.974   7.199  16.035 -0.1655  0.1826  0.0780
 8069W        W23538   4.658  12.997  12.173  0.1402 -0.0697  0.1879
 8070W        W23539  15.078  16.534   2.165  0.0002 -0.1616  0.1196
 8071W        W23540   6.802   9.680  14.471  0.0901 -0.3116  0.0152
 8072W        W23541   9.219   3.641  13.775 -0.0624 -0.0474  0.1236
 8073W        W23542   7.601   3.887   3.867 -0.1860  0.3550 -0.0746
 8074W        W23543   6.530  16.928  13.092 -0.0625 -0.0535  0.0029
 8075W        W23544   1.657  17.872  13.294  0.0576  0.3924  0.0497
 8076W        W23545  13.025  13.930   5.466 -0.0236  0.1014  0.2227
 8077W        W23546  16.660   5.923   0.540 -0.1713  0.0468 -0.1920
 8078W        W23547   1.743  13.431  16.000  0.0179  0.0588  0.3827
 8079W        W23548  10.602   8.340  15.506 -0.1015  0.1204 -0.0404
 8080W        W23549   2.606   9.707  14.720 -0.0921  0.0291 -0.3099
 8081W        W23550   6.704   7.183  15.147 -0.1929  0.0089  0.0389
 8082W        W23551  16.949   6.685  15.149 -0.1231  0.0780  0.1659
 8083W        W23552   8.707   5.099  12.389  0.0599  0.2036 -0.0026
 8084W        W23553   1.996   0.219  14.565 -0.0330 -0.2342  0.2331
 8085W        W23554  15.298   2.872  16.237 -0.0386  0.2314  0.0435
 8086W        W23555   8.716   6.560   4.293 -0.1837 -0.1736 -0.5515
 8087W        W23556   0.442   9.231  11.119  0.2796  0.0734 -0.0029
 8088W        W23557  17.340  10.378  12.800  0.3830 -0.0490 -0.1132
 8089W        W23558   6.964   7.407   4.982 -0.0553  0.1213 -0.2548
 8090W        W23559   7.879  11.057  11.935  0.1878  0.1365 -0.0831
 8091W        W23560  12.273  10.820  15.550  0.0448  0.1461  0.0229
 8092W        W23561   9.028  12.375   3.400  0.0458  0.0544 -0.1534
 8093W        W23562   3.845  17.062   1.023  0.0826  0.1670 -0.1620
 8094W        W23563   9.565   0.088  13.634  0.0055  0.0189 -0.1511
 8095W        W23564   7.269   4.738   1.783 -0.0389 -0.0421 -0.2530
 8096W        W23565  13.011   4.507   4.821  0.3948 -0.4053 -0.2735
 8097W        W23566   6.186  17.646   2.811 -0.0756  0.1306 -0.0905
 8098W        W23567   4.802  16.642  14.818 -0.1201 -0.0075  0.1498
 8099W        W23568   3.830   8.039   4.751  0.1436 -0.0161  0.0464
 8100W        W23569  15.726  13.260  13.344  0.4743 -0.3191 -0.0938
 8101W        W23570   7.452   8.218   5.800  0.1034 -0.2283  0.1609
 8102W        W23571  12.688   8.906  11.956 -0.1524  0.3202  0.1831
 8103W        W23572   9.862   6.856   2.178 -0.3519  0.1302  0.1262
 8104W        W23573  10.836   7.504   1.866  0.1685 -0.1661  0.0475
 8105W        W23574   0.277   7.369   0.164  0.1539  0.1910 -0.0535
 8106W        W23575   6.589   3.583  10.686  0.2573 -0.1683 -0.0894
 8107W        W23576  15.061   9.147  12.174  0.3023  0.0595  0.0922
 8108W        W23577   3.534  15.058  13.165  0.1121 -0.0699 -0.1842
 8109W        W23578  16.414   6.756  14.091  0.2820  0.1884 -0.2762
 8110W        W23579   4.951   0.502   4.546 -0.3029  0.0992  0.0291
 8111W        W23580   3.420  11.389  11.557  0.2287  0.1481 -0.0051
 8112W        W23581  16.961   2.988  15.917  0.3648 -0.1981  0.0665
 8113W        W23582   3.805  12.521   0.086 -0.0004  0.1156  0.0675
 8114W        W23583  11.199   2.470   4.976  0.0134  0.0533 -0.0682
 8115W        W23584  10.682   3.752   4.996  0.0639  0.1074  0.1463
 8116W        W23585  17.120   4.962  11.688 -0.0959  0.0385 -0.1168
 8117W        W23586  13.081   7.640   1.466 -0.2605 -0.0221 -0.0566
 8118W        W23587  10.462  10.229  14.763 -0.3423 -0.2414 -0.2476
 8119W        W23588   5.653   6.284   5.264 -0.1595  0.2374  0.1174
 8120W        W23589  13.855  12.219   1.262  0.0200 -0.1316  0.0100
 8121W        W23590  15.973   8.060   3.067  0.0406  0.4298  0.0521
 8122W        W23591   6.662   3.704  11.993  0.0290  0.0476 -0.0710
 8123W        W23592   5.502  17.804   4.587 -0.1332  0.0851 -0.0093
 8124W        W23593   1.193   5.653   4.080  0.3814  0.0572  0.2786
 8125W        W23594  17.574   6.066   5.613  0.1840 -0.2197  0.0571
 8126W        W23595   2.383  16.581  16.240  0.1349  0.0557 -0.0986
 8127W        W23596   7.778   5.779  11.664 -0.2691  0.1356 -0.0693
 8128W        W23597  16.233   7.852  13.071 -0.1345  0.3873 -0.1840
 8129W        W23598   4.032   4.334  12.925  0.0376 -0.1610 -0.0748
 8130W        W23599   6.452  14.932   5.848  0.0515  0.0388 -0.4544
 8131W        W23600   5.766   2.343   0.910 -0.1736  0.2318  0.1503
 8132W        W23601   7.898  12.169  11.056  0.1508  0.1658 -0.2981
 8133W        W23602  10.414   8.337   3.770  0.0665  0.1442 -0.3858
 8134W        W23603  11.428   0.155  14.866  0.3167 -0.0487 -0.2824
 8135W        W23604   8.831  15.218  12.995  0.3962  0.0527 -0.0452
 8136W        W23605   2.858  16.121   5.871 -0.0026  0.1653 -0.5668
 8137W        W23606   2.992   0.857   1.858  0.1444 -0.2818 -0.2083
 8138W        W23607   0.456   1.661   1.043 -0.2667  0.2954  0.2496
 8139W        W23608   9.531   4.772  14.526 -0.0425 -0.1050  0.0761
 8140W        W23609   2.054   4.740  15.234 -0.3542 -0.2268 -0.4328
 8141W        W23610   5.029  17.298   1.727 -0.1221 -0.1660 -0.1722
 8142W        W23611   5.608   9.961  11.684  0.0936  0.1283 -0.0455
 8143W        W23612  17.704  11.967  14.987  0.1022 -0.0155  0.0239
 8144W        W23613  11.525   1.092  11.851  0.0369  0.0288  0.1188
 8145W        W23614   2.791  12.686   0.598  0.2563  0.0031 -0.0586
 8146W        W23615   4.004  10.431   0.507 -0.0392 -0.3079  0.0638
 8147W        W23616   5.033  18.001  12.302  0.1281 -0.1802  0.1803
 8148W        W23617   0.620   5.456   0.119 -0.0063  0.1753  0.0735
 8149W        W23618   6.893   2.597  16.155  0.2943  0.0261  0.0252
 8150W        W23619  12.284  10.057  15.816  0.3766 -0.0082  0.0938
 8151W        W23620   5.912   3.312  12.957 -0.1404 -0.1553 -0.1533
 8152W        W23621   4.066  10.821  14.041 -0.0855 -0.1257  0.1479
 8153W        W23622   7.209   0.548  12.347 -0.2230 -0.1743  0.4780
 8154W        W23623   6.216  16.165  13.551  0.0736  0.3874  0.0510
 8155W        W23624   1.696   4.699  13.108 -0.2512 -0.2502 -0.1312
 8156W        W23625   5.720  13.490   3.652 -0.0190 -0.4601  0.0092
 8157W        W23626   0.910   5.918   3.310  0.1560  0.1082 -0.0302
 8158W        W23627   9.651  17.357   1.610  0.1104  0.3792  0.3065
 8159W        W23628  13.398   9.603   1.986  0.0424  0.0148  0.1297
 8160W        W23629   2.520  13.943   5.079  0.2074 -0.4861  0.3107
 8161W        W23630  11.818   5.711  11.257 -0.3426 -0.0024 -0.1033
 8162W        W23631   4.605   6.587   2.278 -0.2183 -0.0250 -0.0211
 8163W        W23632   1.327  17.847  13.653  0.0805 -0.4693 -0.1162
 8164W        W23633  10.564  14.496  11.841  0.0670 -0.0517  0.4786
 8165W        W23634  15.010   1.435   4.773  0.1232 -0.1403  0.0056
 8166W        W23635   6.602  11.721  12.246  0.1914 -0.0954 -0.0486
 8167W        W23636  17.201  15.526  12.686  0.2617 -0.1860 -0.2314
 8168W        W23637   8.400   5.742  11.066 -0.0623  0.1335  0.0299
 8169W        W23638   9.880  16.503   2.282  0.3283  0.4902  0.3524
 8170W        W23639   0.336   1.137   3.654 -0.0742  0.0752  0.2933
 8171W        W23640   8.003   2.910  15.378 -0.6071  0.4194 -0.2752
 8172W        W23641   0.409   9.770   5.170 -0.1648 -0.1847 -0.1569
 8173W        W23642   2.339   6.954   4.359 -0.1090 -0.0399  0.1059
 8174W        W23643  11.829   9.089   4.932 -0.0305 -0.0712  0.0732
 8175W        W23644   6.364  12.171  11.583 -0.1483  0.1922  0.1252
 8176W        W23645  14.719  13.031   3.664  0.1433 -0.0695 -0.2273
 8177W        W23646  11.260  16.223  13.032 -0.1346  0.1710 -0.1634
 8178W        W23647   9.139   7.705  16.331  0.2473  0.0841  0.3115
 8179W        W23648  17.993  11.080  15.798 -0.3002 -0.0279 -0.2446
 8180W        W23649   5.083  15.053  10.345 -0.4946  0.1036 -0.0129
 8181W        W23650  17.356  15.518  16.528 -0.1177 -0.1120  0.0594
 8182W        W23651  16.371  10.073   3.645 -0.0180  0.0178  0.2257
 8183W        W23652   1.841   0.182  15.084 -0.1704 -0.2070 -0.0287
 8184W        W23653  15.418   5.718  16.595  0.1935  0.1538 -0.0611
 8185W        W23654  13.336  10.483   3.933  0.5951  0.1474 -0.3992
 8186W        W23655  15.652  12.443  14.570  0.1165  0.3245 -0.1675
 8187W        W23656  10.867   8.964  12.365 -0.0053  0.0212 -0.2797
 8188W        W23657  14.202  11.392  11.984  0.0579  0.2128  0.0396
 8189W        W23658   2.370  15.477   4.147  0.3845 -0.3462  0.0219
 8190W        W23659  16.191   5.257   2.048  0.1556  0.0850 -0.3642
 8191W        W23660  16.044  14.530   1.095  0.0613  0.1258  0.1964
 8192W        W23661   2.731   9.130   2.133 -0.3892 -0.1073  0.0191
 8193W        W23662   4.855   6.869  12.615  0.0779  0.2501  0.0422
 8194W        W23663   8.596  13.053  15.768 -0.2561 -0.0255  0.0094
 8195W        W23664  10.585  16.141   2.497  0.3919 -0.0200  0.1925
 8196W        W23665  10.737   6.747  16.532 -0.1780  0.1538  0.1213
 8197W        W23666  12.643  15.612  13.402  0.0872  0.1780  0.1859
 8198W        W23667   7.489  12.342   3.651 -0.1716 -0.1263  0.1909
 8199W        W23668  15.184  13.693  11.937  0.0050 -0.1093 -0.0924
 8200W        W23669  16.936   9.633  11.059 -0.1597  0.1122 -0.0955
 8201W        W23670   2.150   4.526   3.856  0.2222  0.1146  0.0622
 8202W        W23671  12.634   4.583  16.267  0.0186 -0.2213 -0.0706
 8203W        W23672   4.917  17.022   2.201 -0.0341  0.1980  0.0092
 8204W        W23673   8.933   2.061   3.618 -0.0438 -0.0394  0.3073
 8205W        W23674   6.110   4.739  14.662  0.2088 -0.0671 -0.2005
 8206W        W23675  14.973   0.532  15.755  0.1379  0.3029  0.1409
 8207W        W23676  13.944  15.378  14.687 -0.1533 -0.1231 -0.1684
 8208W        W23677  15.397   9.417   1.174  0.2311  0.0691 -0.3582
 8209W        W23678   7.781  12.508  16.205  0.1095 -0.0574 -0.0908
 8210W        W23679  14.508   8.444  12.877 -0.0835 -0.4573  0.1215
 8211W        W23680   4.452  15.179   2.496  0.0929  0.2396 -0.1124
 8212W        W23681  10.886   5.764  12.735 -0.1668 -0.1073  0.1313
 8213W        W23682  12.904   9.577   4.040 -0.0669  0.0024  0.0521
 8214W        W23683   4.625  12.795   5.092 -0.2176  0.3394 -0.2181
 8215W        W23684   2.318  15.692  14.116 -0.2650 -0.0696  0.1024
 8216W        W23685   5.929  15.497   5.736 -0.0557 -0.3640 -0.0115
 8217W        W23686   1.953   1.858  14.094  0.0649 -0.0417  0.1049
 8218W        W23687   3.794   8.364   1.674 -0.4956 -0.0927 -0.1477
 8219W        W23688   3.827   7.221  14.940  0.0629 -0.0878  0.3219
 8220W        W23689  12.335  10.050   5.234  0.1096 -0.1217  0.1690
 8221W        W23690   8.754   6.439  12.741  0.0438 -0.2613  0.2623
 8222W        W23691  17.919   4.581   4.701 -0.0328 -0.0339  0.2304
 8223W        W23692  16.429  14.702  13.636  0.0274 -0.0324  0.0663
 8224W        W23693  13.603   3.326  14.180 -0.0288 -0.0281  0.0172
 8225W        W23694  13.644  11.652  12.247 -0.3174 -0.1951 -0.2553
 8226W        W23695   5.712   8.773   4.654  0.3958 -0.0098  0.0946
 8227W        W23696   2.193   8.973   3.267 -0.0062  0.2363  0.0445
 8228W        W23697   7.515  12.395   6.368  0.0308  0.1751  0.3662
 8229W        W23698  13.823   1.449  12.863  0.0491  0.3321  0.0608
 8230W        W23699   5.527  10.940  12.849 -0.3376  0.1165  0.1338
 8231W        W23700   0.953   7.077  14.197  0.1862 -0.1680  0.0436
 8232W        W23701  10.877   7.558  11.534 -0.1146  0.0299 -0.1458
 8233W        W23702   5.639  17.306  12.236  0.2718  0.0108  0.1114
 8234W        W23703   3.358   8.333  14.838  0.0241 -0.1100 -0.1112
 8235W        W23704   5.708   9.271  14.893  0.1104 -0.1488 -0.1056
 8236W        W23705   3.919   8.819   4.473 -0.1770  0.4539 -0.0126
 8237W        W23706  12.283  15.051   2.416  0.1349 -0.0265  0.0547
 8238W        W23707   9.881   5.782  12.722 -0.1005 -0.1889  0.0917
 8239W        W23708  11.958   0.738  15.705  0.0867 -0.2858 -0.2846
 8240W        W23709  16.022  16.031   2.087  0.3284 -0.0974  0.1262
 8241W        W23710  15.553   4.000  14.166 -0.1103 -0.0175  0.1775
 8242W        W23711   0.766  13.977   1.026 -0.0682 -0.0764 -0.0075
 8243W        W23712   9.897  17.457  16.399  0.0319 -0.1933  0.1650
 8244W        W23713   0.467   1.400   0.573  0.3389 -0.1958 -0.0120
 8245W        W23714   5.021   1.920   1.549 -0.0957 -0.0742  0.0134
 8246W        W23715  15.706  10.786  12.227  0.3493 -0.0811  0.1166
 8247W        W23716   8.536   6.363  16.070 -0.0010  0.1588  0.1457
 8248W        W23717  16.467   3.835  11.232 -0.1693 -0.1163 -0.3293
 8249W        W23718  10.667  12.249  13.678  0.0047 -0.0352  0.3487
 8250W        W23719   1.520  16.793  14.932 -0.2140  0.0353  0.0544
 8251W        W23720  16.196  12.765   3.851  0.2797  0.1515  0.0225
 8252W        W23721  13.989   5.000   2.944  0.2871  0.0751 -0.1010
 8253W        W23722   1.527   0.071   3.721  0.0391 -0.1599 -0.0958
 8254W        W23723  14.307   7.422   0.734  0.1174  0.2815  0.1541
 8255W        W23724  11.010   0.452  12.165  0.0145 -0.0463 -0.0693
 8256W        W23725  13.636  17.070  15.484 -0.3282  0.3946 -0.0123
 8257W        W23726   8.507  10.431   3.339  0.0311 -0.4094 -0.0725
 8258W        W23727   5.873   2.725   4.943 -0.0506  0.1754  0.0947
 8259W        W23728   8.572  12.115  15.407 -0.0505  0.1241 -0.0744
 8260W        W23729  12.877  10.579  13.352  0.1238 -0.0455 -0.0332
 8261W        W23730  13.677  10.840   1.891 -0.0755 -0.0272 -0.1046
 8262W        W23731   6.044  10.523  11.467 -0.1087 -0.1425  0.1678
 8263W        W23732  10.844   5.838  13.830 -0.0797 -0.0342 -0.2851
 8264W        W23733  12.629   8.358   1.013 -0.3748 -0.0503 -0.4697
 8265W        W23734  10.896  16.838   5.451 -0.2756  0.1777 -0.0555
 8266W        W23735   9.136  12.310   1.465  0.0495  0.1905 -0.4240
 8267W        W23736   3.920   3.466  14.946  0.0256  0.1167  0.0742
 8268W        W23737  10.904   9.833  15.762 -0.0852 -0.3712  0.2781
 8269W        W23738   7.372  13.966   3.164  0.1315 -0.1934  0.2222
 8270W        W23739   3.730   8.040   2.667 -0.0253 -0.1975  0.2442
 8271W        W23740   6.122   9.719  12.734  0.1709  0.4949  0.0299
 8272W        W23741  14.854  17.090  14.278 -0.2237  0.1294 -0.0922
 8273W        W23742   4.990  16.107  10.887 -0.1364  0.3232  0.4722
 8274W        W23743   2.274   2.408  13.896  0.0008  0.0645 -0.1068
 8275W        W23744   8.331   1.673   6.780 -0.0945 -0.0283 -0.2969
 8276W        W23745  10.935   0.619  16.215  0.2126 -0.0596 -0.2729
 8277W        W23746  12.255  11.674   2.849 -0.0258  0.2126  0.1162
 8278W        W23747  13.709   2.766   3.376 -0.1119  0.1979 -0.1086
 8279W        W23748  12.843   4.083  11.170 -0.1115 -0.2659 -0.0746
 8280W        W23749   9.599   6.433  16.045 -0.2804 -0.0452  0.0399
 8281W        W23750  15.799  15.453  14.662  0.0346 -0.0807  0.0442
 8282W        W23751   9.872  17.882   2.953  0.0263  0.1551 -0.0681
 8283W        W23752   9.665   8.072   2.066 -0.0127 -0.1462 -0.0499
 8284W        W23753   9.620   9.183  15.270  0.1148 -0.3359  0.0347
 8285W        W23754  17.053   4.786  15.755 -0.2600  0.2077 -0.4000
 8286W        W23755   7.054   3.817   2.116 -0.3910  0.1635  0.1817
 8287W        W23756  11.968   8.862  12.670  0.0713 -0.0190  0.0315
 8288W        W23757   3.500   4.948   2.889 -0.0243 -0.1231 -0.2036
 8289W        W23758   3.858   4.423   3.510  0.0588 -0.0416 -0.2435
 8290W        W23759   5.123   2.599  13.985 -0.1284  0.2455 -0.0511
 8291W        W23760  10.927   5.301   5.956 -0.1184 -0.1869 -0.2956
 8292W        W23761  12.457  17.858   4.936  0.2726  0.0128 -0.1320
 8293W        W23762   5.794   6.841  12.126 -0.0170 -0.0202 -0.2456
 8294W        W23763  15.130  17.925  13.091  0.1301  0.1361  0.1952
 8295W        W23764   7.828   5.342   4.102 -0.1771 -0.2414 -0.0216
 8296W        W23765  16.734  14.267   3.257  0.0024  0.2510  0.0397
 8297W        W23766   8.310  16.457   0.252  0.1558 -0.0521  0.0231
 8298W        W23767   6.870   8.233   2.989  0.1621  0.5031 -0.1003
 8299W        W23768  12.000  10.587  13.221  0.0744  0.0544 -0.2517
 8300W        W23769   3.384   2.120  14.611 -0.3135 -0.0197  0.0449
 8301W        W23770   3.772   7.531   4.570  0.2073  0.1688  0.0136
 8302W        W23771   2.342   8.895   3.826  0.1760  0.3569  0.1662
 8303W        W23772   4.447  17.920   1.742 -0.2402 -0.1334 -0.0503
 8304W        W23773  10.724  15.307   2.274 -0.0158  0.1854  0.1304
 8305W        W23774   3.970   5.889  13.960  0.2651  0.1607  0.2363
 8306W        W23775   8.974   5.901  14.402  0.0366  0.1599 -0.0200
 8307W        W23776   3.656  16.071   1.091 -0.0041  0.0617 -0.1267
 8308W        W23777  14.934  17.504  11.656  0.0535 -0.1309  0.3286
 8309W        W23778   0.551  10.326  15.690 -0.2261 -0.0451  0.1345
 8310W        W23779   0.287   7.243   4.276 -0.2375  0.0582  0.3363
 8311W        W23780   5.859   3.660  15.607 -0.2364 -0.0562 -0.0090
 8312W        W23781   5.860   5.078  12.821  0.2601 -0.1097  0.0188
 8313W        W23782   0.946   9.477  12.128 -0.1342  0.0425  0.1410
 8314W        W23783  14.071  15.277   0.385 -0.1369 -0.1230 -0.1764
 8315W        W23784   8.360   5.184  11.317 -0.0313 -0.2939  0.1838
 8316W        W23785   6.753   8.593  12.659 -0.0571 -0.2045 -0.0705
 8317W        W23786   9.430   9.014   3.557 -0.1629  0.0612  0.0083
 8318W        W23787  12.452   1.395  14.872  0.0525 -0.0727  0.0739
 8319W        W23788   8.476   8.214   0.694 -0.0827  0.0222 -0.1552
 8320W        W23789  13.298  14.448  13.740  0.1229  0.0627  0.1252
 8321W        W23790  11.804  16.461   3.934 -0.0810 -0.2936  0.1319
 8322W        W23791   7.324  16.846   4.478  0.1573  0.2767  0.1234
 8323W        W23792   3.161  13.714   1.941 -0.1440 -0.0395 -0.1955
 8324W        W23793  12.861   0.379  15.331 -0.0836 -0.1001  0.0100
 8325W        W23794   6.876   4.512   4.445 -0.1505 -0.0142  0.1807
 8326W        W23795  13.375   3.044  13.482  0.0564  0.1121 -0.1255
 8327W        W23796  11.566   8.335   5.211  0.3262 -0.0321 -0.1475
 8328W        W23797   4.763  13.972   4.478 -0.0124  0.1575  0.1844
 8329W        W23798   7.160   0.756   2.116 -0.2228 -0.1544 -0.0484
 8330W        W23799   5.778   1.898   1.155  0.2057  0.0388  0.1907
 8331W        W23800   5.122   1.986   2.782 -0.1978  0.0419  0.1664
 8332W        W23801   6.522  15.741  16.228  0.2574 -0.4222 -0.0676
 8333W        W23802   1.622   8.504   6.132 -0.0466 -0.1840 -0.3052
 8334W        W23803   7.071  14.641   2.492 -0.2508 -0.1926 -0.3935
 8335W        W23804   1.690  11.384   2.920 -0.1451 -0.1614  0.2573
 8336W        W23805   0.263   8.862  12.089  0.3226 -0.1015  0.0375
 8337W        W23806   9.213  10.471   1.183  0.0983 -0.2478  0.2537
 8338W        W23807   7.225  11.375  14.606 -0.1008  0.0533  0.2139
 8339W        W23808  10.690   6.394   0.214 -0.3373  0.1711 -0.3182
 8340W        W23809   6.441   5.688  11.472 -0.2074  0.1020  0.1347
 8341W        W23810  12.872   4.140  16.513 -0.3524 -0.1071  0.3902
 8342W        W23811  13.597  12.421   3.449  0.1942  0.2570 -0.1654
 8343W        W23812   6.612   2.419  14.064  0.0075 -0.1418  0.0603
 8344W        W23813   5.214   1.112   5.855  0.2001  0.5111 -0.2710
 8345W        W23814   3.313  14.900   3.649  0.0703  0.1800 -0.3557
 8346W        W23815   4.911  13.786  11.380 -0.2665 -0.0992 -0.2716
 8347W        W23816   9.808  10.257  11.891  0.2723 -0.1936  0.1004
 8348W        W23817   8.487   9.512   2.969  0.1249  0.3022  0.0052
 8349W        W23818   4.376   7.359   1.659  0.3217  0.4170  0.0614
 8350W        W23819  16.304  15.962   5.582  0.1470  0.1511 -0.3779
 8351W        W23820  17.053  10.248  15.253  0.0908 -0.0029  0.2363
 8352W        W23821  17.019  16.462   0.771 -0.1331  0.1028  0.1997
 8353W        W23822  11.386   7.286  13.812 -0.0849  0.2531  0.0358
 8354W        W23823   0.078   8.058  12.984 -0.3237 -0.3441  0.4086
 8355W        W23824   9.073  11.006  12.645 -0.2939  0.0362  0.0199
 8356W        W23825  11.992   1.132   4.962  0.5608  0.1954  0.1010
 8357W        W23826   9.596  15.655   5.413  0.3724  0.0076 -0.0822
 8358W        W23827   4.957  13.476  11.833 -0.0872  0.0593 -0.0993
 8359W        W23828   5.554  13.286   1.494 -0.2417 -0.0810 -0.2406
 8360W        W23829   8.114   7.534   2.964 -0.1703 -0.2386 -0.0427
 8361W        W23830   4.292   8.228   1.740 -0.2702 -0.0456 -0.2656
 8362W        W23831   2.930   3.745   2.381 -0.0651 -0.1168  0.2630
 8363W        W23832  15.466  16.167  15.396  0.1895  0.0927 -0.0765
 8364W        W23833  10.958   7.242   4.778  0.0904  0.0092  0.0174
 8365W        W23834   3.425   2.382  12.860 -0.1446 -0.0468  0.1558
 8366W        W23835  16.056   5.646   2.407  0.0886 -0.1028 -0.2163
 8367W        W23836  17.516   1.533  13.529  0.0783  0.1387  0.0116
 8368W        W23837   0.273   3.238   4.100  0.3036 -0.2367  0.0803
 8369W        W23838   2.787   0.289   4.308 -0.4380  0.0020  0.1174
 8370W        W23839  10.594   5.850   5.254  0.1278 -0.0412  0.0572
 8371W        W23840  10.851   1.067   1.377 -0.1900  0.0116 -0.0722
 8372W        W23841  17.021  15.817  15.275 -0.0060 -0.0945  0.4670
 8373W        W23842   2.639   4.375  12.444 -0.1998  0.0175  0.2801
 8374W        W23843   0.817   1.648   1.463  0.1196 -0.0673  0.0862
 8375W        W23844   3.132   2.323  13.918  0.4157  0.1380  0.2253
 8376W        W23845  12.873   9.997   4.575 -0.3964  0.1413 -0.1894
 8377W        W23846   1.337  10.281   1.805  0.3266  0.0761 -0.0013
 8378W        W23847  12.497   3.067   6.239 -0.1639  0.2765  0.4699
 8379W        W23848   0.454  12.212  12.038 -0.1012  0.3662  0.0469
 8380W        W23849   6.165   4.447   0.207  0.1031 -0.2110  0.1153
 8381W        W23850   1.688  17.039   4.772 -0.2889  0.0379  0.0477
 8382W        W23851   8.278  14.199  10.501  0.1434 -0.2416  0.2143
 8383W        W23852   1.493   3.936  12.198 -0.1032 -0.2410 -0.2325
 8384W        W23853  11.357   5.165  12.185 -0.2264  0.0746 -0.0821
 8385W        W23854  11.812  15.163   4.657  0.1539  0.1993 -0.0528
 8386W        W23855   0.420  11.792  13.965 -0.1754 -0.0372 -0.3880
 8387W        W23856   6.406   7.750  13.140 -0.1452 -0.0530 -0.0329
 8388W        W23857   5.811   6.337   0.544  0.0825  0.2096  0.1584
 8389W        W23858  16.303   1.067  14.081  0.1490 -0.1800 -0.1525
 8390W        W23859  14.507  12.055  15.599  0.1483 -0.1692  0.0760
 8391W        W23860   0.211   7.902   2.180 -0.2429  0.1447  0.2042
 8392W        W23861  12.862   8.070   3.672  0.3065 -0.0106 -0.1310
 8393W        W23862   9.544   1.235   0.986  0.1201 -0.1757  0.1837
 8394W        W23863   3.313  17.106  15.113  0.2120  0.1355  0.1596
 8395W        W23864  11.911  13.843   3.699 -0.1747  0.2316 -0.7310
 8396W        W23865  14.277   8.515   3.618 -0.2596 -0.1421  0.2919
 8397W        W23866   4.054   4.741   0.267 -0.3031 -0.1234 -0.0903
 8398W        W23867   4.289   9.956  12.144  0.1070 -0.1116 -0.0682
 8399W        W23868  17.602  16.865   2.620  0.1111 -0.4364 -0.0624
 8400W        W23869  12.127   3.941   4.368  0.0842 -0.1043  0.0798
 8401W        W23870   7.046  14.712  12.578 -0.0746 -0.0175  0.2157
 8402W        W23871  12.165   1.953  15.163  0.1430  0.2275 -0.0812
 8403W        W23872   1.793   0.044   0.221  0.0260  0.0974 -0.0318
 8404W        W23873  17.943   3.660  13.462 -0.2223 -0.0049 -0.0022
 8405W        W23874   4.941  16.108  11.419  0.1670 -0.3465  0.0517
 8406W        W23875   3.696  13.113  11.990  0.0938 -0.0261 -0.0621
 8407W        W23876   2.187  15.611   5.588 -0.1246 -0.0175  0.0007
 8408W        W23877  15.178  10.696   1.740 -0.4323 -0.1206 -0.0253
 8409W        W23878  16.198  12.877  16.351  0.1777 -0.0047  0.0054
 8410W        W23879  13.941   4.056   0.147  0.0650 -0.0041  0.0220
 8411W        W23880  13.748   6.282   3.259 -0.0963  0.1689  0.0413
 8412W        W23881  14.688   7.940   1.083  0.1608 -0.0054  0.1862
 8413W        W23882  14.804   3.300  12.366  0.0504 -0.3066  0.1708
 8414W        W23883  11.622  16.436   3.424  0.1705  0.0177 -0.2428
 8415W        W23884  17.818   3.775   0.930 -0.0863 -0.0538 -0.0150
 8416W        W23885   6.507   7.953  15.869  0.0967  0.1299 -0.1733
 8417W        W23886   0.949   1.260   0.512  0.0451  0.0344 -0.2171
 8418W        W23887  12.542  12.465  12.819  0.3433 -0.0616  0.0018
 8419W        W23888   3.998   5.316  15.380  0.1456 -0.2259  0.2012
 8420W        W23889   0.068   9.061  12.857 -0.2466  0.0072 -0.0565
 8421W        W23890   2.584  14.204   3.682 -0.2000 -0.0880 -0.0190
 8422W        W23891   9.339  16.081  16.111 -0.2122  0.1074 -0.0658
 8423W        W23892  16.102  17.824   5.126 -0.1160  0.1589  0.2616
 8424W        W23893   4.228  14.868   4.184 -0.1768  0.3694  0.0580
 8425W        W23894   1.182  12.628   4.321  0.0210 -0.0092  0.1219
 8426W        W23895   4.215  14.459   1.493 -0.0644  0.0812  0.1697
 8427W        W23896  16.950  10.032  11.415  0.1606 -0.0842 -0.0214
 8428W        W23897   9.308   5.839  12.705 -0.3321 -0.0288  0.1408
 8429W        W23898   5.086   5.335   1.500  0.0271  0.0703 -0.0928
 8430W        W23899  14.779   9.772   2.792  0.0291 -0.0745 -0.1563
 8431W        W23900   2.980  10.361  11.648 -0.0609 -0.1284 -0.1817
 8432W        W23901   7.702   7.742   3.183 -0.2154 -0.0236  0.1646
 8433W        W23902  14.158   7.998   2.899 -0.3052  0.1723  0.2192
 8434W        W23903  13.096   1.345   1.100  0.0058  0.1416 -0.0627
 8435W        W23904   7.028   9.265   2.294  0.0643  0.2291 -0.4027
 8436W        W23905  16.601   6.656  10.597 -0.1100  0.1934 -0.5045
 8437W        W23906  12.613   7.179   0.380 -0.0340  0.0983  0.1036
 8438W        W23907  10.514   9.284  15.183  0.1238 -0.1441 -0.0452
 8439W        W23908   0.924  11.784   3.905  0.1012  0.2794 -0.0254
 8440W        W23909   0.880   9.255  14.016 -0.0859  0.0568 -0.1124
 8441W        W23910  12.224   9.795   0.779  0.1020  0.0888  0.0141
 8442W        W23911   9.872   0.607  16.089  0.1649  0.0928 -0.3967
 8443W        W23912   2.318  12.269  13.162  0.2446  0.2927 -0.1419
 8444W        W23913   2.462  13.044  12.585 -0.0464 -0.0221 -0.0864
 8445W        W23914  15.904  16.875  14.356  0.0233  0.0557 -0.0103
 8446W        W23915   6.341  13.753   2.147  0.0600  0.0603  0.1137
 8447W        W23916   6.893   0.081   3.512  0.0968  0.0198 -0.1539
 8448W        W23917  12.079   3.487   4.585  0.0751  0.0250  0.0311
 8449W        W23918  14.501  13.242   1.049  0.0949 -0.0877  0.0735
 8450W        W23919  16.729   1.807  15.090 -0.0032 -0.1662  0.1190
 8451W        W23920   7.169   9.038  11.104 -0.2500 -0.1936 -0.1190
 8452W        W23921   4.947   8.090   1.792 -0.2078 -0.1801  0.0655
 8453W        W23922  17.790   8.141   2.881 -0.2436  0.2236  0.0837
 8454W        W23923   5.040   5.960   3.399  0.2656 -0.1310  0.0862
 8455W        W23924   2.566   1.255  13.644 -0.2415  0.2098 -0.2101
 8456W        W23925  12.250  13.454  13.656  0.0288  0.2735 -0.2669
 8457W        W23926   9.279   4.688   2.483  0.0466 -0.0387 -0.1168
 8458W        W23927   4.705   8.605  12.056  0.0917 -0.2095 -0.1682
 8459W        W23928  16.606   5.481  12.693 -0.1975  0.0847 -0.1155
 8460W        W23929   3.256   4.043  13.498 -0.1178  0.0604 -0.3690
 8461W        W23930   2.535  14.308   4.640 -0.2779  0.1756  0.0662
 8462W        W23931  17.665   1.284   0.731 -0.3685  0.0956 -0.2483
 8463W        W23932   4.493   5.735   0.727 -0.0275 -0.1951  0.0481
 8464W        W23933   5.992  13.376   6.225 -0.1354  0.4460 -0.1125
 8465W        W23934  16.855  16.513   2.778 -0.1251  0.0615 -0.1992
 8466W        W23935   8.373   8.657  16.167  0.2026  0.1508 -0.1595
 8467W        W23936   4.346   0.480  12.803 -0.1839 -0.1036  0.0826
 8468W        W23937   8.600   8.536  10.645  0.3481 -0.0292  0.1140
 8469W        W23938  11.057   0.532   0.729  0.3240  0.0421 -0.0424
 8470W        W23939  11.543   0.556   0.381 -0.1189 -0.1973  0.1885
 8471W        W23940   4.712   4.392  15.991 -0.0180  0.0792 -0.1948
 8472W        W23941  11.043  15.237   3.979 -0.0068  0.1675  0.0004
 8473W        W23942  15.983   8.450   4.724 -0.0628 -0.1644 -0.1552
 8474W        W23943   3.472   1.296   0.346 -0.0835  0.3426  0.1838
 8475W        W23944   4.125  16.713  14.772 -0.0142 -0.3452 -0.3909
 8476W        W23945  11.868  11.664  14.283 -0.3444 -0.3437 -0.2076
 8477W        W23946   3.566  16.101  14.445  0.0216  0.2088 -0.0188
 8478W        W23947  12.475   7.546  11.907  0.0571 -0.1144  0.1431
 8479W        W23948  13.517   1.143  14.760 -0.1388 -0.1266 -0.1386
 8480W        W23949  11.061  13.504  14.386 -0.0681  0.2526  0.3201
 8481W        W23950  16.861  10.743  10.804  0.1959  0.0628 -0.2805
 8482W        W23951   7.567   7.551  11.955 -0.3205 -0.0811 -0.0858
 8483W        W23952   9.399  15.345  12.201  0.4578  0.2910  0.1524
 8484W        W23953   9.845   7.374   0.368 -0.0411  0.1209 -0.0702
 8485W        W23954   5.412  12.313  15.696  0.2401  0.0276 -0.0308
 8486W        W23955   3.872   9.545  12.843 -0.1527  0.3594  0.2049
 8487W        W23956  16.880  15.901  14.558  0.0818  0.1964  0.0335
 8488W        W23957   1.655   2.255  11.223  0.1031  0.0011  0.0471
 8489W        W23958   9.689   4.885  12.149 -0.2813  0.1901  0.0500
 8490W        W23959   7.928  10.405   2.819 -0.1637 -0.0197  0.0360
 8491W        W23960  12.660  10.002   3.971  0.1495  0.0613  0.0543
 8492W        W23961   1.629   3.823   3.887 -0.3093 -0.0675 -0.2416
 8493W        W23962   2.570   8.338  13.904  0.0516  0.2133 -0.0438
 8494W        W23963   8.239  16.465   3.986  0.2119 -0.0305 -0.2039
 8495W        W23964  16.152   2.053  11.713 -0.0794 -0.2344 -0.3306
 8496W        W23965   2.739   1.342  14.913 -0.2021 -0.1046 -0.2844
 8497W        W23966  14.726   2.505   0.895  0.0237  0.0694 -0.3366
 8498W        W23967  15.287   3.568  14.073 -0.3378 -0.0761  0.0042
 8499W        W23968  14.635   0.742   2.489  0.1607  0.3568 -0.0487
 8500W        W23969   1.447  15.154   1.795  0.1691  0.0768  0.0914
 8501W        W23970  12.934   7.271   3.186 -0.0515 -0.0956  0.1384
 8502W        W23971   7.536  17.986  15.634 -0.2877  0.2512  0.0406
 8503W        W23972   4.262  11.648   0.108 -0.0863 -0.2024 -0.0825
 8504W        W23973   3.566   7.896   1.833 -0.0596 -0.2149  0.2819
 8505W        W23974  12.207   2.672  13.142 -0.2787  0.0362  0.0895
 8506W        W23975   4.300  11.171  13.445  0.0883 -0.0864 -0.0124
 8507W        W23976   0.699  12.312  16.175  0.0023  0.1961  0.0546
 8508W        W23977  12.682  14.475   3.781  0.0299 -0.0157  0.0907
 8509W        W23978   9.414  16.528   1.911 -0.0327  0.0598 -0.1491
 8510W        W23979  11.996   4.729   3.401  0.1182 -0.1164 -0.1356
 8511W        W23980   2.373  11.720   0.370  0.0360  0.0038 -0.1391
 8512W        W23981   1.497  11.310   5.225 -0.3903  0.1212 -0.1795
 8513W        W23982   7.131  12.321   6.107  0.0002  0.0858  0.0516
 8514W        W23983   3.504   5.854   2.377 -0.0099 -0.2440 -0.0864
 8515W        W23984   6.573  17.978   5.341  0.1596  0.1773 -0.1210
 8516W        W23985   4.719   6.910  16.097 -0.0405 -0.0214  0.1948
 8517W        W23986  11.335   0.228   1.007 -0.1128  0.2214  0.2977
 8518W        W23987   0.454   7.558  12.478 -0.1366  0.0264 -0.2963
 8519W        W23988   0.192   4.771  14.763 -0.1208  0.0411 -0.1587
 8520W        W23989  10.304   4.095   4.986  0.2300  0.2656 -0.0004
 8521W        W23990  16.173  16.669   0.758 -0.2594 -0.1538 -0.3045
 8522W        W23991   4.440  17.215  10.366  0.1576  0.2326 -0.1607
 8523W        W23992   3.392   7.865   2.337 -0.0925 -0.0371 -0.2083
 8524W        W23993  15.869   8.070  11.591  0.1871  0.2096  0.1514
 8525W        W23994   4.269  12.230   4.493  0.1520 -0.3564 -0.3744
 8526W        W23995   2.794   1.290  13.148 -0.0837  0.1633  0.2138
 8527W        W23996  17.405  12.218  16.381  0.0114 -0.1896  0.2764
 8528W        W23997   0.525  13.539   2.713  0.0089  0.1510  0.1261
 8529W        W23998  10.898  13.070  16.504  0.0954 -0.3964  0.0088
 8530W        W23999  12.747   8.555   3.900  0.2553  0.0632  0.3285
 8531W        W24000   0.462   1.799  16.019 -0.2973 -0.1538  0.0650
 8532W        W24001   1.558  13.796   6.154 -0.0038 -0.2573  0.0543
 8533W        W24002   0.020  10.006  13.399 -0.2701  0.1204  0.0515
 8534W        W24003   7.686  16.334  12.102 -0.0049  0.1944  0.2477
 8535W        W24004   7.100   0.690   2.632 -0.0140  0.0640 -0.1205
 8536W        W24005  12.314  13.838   1.240  0.0459 -0.0770 -0.0234
 8537W        W24006   9.782  14.381   2.082  0.0208  0.1012 -0.0101
 8538W        W24007   3.732  13.601  16.465  0.0237 -0.1330  0.0502
 8539W        W24008   4.671   0.085   3.352  0.3198  0.0089  0.0506
 8540W        W24009  12.461  16.036  13.105  0.0502  0.0332  0.1150
 8541W        W24010   7.243  12.238  13.501 -0.1208 -0.3097  0.0205
 8542W        W24011   0.135   8.393  12.063 -0.1304  0.0941  0.1295
 8543W        W24012  10.973   3.355  14.781 -0.1267  0.0694 -0.0042
 8544W        W24013   6.426   0.254   4.046  0.1493  0.1065  0.0496
 8545W        W24014   1.889   2.779   0.686  0.1527 -0.0985 -0.1965
 8546W        W24015  13.917   6.570  14.185  0.2047 -0.0718 -0.1038
 8547W        W24016   2.856  12.402   3.792  0.2727  0.1701  0.3273
 8548W        W24017  11.456  17.060  14.295  0.1274 -0.3166 -0.2579
 8549W        W24018  14.394   8.305  13.830  0.4206 -0.0446  0.2436
 8550W        W24019  14.059  10.399   3.335  0.2724  0.1716 -0.2527
 8551W        W24020  11.644   3.323  14.934 -0.1630  0.1032 -0.2093
 8552W        W24021   4.809  16.786   0.158  0.0926  0.2598  0.1197
 8553W        W24022   4.250  10.302   1.469 -0.2040  0.2361 -0.1561
 8554W        W24023  14.210  14.515  13.740 -0.3911  0.0416 -0.2544
 8555W        W24024   2.517  10.501   3.347  0.0267 -0.0178 -0.0647
 8556W        W24025   3.096  14.353  12.702  0.0411  0.0974 -0.1579
 8557W        W24026  14.210   4.787  11.793 -0.2046  0.1824 -0.0498
 8558W        W24027  11.571   9.979   5.494 -0.0848  0.2439  0.2437
 8559W        W24028   1.865  16.270  14.965 -0.0395 -0.1384 -0.2303
 8560W        W24029   0.051  12.078   1.552  0.4233  0.4146  0.2595
 8561W        W24030  15.917  11.768  13.230 -0.1407  0.1402  0.0113
 8562W        W24031   9.782   2.941  14.591 -0.1421  0.1257  0.0860
 8563W        W24032  13.697   2.487   1.015 -0.3312 -0.2258  0.1535
 8564W        W24033  17.936   9.971  15.386 -0.0071  0.1425  0.0776
 8565W        W24034  17.944  14.628   2.670  0.2912 -0.2316 -0.0250
 8566W        W24035   7.073  12.280   1.666 -0.2118 -0.0729 -0.1336
 8567W        W24036  10.588   7.562   4.043  0.0883 -0.1689 -0.0413
 8568W        W24037   8.339   2.990   2.237 -0.1904 -0.1374 -0.0292
 8569W        W24038   3.726   7.353  10.944 -0.2933  0.0750  0.0467
 8570W        W24039   3.293   2.406  13.330 -0.1865  0.1694  0.0028
 8571W        W24040   1.073  16.509   4.084 -0.2086  0.0774 -0.2441
 8572W        W24041   8.266   1.447   2.593 -0.1770 -0.0103  0.2514
 8573W        W24042  10.204  14.996   5.287 -0.0494  0.0647 -0.2157
 8574W        W24043   1.588  10.525   4.063  0.0901 -0.1201  0.2417
 8575W        W24044  17.915   0.669   5.370 -0.0191 -0.2818  0.0573
 8576W        W24045  17.256   2.569   3.618 -0.2390 -0.0063 -0.1752
 8577W        W24046  14.623   2.169   0.551 -0.2579 -0.0755 -0.0411
 8578W        W24047   9.417   0.500  11.919 -0.1911  0.1484 -0.1173
 8579W        W24048   7.438   3.547  11.388  0.1190 -0.1463  0.3800
 8580W        W24049   8.006  11.919  14.702 -0.0504  0.3479  0.3541
 8581W        W24050   4.283  15.904  15.720 -0.0277 -0.0195 -0.3844
 8582W        W24051   4.579  17.266  15.417  0.1185 -0.1451 -0.1681
 8583W        W24052  16.371   4.053  16.467 -0.1477 -0.0614 -0.1398
 8584W        W24053   4.342  12.099  12.472 -0.2101  0.3429  0.1083
 8585W        W24054   4.183   3.089   2.951 -0.1851  0.0729 -0.0564
 8586W        W24055  10.629   6.141   6.339  0.1502 -0.2346 -0.1848
 8587W        W24056  13.060   5.132   3.036 -0.2721 -0.2717 -0.0258
 8588W        W24057  10.038  10.585   4.953  0.0582 -0.1288 -0.0810
 8589W        W24058  11.727   7.192  16.264  0.2438 -0.0319 -0.1655
 8590W        W24059  10.465  11.438  13.301 -0.0774 -0.1769  0.0912
 8591W        W24060   0.150   6.872  16.536 -0.3411 -0.1462 -0.3991
 8592W        W24061  17.262   3.195   1.468 -0.1451 -0.3229  0.1695
 8593W        W24062   2.431  13.990  13.400 -0.0549  0.1571 -0.0463
 8594W        W24063  10.715   0.377   6.631 -0.0906  0.0798  0.1007
 8595W        W24064   3.636   1.440   4.006 -0.1446 -0.0128  0.0676
 8596W        W24065  10.549   5.325  16.237 -0.1985  0.0287  0.0913
 8597W        W24066   9.725   9.019  13.938  0.1338 -0.0673 -0.1480
 8598W        W24067  11.049  13.497  12.938  0.1698 -0.0068 -0.1504
 8599W        W24068  10.533   0.594  13.621 -0.4547  0.1724 -0.0175
 8600W        W24069   9.713   3.340  15.500  0.2862 -0.0640  0.5058
 8601W        W24070   8.742   1.770  14.831 -0.0298 -0.1081 -0.2922
 8602W        W24071   3.632   8.854   2.319 -0.2135  0.2601 -0.2955
 8603W        W24072   9.480   6.090  14.441  0.2722  0.2154 -0.1856
 8604W        W24073   9.799  13.526   5.153  0.1018  0.2249  0.0886
 8605W        W24074   3.507   5.584   5.538 -0.1838  0.0404  0.1866
 8606W        W24075   6.514   3.387  11.652  0.4263 -0.3818 -0.4913
 8607W        W24076  11.815  10.991  13.497  0.1788  0.1342  0.2089
 8608W        W24077   6.589  15.038  14.529  0.0385 -0.1447  0.1494
 8609W        W24078  10.122   2.063  11.973  0.0490 -0.1019  0.0235
 8610W        W24079  13.233  13.916   0.297 -0.4162 -0.1888 -0.3663
 8611W        W24080  11.340  16.205  12.305 -0.0524 -0.1072  0.1590
 8612W        W24081  10.197  10.213   4.231  0.0882 -0.0677  0.0183
 8613W        W24082   6.750  12.819   3.598 -0.1096 -0.0350  0.1081
 8614W        W24083  14.622   9.360  15.478 -0.1990 -0.1323 -0.1463
 8615W        W24084  17.831   5.043   3.402  0.0591 -0.1877  0.0799
 8616W        W24085   8.038  14.193  15.244  0.0105 -0.0372 -0.2312
 8617W        W24086  10.446   7.977  14.642 -0.0731 -0.3709  0.3037
 8618W        W24087   7.459   4.364   4.162  0.0529  0.0590  0.1168
 8619W        W24088  14.880  15.279   1.367  0.1266  0.1986  0.2041
 8620W        W24089   7.962   3.276   2.349 -0.1463 -0.2497 -0.2158
 8621W        W24090   8.658  13.238   4.516 -0.2931 -0.0779 -0.2908
 8622W        W24091   6.870  12.302   0.491 -0.1763 -0.1146  0.1655
 8623W        W24092   3.799  16.597   4.185 -0.1516 -0.0149 -0.0588
 8624W        W24093   6.192   7.139   0.518 -0.2261 -0.0912 -0.2717
 8625W        W24094  14.562   3.453   4.453  0.2469  0.0493  0.0848
 8626W        W24095  10.947  10.853   0.283  0.0044  0.2908 -0.2846
 8627W        W24096   5.741   3.188   1.887  0.2285  0.0048 -0.4199
 8628W        W24097  10.036   9.267  11.585  0.3246 -0.1954 -0.1285
 8629W        W24098   2.213   9.213   2.340 -0.0637 -0.1051  0.2980
 8630W        W24099  11.062   3.901  14.139  0.1404 -0.1085  0.2721
 8631W        W24100   6.976  10.563   4.548 -0.0491 -0.1971 -0.1789
 8632W        W24101   4.112  16.124  11.823 -0.0648  0.0225  0.1786
 8633W        W24102  10.620  16.213   1.969 -0.0533 -0.1581 -0.0831
 8634W        W24103   7.342   9.956  16.213 -0.0856  0.0034  0.0678
 8635W        W24104   2.123  11.618   5.298 -0.1730  0.1106 -0.0367
 8636W        W24105  15.242   4.087   3.345  0.1692  0.0851  0.0742
 8637W        W24106   8.120   5.087   1.050  0.1441  0.0913  0.0470
 8638W        W24107  17.846  17.828   5.895  0.1331 -0.1102 -0.1587
 8639W        W24108   2.863  10.290  12.878  0.1022 -0.2745 -0.0990
 8640W        W24109   7.259  17.814   2.599 -0.1969  0.0269 -0.2549
 8641W        W24110   2.448   2.300  16.553  0.0568 -0.0597 -0.1233
 8642W        W24111   9.769   2.262   1.666 -0.2504 -0.0469 -0.0057
 8643W        W24112   4.829  16.619   3.616  0.0619  0.1990  0.1985
 8644W        W24113   7.417  14.107   4.761  0.1481  0.2143  0.0215
 8645W        W24114   3.511  16.880   1.492 -0.0201 -0.0988  0.0070
 8646W        W24115   3.425  14.406   0.130 -0.0925 -0.0573  0.2157
 8647W        W24116   8.750   4.648  15.561  0.2364  0.1044 -0.0649
 8648W        W24117   2.200   7.453   1.511  0.1716 -0.2302 -0.1075
 8649W        W24118   9.666  16.726  12.396 -0.0591  0.3308 -0.0860
 8650W        W24119   1.423   6.674   4.931 -0.1143  0.1901  0.3374
 8651W        W24120  11.118  13.256   3.991 -0.1384 -0.3632 -0.0843
 8652W        W24121   5.570   4.131  16.187 -0.0723 -0.0015 -0.0655
 8653W        W24122   0.721   4.669   5.942  0.0765  0.3562  0.0454
 8654W        W24123   9.880   8.319   0.420 -0.2173  0.0214 -0.0075
 8655W        W24124   9.049   6.594   3.317  0.0709 -0.1878 -0.1289
 8656W        W24125   0.782  17.940   5.225 -0.2459 -0.0638 -0.3221
 8657W        W24126   4.552   8.941  14.148  0.4092  0.2323  0.1930
 8658W        W24127  17.053   1.452   3.663  0.1474  0.1852 -0.3016
 8659W        W24128   4.900  11.254  13.330 -0.2090 -0.1652  0.0851
 8660W        W24129   2.979  16.990  15.516 -0.1951 -0.1993 -0.4245
 8661W        W24130   6.192  10.729   4.199  0.0527 -0.3567 -0.1806
 8662W        W24131   8.104   2.492  15.139 -0.1733 -0.1823  0.0312
 8663W        W24132  11.248   9.537  13.527 -0.3102 -0.1000  0.1706
 8664W        W24133  15.993   2.261  13.933  0.1128  0.3870  0.0862
 8665W        W24134  14.556  16.941   3.624  0.0755  0.0093 -0.5989
 8666W        W24135   0.816  16.317   3.043  0.3716 -0.1702  0.3039
 8667W        W24136   8.716  15.679  12.230 -0.0469  0.0677  0.1108
 8668W        W24137   4.701  13.831   2.725 -0.0006  0.3337  0.1049
 8669W        W24138   9.388  14.972  13.850 -0.1283 -0.3109 -0.0272
 8670W        W24139   7.194   5.282  13.589  0.3471  0.0847  0.3460
 8671W        W24140  13.770  15.226   2.181 -0.0274 -0.0637  0.0438
 8672W        W24141   5.603  16.282   4.251 -0.1656 -0.3112  0.4385
 8673W        W24142  11.781  17.780  15.682 -0.4065 -0.4407  0.0004
 8674W        W24143   9.592   3.814   1.044 -0.1874  0.0303 -0.3480
 8675W        W24144  16.461   0.601  15.731  0.0742 -0.2080 -0.0755
 8676W        W24145   7.299  16.099  12.778 -0.2217 -0.2628 -0.1725
 8677W        W24146   8.777   6.189   1.368  0.1966 -0.2792  0.0107
 8678W        W24147  14.661   9.114  16.065  0.0838 -0.1926 -0.5969
 8679W        W24148   5.518   7.295  14.568  0.0129 -0.0875  0.0894
 8680W        W24149   3.793   8.471   0.666 -0.0423  0.2104 -0.1967
 8681W        W24150  11.545   5.541   5.059  0.2015  0.1758 -0.0807
 8682W        W24151  17.135  11.217   2.040  0.1679  0.0072 -0.1826
 8683W        W24152  14.781  17.523   2.844  0.1007 -0.2113 -0.2433
 8684W        W24153  10.792   0.054  11.941  0.1862 -0.2176  0.5195
 8685W        W24154  16.741   1.265  15.741 -0.2220  0.0153 -0.0268
 8686W        W24155   0.103   2.272  11.387  0.0963  0.3406  0.1399
 8687W        W24156   1.882  16.294   0.573  0.0139 -0.0161 -0.0604
 8688W        W24157  12.103  15.659   4.013 -0.1599 -0.3696  0.3177
 8689W        W24158  14.420   2.352  12.789 -0.0306  0.2869 -0.2115
 8690W        W24159  14.701   6.133  16.297  0.0071  0.0235 -0.1831
 8691W        W24160  13.079  12.816  14.114  0.0884 -0.1140  0.2984
 8692W        W24161   4.322   0.108  16.463  0.1347  0.1465  0.0290
 8693W        W24162   2.014  14.276   1.449  0.0957 -0.2634 -0.0282
 8694W        W24163  14.711   0.163  15.943  0.0606  0.1317  0.1042
 8695W        W24164   5.393  11.668  15.641 -0.2204 -0.2056 -0.0615
 8696W        W24165  17.926  17.437  11.881  0.2552 -0.0732 -0.2248
 8697W        W24166   0.490   4.368  12.498  0.1190 -0.2447 -0.1036
 8698W        W24167  14.175   0.234   4.717 -0.0106  0.1495 -0.0018
 8699W        W24168   5.665  11.514  12.793  0.1009  0.0382  0.0662
 8700W        W24169  10.142   3.202   5.449  0.1577  0.2396 -0.1331
 8701W        W24170  17.179   2.251   2.882 -0.0836 -0.0317 -0.1132
 8702W        W24171  11.706   3.139   5.286  0.2756  0.0912 -0.1356
 8703W        W24172  10.011  14.287  12.518  0.1085  0.0526 -0.1255
 8704W        W24173  16.420   8.151   4.769  0.1244 -0.2694  0.2888
 8705W        W24174  12.958  17.518   0.593 -0.1991  0.0225 -0.0032
 8706W        W24175  11.696  16.420  15.107 -0.0190  0.3381 -0.1151
 8707W        W24176   8.577   1.632   4.432 -0.0425 -0.1062  0.0117
 8708W        W24177   3.274  15.915   4.301 -0.2716 -0.1022  0.0710
 8709W        W24178   4.764   9.562  14.932 -0.2786 -0.0023 -0.1707
 8710W        W24179   8.349   3.064  10.742 -0.0044  0.0856  0.2371
 8711W        W24180   8.673   3.342   1.318 -0.1272 -0.1365  0.0887
 8712W        W24181  11.566  16.782  14.752  0.0132  0.2260  0.0368
 8713W        W24182  14.663  12.638   5.111  0.0341  0.0135 -0.1417
 8714W        W24183   2.406  17.101  15.555  0.0946 -0.2216  0.0607
 8715W        W24184   8.868   6.189   4.973 -0.4404 -0.2794  0.0727
 8716W        W24185  12.497   4.474  13.892 -0.1083 -0.0111 -0.1302
 8717W        W24186   1.887   7.580   3.470  0.0051  0.0718  0.3114
 8718W        W24187   2.881   8.140   1.255 -0.0352  0.0861  0.0772
 8719W        W24188  13.332  17.302  16.431 -0.3123  0.0530 -0.0983
 8720W        W24189   5.467   1.004  15.707  0.1255 -0.0845 -0.0128
 8721W        W24190  13.264  14.352   4.458  0.0067  0.0782 -0.2865
 8722W        W24191   7.561  17.674   6.665 -0.0123 -0.0759 -0.0765
 8723W        W24192   5.056   5.022  14.813 -0.1520 -0.1039 -0.1890
 8724W        W24193  16.935   4.828  11.080  0.3507  0.0118  0.0260
 8725W        W24194   6.566   3.706   2.083 -0.2641  0.0407  0.1742
 8726W        W24195  17.445   3.211  16.122  0.0810  0.2380  0.2396
 8727W        W24196   3.616   6.970   1.266 -0.1555 -0.1454  0.3479
 8728W        W24197   8.168   7.534   0.476  0.2710  0.0278 -0.1997
 8729W        W24198  10.517  10.150  15.608 -0.0425 -0.3054 -0.0305
 8730W        W24199  12.512   0.092   2.215 -0.1412  0.5107 -0.0965
 8731W        W24200   2.962  12.465  15.152 -0.0899  0.4207  0.0944
 8732W        W24201   2.246   3.043   2.822  0.1009  0.0628 -0.2425
 8733W        W24202   2.172  13.242  11.723 -0.2346  0.1781  0.1622
 8734W        W24203   2.658   6.878  16.273  0.2697 -0.1678 -0.3197
 8735W        W24204  14.763   1.724  16.136  0.0520  0.2574 -0.0847
 8736W        W24205  10.825  17.720   4.233  0.1428 -0.1506  0.4658
 8737W        W24206   7.079  14.532  14.009 -0.2360  0.0909 -0.3093
 8738W        W24207   9.103   2.786   3.169  0.0312 -0.0113 -0.0275
 8739W        W24208   5.402   2.826  10.673  0.1652  0.1340  0.0103
 8740W        W24209  12.708  16.062  15.459  0.2410 -0.0950  0.2841
 8741W        W24210   3.019   1.542  14.446  0.0943 -0.0217 -0.4508
 8742W        W24211  11.291  10.608   4.244 -0.1844 -0.1813 -0.2358
 8743W        W24212   3.922  13.242  14.206  0.2572 -0.2561 -0.1817
 8744W        W24213   8.258   9.284  13.141 -0.0438  0.2276 -0.1289
 8745W        W24214  12.650  13.516  16.237  0.6157  0.2952  0.2602
 8746W        W24215  14.639   7.870  15.093 -0.1813  0.0937 -0.4960
 8747W        W24216  12.296  12.892   1.558 -0.0901  0.0324  0.1781
 8748W        W24217  10.319   5.085   0.676  0.1865 -0.2610 -0.2074
 8749W        W24218   7.239  13.911  12.404  0.0514  0.0057 -0.1815
 8750W        W24219   3.723   4.054   4.866 -0.1055 -0.4003  0.2045
 8751W        W24220  10.745   3.830   1.569 -0.0376  0.1110  0.1889
 8752W        W24221  17.841   2.968   4.287 -0.1654  0.0376  0.1705
 8753W        W24222  12.601   7.921  14.357  0.1632  0.0562 -0.0124
 8754W        W24223  13.383   3.478  15.981  0.2251 -0.1303 -0.0818
 8755W        W24224   9.634   3.522   0.310 -0.1345  0.2014 -0.1497
 8756W        W24225  16.974  17.282  16.512  0.3182  0.0692  0.2471
 8757W        W24226   8.655   2.614   3.016  0.0180 -0.0539  0.0257
 8758W        W24227   3.307  16.909   0.896 -0.2082 -0.0223  0.2555
 8759W        W24228   6.511  16.167  15.329 -0.0348 -0.0583  0.0233
 8760W        W24229   4.314   3.672   4.593 -0.1354  0.0603 -0.0062
 8761W        W24230  16.747  15.376  12.912  0.0765 -0.0767 -0.0144
 8762W        W24231   6.074  11.006  11.334  0.0732 -0.1765 -0.5005
 8763W        W24232  17.890   5.431  12.599  0.0981  0.0123  0.0006
 8764W        W24233   0.409   5.414  13.525 -0.0575 -0.0758  0.1210
 8765W        W24234  10.841   6.791   2.948 -0.0461 -0.3704  0.1489
 8766W        W24235  15.904  14.851   3.907 -0.0443  0.2143  0.1581
 8767W        W24236   2.555   2.249   3.641  0.0429 -0.2716  0.1250
 8768W        W24237  10.743   3.407   2.955  0.0193  0.3638 -0.0794
 8769W        W24238  10.572   0.719   5.099  0.0740 -0.2004 -0.1002
 8770W        W24239  14.936  11.455   2.383  0.0664 -0.2499 -0.0795
 8771W        W24240   2.010  17.679  11.556  0.1794 -0.0775 -0.3532
 8772W        W24241   4.862   1.606  11.615 -0.1519  0.1461 -0.0301
 8773W        W24242   8.648   1.545  15.275 -0.0104  0.2923  0.3775
 8774W        W24243  12.609   8.086  15.275 -0.1138  0.0944  0.0847
 8775W        W24244  15.866  17.349   2.214  0.2116 -0.2906 -0.2788
 8776W        W24245  16.876   9.409   4.091  0.3901 -0.2600  0.0335
 8777W        W24246   4.628   7.297   3.944  0.2492 -0.1275 -0.0941
 8778W        W24247  11.125  12.463  11.484  0.2654 -0.0413  0.3265
 8779W        W24248   5.481   0.925   1.025  0.0120 -0.1277 -0.1506
 8780W        W24249   5.935  11.607  14.423  0.0599  0.0579  0.1210
 8781W        W24250   8.331   6.148  12.085 -0.1709  0.2366  0.2741
 8782W        W24251   5.041  14.723   1.344 -0.0502 -0.0214  0.0096
 8783W        W24252  12.483   4.873   3.698 -0.1046 -0.2843  0.2847
 8784W        W24253   1.527   9.463  11.432  0.2431 -0.0271 -0.1672
 8785W        W24254   4.306  15.198  11.909  0.1726  0.0591  0.0213
 8786W        W24255   5.814  11.766   2.286 -0.4293 -0.0472  0.0705
 8787W        W24256  11.422  13.142  10.312  0.3447 -0.0671  0.3500
 8788W        W24257   7.712  16.440  12.606  0.0956 -0.1486  0.1701
 8789W        W24258   2.875  10.574  12.483  0.0274 -0.1763  0.2384
 8790W        W24259   8.955  10.742   4.950  0.1504  0.0020 -0.2376
 8791W        W24260  14.668   1.087   4.380  0.1636  0.0520  0.0658
 8792W        W24261   9.912  15.436   2.730 -0.0726  0.2230  0.1693
 8793W        W24262  13.256  17.445  15.312  0.0352  0.1439 -0.3480
 8794W        W24263   3.044   9.470  12.616 -0.0323  0.1441 -0.3774
 8795W        W24264   9.563   1.674  13.258  0.0004 -0.0051 -0.1433
 8796W        W24265  13.369   0.339  16.376  0.3500 -0.3780 -0.3283
 8797W        W24266   8.945   7.538   0.110 -0.0872  0.3309  0.0602
 8798W        W24267  12.707  10.163   2.527  0.1608  0.2438  0.0623
 8799W        W24268   7.166   3.891  15.184  0.1317 -0.0185 -0.0225
 8800W        W24269   5.306  15.551  15.753  0.0061 -0.1078  0.2823
 8801W        W24270  17.219  11.715   0.488 -0.0120  0.2253 -0.0326
 8802W        W24271  17.965  16.984  13.809  0.2195 -0.1687 -0.0887
 8803W        W24272  15.808  10.726  11.677 -0.0250  0.2665 -0.0733
 8804W        W24273   2.214   5.124  16.390  0.1588  0.0427 -0.2652
 8805W        W24274  15.050   6.668   1.273  0.3655  0.1209 -0.0349
 8806W        W24275   3.902   9.169   3.582 -0.2481  0.6249 -0.2353
 8807W        W24276   9.854   1.609   0.838 -0.0673 -0.1649 -0.1307
 8808W        W24277   4.061  15.813  14.075  0.2111  0.0573 -0.0304
 8809W        W24278   3.413   6.752  15.716 -0.2775 -0.1556 -0.1253
 8810W        W24279  14.654   5.473   0.459 -0.3349 -0.0606 -0.2278
 8811W        W24280  10.143   0.511   6.138  0.3417 -0.0403 -0.2355
 8812W        W24281  12.890   9.387  12.063 -0.0615 -0.1847  0.1065
 8813W        W24282   5.646  14.693   1.871 -0.3638 -0.1549  0.0938
 8814W        W24283  16.362  13.201  14.870 -0.2676  0.1762  0.3383
 8815W        W24284   3.012  12.016   5.158  0.3776 -0.1660  0.0220
 8816W        W24285  14.583   6.221  13.440 -0.0204  0.2375  0.2285
 8817W        W24286   2.093   8.043  13.462  0.0254 -0.2795 -0.0596
 8818W        W24287  11.143  12.174   2.018 -0.0762 -0.0446  0.2128
 8819W        W24288   1.234  11.001   1.552  0.1485 -0.2003  0.0006
 8820W        W24289   2.502   6.624   1.523 -0.0948  0.2260 -0.0593
 8821W        W24290   4.351  10.830   4.540  0.3085  0.1802 -0.0359
 8822W        W24291  15.045   0.486  11.887 -0.3022 -0.0582 -0.3453
 8823W        W24292  13.697   6.752   0.127 -0.0762  0.1151  0.3217
 8824W        W24293  11.758   9.483  14.691  0.0855 -0.3026  0.1091
 8825W        W24294  13.324   7.452  14.591 -0.1237 -0.0020 -0.4654
 8826W        W24295  11.597  14.043   4.008  0.0615  0.1400  0.0176
 8827W        W24296   3.506   4.351  13.842  0.4159 -0.4219  0.1350
 8828W        W24297  15.130   1.080  15.589 -0.0854 -0.0753 -0.2695
 8829W        W24298   0.168  17.297   4.254 -0.3009  0.0175 -0.1467
 8830W        W24299   9.994   4.617  16.018 -0.0549 -0.0787 -0.0595
 8831W        W24300   6.043   5.675  11.150  0.0686  0.0880 -0.0314
 8832W        W24301  17.729   2.942   5.649 -0.0788  0.2060 -0.2173
 8833W        W24302  15.463   9.908   1.023 -0.1850 -0.2256  0.2045
 8834W        W24303  10.266  12.451   5.549  0.0998  0.2099  0.1091
 8835W        W24304  13.143  17.968  15.272 -0.1707 -0.2549 -0.1887
 8836W        W24305  12.205  14.376   2.540 -0.0109 -0.0881 -0.1108
 8837W        W24306   5.363  17.192  14.925 -0.1970  0.2288 -0.0693
 8838W        W24307   1.811  14.130   4.090  0.0616 -0.1727 -0.0343
 8839W        W24308  15.665   2.256  12.130  0.0582 -0.1006 -0.0754
 8840W        W24309   6.760   0.298   0.618  0.0592 -0.0864  0.2493
 8841W        W24310   7.668  13.602   3.301 -0.0815 -0.1832  0.3882
 8842W        W24311  15.444  13.125   2.942  0.3950  0.3404  0.2447
 8843W        W24312  11.823  13.222  13.172  0.0644 -0.0306 -0.2701
 8844W        W24313  10.135   6.135  12.462 -0.2083 -0.1396 -0.3211
 8845W        W24314   0.988   9.000   2.087  0.0062  0.2627 -0.1186
 8846W        W24315  17.727   2.295  12.710 -0.0008 -0.3882 -0.1792
 8847W        W24316  11.429  12.592  11.873  0.1429 -0.0223  0.0858
 8848W        W24317   7.711   6.698   2.658  0.1162 -0.1339  0.0475
 8849W        W24318  17.790  16.468  15.288 -0.1730 -0.2496  0.1948
 8850W        W24319  17.528   3.679  15.941  0.1247  0.0433 -0.0519
 8851W        W24320  11.259   1.188  13.476  0.1089  0.1693  0.1572
 8852W        W24321   8.243   2.171  13.773  0.1018  0.0120  0.0875
 8853W        W24322   2.441  11.272  14.951 -0.3077 -0.0251 -0.1356
 8854W        W24323  11.353   5.390   2.688 -0.0230 -0.1138 -0.0589
 8855W        W24324   3.045   3.654   5.403  0.1237 -0.2445 -0.1766
 8856W        W24325  11.989  12.356  15.753  0.1990  0.0167  0.1736
 8857W        W24326   7.537  16.091  11.617  0.0635  0.1671  0.0831
 8858W        W24327   0.716   5.267  16.185  0.1213 -0.0056  0.1404
 8859W        W24328  13.479   3.375  12.095 -0.3893 -0.2212 -0.2829
 8860W        W24329  11.046   2.463   1.983  0.0643 -0.2045  0.3204
 8861W        W24330   5.487  11.986  15.241 -0.0024  0.3138  0.2682
 8862W        W24331  17.991  13.387   0.249 -0.1562 -0.0028  0.0454
 8863W        W24332  14.185   2.724  13.019 -0.0227 -0.0048 -0.0946
 8864W        W24333  15.661  14.958  11.876  0.0556  0.0433  0.1143
 8865W        W24334  12.531  17.549   3.971 -0.0133 -0.2707  0.0280
 8866W        W24335   1.346  15.913  14.282 -0.0486  0.0854  0.0108
 8867W        W24336  15.573   9.359   1.698  0.0983  0.0178 -0.2311
 8868W        W24337   5.011   5.469  11.399  0.0263 -0.1473  0.0686
 8869W        W24338  10.315   8.356   4.301 -0.1185  0.2744  0.3092
 8870W        W24339  16.163   6.340   5.585 -0.0642  0.2425 -0.0835
 8871W        W24340   0.695   3.940   2.928 -0.0896 -0.1743  0.2344
 8872W        W24341  15.093   2.359   0.285  0.1215 -0.3442 -0.0128
 8873W        W24342  17.801  15.635  11.865 -0.0792  0.0363  0.0266
 8874W        W24343  13.661   9.040  14.000  0.0839 -0.1244  0.0227
 8875W        W24344   9.851   5.555  14.874 -0.2770  0.0817  0.0796
 8876W        W24345  10.671   5.335   4.834  0.0745 -0.0653  0.1192
 8877W        W24346   4.533   5.858  15.569 -0.2476 -0.2081  0.1176
 8878W        W24347   4.255  14.319  11.693  0.2166 -0.1935  0.0854
 8879W        W24348  15.344  10.453   5.203 -0.0777  0.1489  0.1283
 8880W        W24349   0.233  16.672   2.097 -0.2595 -0.0508  0.3487
 8881W        W24350   8.954   0.308   2.416  0.1191 -0.0825 -0.0842
 8882W        W24351   1.373   7.847   2.147  0.1038 -0.2707  0.4351
 8883W        W24352   6.376  12.094  14.133  0.0173  0.1127  0.0291
 8884W        W24353   2.413  13.842   2.498 -0.3839 -0.1680 -0.1907
 8885W        W24354  15.553  10.694  15.568 -0.1341 -0.1108  0.0445
 8886W        W24355  13.462   1.275  11.696  0.0991  0.1245 -0.2951
 8887W        W24356   4.787   1.565  15.728 -0.0613 -0.1998  0.0186
 8888W        W24357   6.546   6.832  12.810  0.0102  0.1096  0.4389
 8889W        W24358   3.326  17.421   1.132  0.2001 -0.0196  0.1246
 8890W        W24359  14.373   3.714   5.831  0.1639  0.0143  0.0012
 8891W        W24360   8.229   4.460  14.367 -0.0089  0.1030 -0.1218
 8892W        W24361  12.490   8.819   2.400  0.1669 -0.1022 -0.1231
 8893W        W24362   8.487   7.801  15.560  0.0090 -0.2334 -0.0319
 8894W        W24363   6.531  11.949  16.336 -0.1633 -0.0850  0.0752
 8895W        W24364   7.106  10.574   5.713 -0.0278 -0.3040 -0.0323
 8896W        W24365   1.454   5.018  14.270  0.1348 -0.1027  0.0495
 8897W        W24366   9.466  11.133  11.540  0.2137  0.1756  0.2067
 8898W        W24367   4.360  17.402  11.714  0.1894  0.0396  0.0026
 8899W        W24368   9.849  14.847  16.313  0.1747  0.1641 -0.1003
 8900W        W24369   5.914   7.754  13.112  0.3468  0.3157  0.0168
 8901W        W24370   3.441  10.410  11.488  0.1777  0.1750 -0.0208
 8902W        W24371   1.988  11.441  13.613  0.0670  0.0368 -0.0224
 8903W        W24372   4.206  16.052  15.174 -0.1922  0.0169  0.0515
 8904W        W24373   6.504  13.090  13.107 -0.1834 -0.0747  0.0150
 8905W        W24374   6.320  13.659  13.230  0.0544  0.0611 -0.1598
 8906W        W24375   8.862   1.213   3.318 -0.1275  0.0443 -0.0735
 8907W        W24376   2.096   0.340   2.452 -0.0550 -0.1956 -0.0210
 8908W        W24377   3.315  13.269  13.310 -0.2119  0.1449  0.0769
 8909W        W24378   5.965   2.858  15.854  0.2547 -0.1041 -0.2247
 8910W        W24379  13.544  13.958  13.921 -0.2282 -0.2041  0.0095
 8911W        W24380   1.741  13.685  11.766  0.0143 -0.0797 -0.1535
 8912W        W24381  17.687  13.292  12.550  0.0183  0.3192 -0.3154
 8913W        W24382  14.297   0.741  14.628 -0.6131  0.0706  0.0272
 8914W        W24383  14.345   1.887   0.282 -0.4004  0.0239  0.1382
 8915W        W24384   8.511   3.258   3.198  0.2564  0.4305  0.0579
 8916W        W24385  17.878   8.934   5.006  0.1998 -0.1177  0.0785
 8917W        W24386  10.067  12.317   6.219  0.2955 -0.2271 -0.1424
 8918W        W24387   1.633   7.926  16.573 -0.1171 -0.0503 -0.2375
 8919W        W24388   5.575  11.263   1.849 -0.1571  0.3305  0.1207
 8920W        W24389  15.824   1.854   0.018 -0.1069 -0.1679 -0.1001
 8921W        W24390   3.367   0.558   3.049 -0.1244 -0.1274  0.0244
 8922W        W24391  17.321   7.993  11.223  0.1078  0.1416  0.0584
 8923W        W24392  16.222   0.755   0.507 -0.1304 -0.1988  0.1343
 8924W        W24393   3.367   7.149  13.948 -0.4498 -0.0039 -0.0438
 8925W        W24394   0.799  17.226   0.716  0.0478 -0.4883  0.0985
 8926W        W24395  13.234  14.948  13.707  0.1289 -0.3305  0.0741
 8927W        W24396   1.348  15.289  11.523  0.0600  0.1378 -0.0167
 8928W        W24397  15.250   0.304  12.695 -0.0996 -0.0336 -0.2193
 8929W        W24398  10.164  10.506  10.610 -0.0055 -0.0011 -0.0810
 8930W        W24399   1.001   0.964   3.041  0.1825 -0.1199  0.1067
 8931W        W24400   1.632   6.245  12.435  0.1494 -0.1102  0.2602
 8932W        W24401   8.102  13.971  13.255 -0.3014  0.2095 -0.2392
 8933W        W24402  10.344  14.282   3.710  0.2102  0.2698 -0.3209
 8934W        W24403  11.453   6.235   1.993  0.0719 -0.0209  0.2182
 8935W        W24404  17.457  17.298   1.149  0.0497  0.1165  0.0135
 8936W        W24405   0.409  11.178  13.484  0.1493  0.0017 -0.1331
 8937W        W24406   2.576   3.044  16.096 -0.2260  0.4114 -0.0867
 8938W        W24407   0.416   6.645   0.325  0.0317 -0.0693 -0.3735
 8939W        W24408  11.412   5.415   4.229  0.0981 -0.2173  0.0003
 8940W        W24409  13.386  10.890   4.790  0.0980  0.0622 -0.0409
 8941W        W24410   5.863  13.459  15.129 -0.2840  0.0417  0.2240
 8942W        W24411  10.815   4.103   4.630 -0.0228  0.0422  0.1519
 8943W        W24412  16.255  15.412  16.129 -0.0978  0.1733 -0.0969
 8944W        W24413  10.830   1.025   6.104 -0.0850 -0.0401  0.0695
 8945W        W24414   3.670   7.590   2.871  0.0858  0.0336 -0.2909
 8946W        W24415   1.908   0.341  12.051 -0.0277  0.2320 -0.1034
 8947W        W24416  16.284   9.466  11.715  0.3054 -0.1291 -0.0825
 8948W        W24417  16.778  10.298  16.605 -0.0452  0.0135  0.2208
 8949W        W24418   2.331  14.162  12.803 -0.0187  0.0994  0.2770
 8950W        W24419   3.265  12.863  12.422 -0.0476 -0.0975  0.0489
 8951W        W24420  14.756   4.750  16.174  0.0839  0.1080 -0.0948
 8952W        W24421  16.903   4.547   1.780  0.1086  0.1103  0.2313
 8953W        W24422  15.918  11.960   0.258  0.2280  0.0035 -0.1955
 8954W        W24423   0.674  10.622  10.672 -0.0040  0.1601 -0.0231
 8955W        W24424  14.158  15.430   5.116  0.0604 -0.4216  0.1881
 8956W        W24425  13.177  14.347  12.758 -0.0677 -0.1530  0.1744
 8957W        W24426   2.082   8.479   3.099 -0.0338 -0.0400 -0.2553
 8958W        W24427  13.994  11.777  16.553  0.0206  0.0804  0.1565
 8959W        W24428  17.092   5.260  15.066  0.2130 -0.3253 -0.1349
 8960W        W24429   5.953  13.970   3.627  0.0630 -0.2659 -0.1846
 8961W        W24430  11.882  11.202  11.947 -0.0257  0.2116 -0.0946
 8962W        W24431   2.344  16.950  13.862  0.0173  0.0086  0.1116
 8963W        W24432   9.059  11.547   4.900  0.1093 -0.2495 -0.1128
 8964W        W24433   2.084  14.543   4.997  0.0499 -0.0111 -0.1113
 8965W        W24434   9.514  13.231   3.409 -0.0506 -0.0389  0.2802
 8966W        W24435  10.283   5.053  14.477 -0.1438 -0.2413 -0.3777
 8967W        W24436  11.160   1.885   2.618 -0.1018 -0.0278  0.2036
 8968W        W24437   4.574  16.542  14.351 -0.1513 -0.1816 -0.0083
 8969W        W24438   3.442  12.043  12.786 -0.1599  0.0049  0.0599
 8970W        W24439   9.410   7.638  14.385  0.0490  0.1238 -0.1513
 8971W        W24440   5.182   4.528  12.995  0.0539  0.0129 -0.3097
 8972W        W24441   9.844  11.335  11.875  0.0781  0.0477  0.0784
 8973W        W24442  10.787  16.997   1.255 -0.2022  0.1553  0.0172
 8974W        W24443   7.135   9.641   3.558 -0.4304 -0.0397 -0.0249
 8975W        W24444   9.210   0.871   3.826 -0.2724 -0.1250  0.1692
 8976W        W24445   5.870   5.280  16.243  0.1150  0.0407  0.3710
 8977W        W24446  15.466   8.655   0.490 -0.1346 -0.0446 -0.3073
 8978W        W24447   9.081  16.379   0.914 -0.0659 -0.0170  0.2555
 8979W        W24448  16.376  16.979   1.778  0.2767 -0.3403  0.2315
 8980W        W24449   5.580  15.721   1.447 -0.1273  0.1486 -0.0877
 8981W        W24450   9.543  13.163   0.468 -0.0623 -0.1204 -0.0566
 8982W        W24451   0.541   0.817  13.410  0.0920 -0.0082  0.2291
 8983W        W24452  12.763  10.280   5.019 -0.2510 -0.1438 -0.5503
 8984W        W24453   4.657   6.322  15.093  0.1689 -0.1163  0.1941
 8985W        W24454   7.837   8.932  14.459 -0.0495 -0.0089 -0.0227
 8986W        W24455   8.615   7.861  13.261 -0.0586 -0.0710  0.0769
 8987W        W24456   5.599   2.443  12.573  0.3892 -0.2132  0.2807
 8988W        W24457   6.090   1.881   3.592 -0.0120  0.2604 -0.0399
 8989W        W24458   6.283  13.173  12.424 -0.1549  0.0475 -0.1845
 8990W        W24459   7.373   3.699   5.345 -0.0741 -0.3529 -0.0596
 8991W        W24460  14.607  12.460  14.157  0.0611  0.1357  0.1424
 8992W        W24461   3.805  15.837  16.320  0.0843  0.0809  0.0985
 8993W        W24462  10.737   4.984   3.974  0.1201  0.1304 -0.2295
 8994W        W24463  12.399  13.038   4.192 -0.0265 -0.2520 -0.0331
 8995W        W24464  14.426  13.225   1.584 -0.2726  0.0876  0.1889
 8996W        W24465  14.297   3.113  14.466 -0.2849 -0.0532 -0.4421
 8997W        W24466  13.954   0.018   5.431 -0.0576 -0.1401 -0.2473
 8998W        W24467   5.988   6.875   2.293 -0.0783 -0.1306 -0.0411
 8999W        W24468   3.970  13.603   0.352 -0.1767 -0.1648  0.0495
 9000W        W24469  15.246   9.673  15.887 -0.1056  0.1857  0.0328
 9001W        W24470   3.639   9.055  15.481  0.0807 -0.1618 -0.0805
 9002W        W24471  13.596   7.795  14.197 -0.1376  0.0140  0.1774
 9003W        W24472   4.640  14.573  16.008 -0.0485  0.1120 -0.3496
 9004W        W24473  14.026   1.054   3.726 -0.0455  0.0182  0.1454
 9005W        W24474   9.113   0.446   1.139  0.2068  0.0330  0.2557
 9006W        W24475  11.787  11.279   0.165 -0.0465  0.0893  0.0039
 9007W        W24476  14.251   2.409  16.350  0.0718  0.2546  0.1199
 9008W        W24477  14.049  12.625  15.918 -0.3764  0.0833  0.1779
 9009W        W24478  10.583   8.223   5.340 -0.0466 -0.0268 -0.1435
 9010W        W24479  16.255   4.671  13.989 -0.0826 -0.0097  0.0477
 9011W        W24480   8.018   9.751  16.465 -0.0640 -0.1295 -0.1339
 9012W        W24481   2.209   0.445  13.672  0.1025 -0.0260  0.0989
 9013W        W24482   7.263   5.566  16.171 -0.0168  0.0667  0.4232
 9014W        W24483   7.896   2.667  12.023 -0.1586 -0.1937 -0.0518
 9015W        W24484   0.284  16.791  16.103 -0.0719 -0.2207 -0.1454
 9016W        W24485  15.635   2.581   3.335 -0.0194  0.1155 -0.0352
 9017W        W24486   0.654  14.579   0.429 -0.1436 -0.1213  0.0667
 9018W        W24487  16.749  13.360   4.671  0.0518 -0.0375  0.0434
 9019W        W24488   1.760  14.851  14.132  0.0717 -0.2976  0.2149
 9020W        W24489  15.446  14.613  13.434  0.1510 -0.1419  0.1640
 9021W        W24490   2.577   4.600  13.290  0.4405 -0.3234  0.1859
 9022W        W24491   3.200   0.172  16.204  0.0067  0.0828  0.1341
 9023W        W24492  16.862   3.075  15.433 -0.0501  0.0384 -0.0860
 9024W        W24493   5.605  13.630  15.501  0.1058 -0.0039  0.2369
 9025W        W24494   6.482  16.315   3.995 -0.0254 -0.3609  0.2390
 9026W        W24495  12.925   6.876   4.473 -0.1090  0.0116  0.2222
 9027W        W24496  13.183  11.645  11.961 -0.0091  0.0771 -0.0681
 9028W        W24497   6.565   1.629   3.470 -0.1220 -0.0814 -0.1254
 9029W        W24498  17.528  17.213  13.695  0.2270 -0.0603 -0.4107
 9030W        W24499   5.776   7.183   0.904 -0.2024  0.1342  0.1393
 9031W        W24500  16.242   7.392  12.931  0.1676 -0.0137 -0.3254
 9032W        W24501   7.995  10.705   2.146 -0.0675 -0.0116  0.1038
 9033W        W24502   3.517  13.324   6.241 -0.1558  0.0255  0.3122
 9034W        W24503  16.383   8.861  13.207  0.0983 -0.1509  0.0229
 9035W        W24504  12.155   3.251   1.218 -0.2634 -0.0180 -0.4677
 9036W        W24505   6.441   3.181  14.654 -0.1445  0.1713 -0.0126
 9037W        W24506  11.348   7.720   0.300 -0.0058  0.0224  0.0433
 9038W        W24507  17.816  11.655  14.570 -0.1196  0.1325  0.1200
 9039W        W24508  12.597  15.500  12.624 -0.1852 -0.0140  0.1791
 9040W        W24509   0.400   9.584   2.666 -0.1991  0.0782  0.4016
 9041W        W24510  14.802  13.746   2.873  0.0229  0.1122 -0.2035
 9042W        W24511   4.222   8.130   2.332  0.1500  0.2429  0.2013
 9043W        W24512   8.343  10.303  14.638 -0.1201  0.1162 -0.1372
 9044W        W24513   0.976   2.252  14.413 -0.1031  0.0281  0.0156
 9045W        W24514   0.895  11.526  14.852  0.2173 -0.0233 -0.0643
 9046W        W24515  10.401  12.439  14.917  0.1059 -0.2075 -0.1006
 9047W        W24516  12.380  11.977   0.992 -0.2283  0.1145  0.2330
 9048W        W24517  17.576   4.212   0.724 -0.0324  0.1444 -0.1873
 9049W        W24518   8.534   0.777  13.603 -0.0945  0.2449 -0.1607
 9050W        W24519   5.280  12.392   2.270  0.0878 -0.1869  0.1385
 9051W        W24520   2.773   7.554  15.043 -0.0930 -0.1699  0.0004
 9052W        W24521  14.204  16.014  12.571 -0.1335 -0.0025 -0.0100
 9053W        W24522  13.444  17.670   4.832  0.0966  0.0391  0.4706
 9054W        W24523   7.575   9.350  11.166  0.3025  0.1016  0.1293
 9055W        W24524   9.864   0.102  15.869 -0.3205  0.0012  0.1998
 9056W        W24525  17.227  15.207   3.798  0.0367  0.0356  0.0232
 9057W        W24526   3.278  15.451  13.570  0.0523 -0.0699  0.3090
 9058W        W24527   7.385  15.396   4.503 -0.1833 -0.2154  0.1938
 9059W        W24528   4.459   9.828   3.275  0.1208  0.0308 -0.1683
 9060W        W24529  14.363   1.081   1.574  0.0234 -0.0766 -0.1821
 9061W        W24530   5.914   0.099  10.708 -0.0004 -0.0592 -0.2195
 9062W        W24531  17.641  13.626   0.669 -0.1175  0.2290  0.1216
 9063W        W24532  14.453  11.621   0.125  0.0237  0.2198 -0.1468
 9064W        W24533   2.776   2.008  16.078  0.1538  0.2412 -0.0093
 9065W        W24534  10.908   2.034  13.667 -0.1444  0.2420 -0.3150
 9066W        W24535  14.923  17.170   1.372 -0.0803 -0.0384 -0.1092
 9067W        W24536  11.267   0.683  13.130 -0.0343 -0.1858  0.0222
 9068W        W24537  17.396  12.708  13.939 -0.0732  0.2282  0.2312
 9069W        W24538   1.588  15.909  12.503  0.0008 -0.4253  0.0071
 9070W        W24539   5.881   0.141  12.520  0.0281  0.0553 -0.3170
 9071W        W24540  11.287  12.646   5.439 -0.0135 -0.1803  0.1250
 9072W        W24541  10.309  12.858  11.502  0.2976 -0.0063 -0.3090
 9073W        W24542   2.127  12.820  16.092  0.4173  0.1428  0.0690
 9074W        W24543  12.588   3.596   1.654 -0.0387  0.1462  0.1246
 9075W        W24544  12.809   5.220   4.291  0.0062 -0.0473  0.2846
 9076W        W24545   6.996  10.505  11.953  0.1423 -0.0176 -0.0417
 9077W        W24546   7.303   7.337  16.021  0.1062 -0.2179 -0.1306
 9078W        W24547   6.984  13.489  14.999  0.3653  0.0503  0.2727
 9079W        W24548  14.188  17.120  16.297 -0.0411 -0.0842 -0.0177
 9080W        W24549  15.579  12.829  11.660 -0.3236  0.1065 -0.0318
 9081W        W24550  12.418   2.926   2.184 -0.1004  0.1316  0.1075
 9082W        W24551   1.242  14.063   4.104 -0.2205 -0.1138  0.0809
 9083W        W24552  17.825   2.434  13.592  0.2140 -0.1121  0.0885
 9084W        W24553  17.833  17.378  14.073 -0.1111  0.0438  0.1048
 9085W        W24554   4.838  11.951   2.067 -0.0373  0.2108  0.0675
 9086W        W24555   9.068  11.795  13.450 -0.0700  0.3287  0.1212
 9087W        W24556   3.457   6.802  16.534  0.1109  0.0474  0.0179
 9088W        W24557   9.122  16.434   5.340 -0.1575  0.0976 -0.1743
 9089W        W24558  10.224  17.272  11.978  0.0820 -0.0341  0.2232
 9090W        W24559   3.089  14.504  14.494  0.4259  0.0959 -0.2068
 9091W        W24560  12.136   0.878  11.376  0.1416  0.2686 -0.1436
 9092W        W24561  14.566   0.515   0.925  0.0447  0.2383 -0.1830
 9093W        W24562  15.976   6.964  15.259  0.1578 -0.1793  0.0787
 9094W        W24563   6.176   8.089   4.091 -0.1921  0.0212  0.1454
 9095W        W24564   7.841  12.408   0.094 -0.3222  0.0308  0.2115
 9096W        W24565   0.871   9.606   0.122  0.1098 -0.2675  0.0291
 9097W        W24566   0.278   1.794  11.254  0.0865 -0.0887 -0.0759
 9098W        W24567  12.240  11.905  13.610 -0.0288  0.1116  0.1491
 9099W        W24568   2.804  15.409  14.167  0.2155 -0.2284  0.2148
 9100W        W24569  16.866  16.701   2.278 -0.2126 -0.1365 -0.0793
 9101W        W24570  14.337  12.591  13.384  0.0630  0.1837 -0.1245
 9102W        W24571   8.731   1.292  14.804 -0.3645  0.1395  0.0553
 9103W        W24572  11.052   3.383   4.169 -0.0681  0.0320  0.1381
 9104W        W24573   7.451   8.010  11.836 -0.1599  0.2732  0.3157
 9105W        W24574   3.322   8.103  11.004 -0.2749  0.2047  0.1581
 9106W        W24575  16.115   7.760   4.015  0.1076  0.0439  0.0087
 9107W        W24576   6.359   3.014   0.348 -0.0278  0.2689  0.3018
 9108W        W24577  13.610  14.217  11.840  0.1451 -0.0701 -0.0581
 9109W        W24578   5.651  10.768  15.755 -0.0978  0.1961 -0.0589
 9110W        W24579  13.642   9.468   0.474  0.1631 -0.1252  0.1964
 9111W        W24580  13.037  17.276   4.878 -0.3296 -0.1306  0.1590
 9112W        W24581  12.355   4.335   2.564 -0.1982  0.0121  0.2417
 9113W        W24582  11.869  16.304  13.501 -0.1178  0.1598 -0.0184
 9114W        W24583   7.619  10.526  16.122  0.1209  0.0455  0.0522
 9115W        W24584  11.979  15.953   3.564 -0.1556  0.0891 -0.1910
 9116W        W24585   9.435   5.871   3.243 -0.2650  0.0505  0.0390
 9117W        W24586  12.527   4.939   5.856 -0.2748 -0.0953  0.2226
 9118W        W24587  15.076  17.414  12.898 -0.1682 -0.2505  0.1193
 9119W        W24588   0.585  12.556   2.940  0.1124 -0.0596 -0.3082
 9120W        W24589   9.234  11.943  12.599  0.2462  0.0849  0.1842
 9121W        W24590   6.843   2.042  12.806 -0.2450  0.0299  0.0131
 9122W        W24591  10.283  16.325   1.114  0.2348 -0.1631 -0.2521
 9123W        W24592   3.085   5.654  16.347 -0.0166 -0.2014  0.1235
 9124W        W24593  16.973  14.842  10.760  0.1420 -0.0794 -0.1877
 9125W        W24594   5.161   9.092   5.038  0.2329 -0.1093  0.4655
 9126W        W24595   5.017  15.529   3.306 -0.2299 -0.0410 -0.1262
 9127W        W24596  16.842   8.458   4.507  0.0008 -0.1581 -0.0038
 9128W        W24597   8.771   0.854  14.026  0.0460  0.2326  0.1062
 9129W        W24598  14.925  10.945  11.267 -0.2453  0.2632 -0.4825
 9130W        W24599  10.278  14.278   4.223  0.0009 -0.0905  0.1373
 9131W        W24600  13.991  15.829   2.850  0.0785 -0.2766  0.0119
 9132W        W24601   6.852   1.140   6.142  0.0092  0.1003  0.4260
 9133W        W24602   2.750  15.749   3.914 -0.0186  0.2190  0.0766
 9134W        W24603   4.395   1.854  15.522 -0.0751 -0.2283 -0.2386
 9135W        W24604   9.774  12.076   0.385  0.0337  0.2284  0.1493
 9136W        W24605   1.445  12.589  12.033  0.0708  0.0023  0.0283
 9137W        W24606   2.541  10.232   0.517 -0.1097 -0.3872 -0.2501
 9138W        W24607  17.496   0.435   5.529 -0.0671  0.1162 -0.0565
 9139W        W24608  13.250  15.972   0.598  0.0139  0.0622 -0.0801
 9140W        W24609  14.270  16.847   0.121  0.2082  0.0501 -0.0074
 9141W        W24610  14.642   6.784  11.293  0.0958 -0.2366  0.0302
 9142W        W24611  11.737   4.166  16.281 -0.1009 -0.0595 -0.2079
 9143W        W24612   7.492   8.355   6.364  0.1124  0.0307  0.2032
 9144W        W24613   7.248   6.928  14.525  0.1899 -0.4657  0.1300
 9145W        W24614   3.727  11.299  16.313  0.0688 -0.0567  0.0019
 9146W        W24615   7.313   8.980   4.954  0.0596 -0.1938  0.2202
 9147W        W24616   3.707  11.111   5.671 -0.2677 -0.2246  0.1774
 9148W        W24617  11.844  12.546   5.299  0.1624 -0.2200 -0.0173
 9149W        W24618   4.255  17.695  12.147  0.1206 -0.2256 -0.2388
 9150W        W24619   5.878  15.777  13.798  0.2113  0.1118  0.1428
 9151W        W24620  16.307  17.846   1.705  0.0345 -0.2008 -0.1027
 9152W        W24621   0.118   6.271  12.114 -0.2236  0.2098 -0.1032
 9153W        W24622   3.838   7.942   3.746 -0.0844 -0.0421  0.0305
 9154W        W24623  15.215   2.959  10.992 -0.0279 -0.2686  0.0212
 9155W        W24624  11.278  12.094  11.789  0.0710  0.1984  0.1575
 9156W        W24625   2.510  15.528   2.792 -0.0699  0.0159 -0.1979
 9157W        W24626  10.618   8.439  13.065 -0.1945  0.1664  0.0957
 9158W        W24627  14.204  14.320   2.284  0.1159  0.0095 -0.0296
 9159W        W24628   9.603  15.684   3.051  0.2483  0.0867 -0.0340
 9160W        W24629  15.172   0.299   5.839  0.1312 -0.1341  0.2490
 9161W        W24630   4.375   6.159  14.127  0.0659  0.1276 -0.1436
 9162W        W24631  10.793  12.527  11.085 -0.2608  0.0804 -0.0192
 9163W        W24632   9.682  10.865   0.153  0.0553  0.1175 -0.2098
 9164W        W24633  10.868  13.414   1.851 -0.1402 -0.4055 -0.0567
 9165W        W24634   9.020  15.603  14.701 -0.1198  0.2233  0.1509
 9166W        W24635   5.371  14.131  14.942 -0.0713  0.3183  0.0272
 9167W        W24636  13.127  11.925  10.650 -0.0055 -0.1727  0.0777
 9168W        W24637   0.591  12.508   0.821  0.3741  0.3118  0.1253
 9169W        W24638   2.852  14.158  15.860 -0.1187  0.2359  0.2554
 9170W        W24639   8.375   4.334   6.382  0.0437  0.3337 -0.2813
 9171W        W24640  10.760  11.320   1.833 -0.1419  0.0600 -0.4617
 9172W        W24641  10.454   9.678  15.539  0.0281  0.2299 -0.0622
 9173W        W24642   4.890   3.852  12.524  0.1456  0.2376 -0.2065
 9174W        W24643  16.319  10.110  12.346  0.1783  0.0058  0.1232
 9175W        W24644  13.852   7.221   1.663  0.0556  0.1986 -0.0833
 9176W        W24645   8.085   4.681   2.178 -0.1945 -0.3712  0.1268
 9177W        W24646   2.419   5.684   4.238 -0.0568  0.2801 -0.3212
 9178W        W24647   2.015   0.043   6.622 -0.1197  0.0236  0.0893
 9179W        W24648  13.743  14.370  12.869 -0.2956  0.1279 -0.2729
 9180W        W24649  15.219   7.640  12.129 -0.1676 -0.0511  0.2173
 9181W        W24650   8.309   9.448   0.308 -0.2030 -0.0567 -0.0134
 9182W        W24651  11.650   4.032  11.694 -0.2072 -0.1899 -0.1464
 9183W        W24652  14.261   7.211   3.932 -0.2215  0.1066  0.2188
 9184W        W24653  16.481  13.265   3.475 -0.1813 -0.0407 -0.1594
 9185W        W24654   6.772  12.792   4.539  0.2643 -0.0102 -0.2105
 9186W        W24655   7.654   6.638  15.322 -0.1142 -0.0244 -0.5013
 9187W        W24656  13.983  14.228   0.002 -0.0922 -0.1543 -0.5474
 9188W        W24657  10.842   4.837  12.362  0.2194  0.0058  0.0023
 9189W        W24658  16.484   9.336   0.780 -0.1020 -0.3929  0.2654
 9190W        W24659  10.007   0.650   3.655  0.2052  0.1628  0.0866
 9191W        W24660  17.150  15.681  11.198  0.2823  0.1632  0.2731
 9192W        W24661   2.560  11.259   0.153 -0.0002 -0.2862  0.0377
 9193W        W24662   3.263   5.163   2.151 -0.2179 -0.1047 -0.1234
 9194W        W24663   8.943  14.095   5.108  0.2019  0.1900  0.0832
 9195W        W24664   3.122   7.524   2.578  0.0366 -0.2766  0.1827
 9196W        W24665   7.431   6.462  13.530  0.0457 -0.1789 -0.0053
 9197W        W24666   4.107   2.155  15.931 -0.2569  0.3995 -0.0297
 9198W        W24667  13.267  14.619   6.267  0.1735 -0.0554  0.0016
 9199W        W24668   2.714  17.114   4.701  0.4206  0.1582 -0.2650
 9200W        W24669   0.976  10.580  12.673 -0.0648 -0.0250  0.1156
 9201W        W24670   6.573  10.394   4.260  0.0691 -0.0612 -0.1996
 9202W        W24671  12.167   7.448   3.682 -0.1480  0.1841 -0.0352
 9203W        W24672   8.595  14.068   1.292 -0.0207  0.0622 -0.1454
 9204W        W24673   8.594   7.763   5.325  0.0584  0.1791  0.0405
 9205W        W24674  13.735  13.727   2.494  0.0858  0.1683 -0.0581
 9206W        W24675   0.610   5.088   4.581 -0.1769  0.1760  0.2095
 9207W        W24676  17.681  10.200   5.486  0.0485  0.0913 -0.4783
 9208W        W24677  15.812  15.796   3.110 -0.1619  0.0209  0.2159
 9209W        W24678   8.895  10.747  12.193 -0.1127 -0.2237 -0.1651
 9210W        W24679   6.783   6.005   2.339 -0.2953  0.0550  0.2026
 9211W        W24680   9.759  16.789   3.159  0.0926  0.1446 -0.0046
 9212W        W24681   1.234   9.239   0.440  0.1826  0.2217  0.1950
 9213W        W24682   2.365  10.474   4.369 -0.3777 -0.2819  0.0476
 9214W        W24683  10.416  13.424   4.601 -0.1406 -0.0753 -0.2676
 9215W        W24684   3.288   1.983  12.606 -0.0005 -0.1043  0.0833
 9216W        W24685  16.482  15.378   2.014 -0.1828 -0.1122 -0.0625
 9217W        W24686  15.362   2.221  16.478 -0.1431  0.0433 -0.2172
 9218W        W24687   3.550   4.750   3.828  0.0838  0.1384 -0.0378
 9219W        W24688  17.479   3.236   1.005 -0.0680 -0.1892 -0.2673
 9220W        W24689  14.480   7.392  15.173  0.4241  0.1226 -0.2189
 9221W        W24690  13.985  14.229  16.037 -0.3094 -0.0521  0.1228
 9222W        W24691  10.098   5.553  15.337  0.0501  0.0171  0.1987
 9223W        W24692  15.143   7.656  14.596  0.2642 -0.1356  0.0764
 9224W        W24693   5.551   8.515   5.469  0.1864 -0.3110 -0.0930
 9225W        W24694  11.669  14.830   4.992  0.0626  0.0418  0.0571
 9226W        W24695   4.732  17.108   4.880  0.0629 -0.1910 -0.1795
 9227W        W24696   1.377  13.542  15.026  0.0557  0.2994  0.0831
 9228W        W24697   1.890   7.536  12.772  0.0470  0.3054  0.0589
 9229W        W24698   0.415   3.707  15.912 -0.0992  0.0141 -0.1489
 9230W        W24699  17.675   5.449   0.362  0.0284 -0.3340 -0.0003
 9231W        W24700   6.976  10.347  13.685  0.0879 -0.1229  0.0537
 9232W        W24701  10.521   2.843   0.722  0.0650  0.2220  0.1148
 9233W        W24702   1.163  12.289  16.341  0.0965  0.0869 -0.1924
 9234W        W24703   4.649   9.553   3.697  0.1891  0.2496  0.0439
 9235W        W24704   8.571   1.744   2.303 -0.0744  0.2231 -0.2511
 9236W        W24705  14.569   4.557  14.946 -0.1322  0.0244 -0.0402
 9237W        W24706   9.027  14.892  11.171  0.1899  0.1810  0.0484
 9238W        W24707  15.911   1.644  11.979  0.2663  0.0188 -0.0926
 9239W        W24708  16.763  16.520  14.981 -0.0415 -0.1958  0.3609
 9240W        W24709  11.895   5.118  16.357 -0.1715 -0.1271 -0.1762
 9241W        W24710   3.601   4.525   1.040 -0.1108 -0.1185  0.0863
 9242W        W24711  12.924  16.508   3.109 -0.1561  0.1524 -0.0224
 9243W        W24712   8.593  15.778   5.008 -0.0480 -0.0808  0.0411
 9244W        W24713  16.872  10.332  13.925  0.0646  0.0087  0.2434
 9245W        W24714  16.764  15.773   2.571  0.1866 -0.1626  0.2705
 9246W        W24715   8.430  11.976   0.670 -0.0351  0.0848  0.0515
 9247W        W24716   7.481  11.909  10.978  0.1981  0.0586 -0.0747
 9248W        W24717  11.166   5.382   4.701 -0.0502 -0.0984 -0.0198
 9249W        W24718  12.557   9.692  14.501 -0.0602 -0.1194  0.0114
 9250W        W24719  11.527   0.682   1.542 -0.0068 -0.0120 -0.1212
 9251W        W24720  10.826  10.940  11.637 -0.0334  0.0516 -0.0350
 9252W        W24721   3.282   7.083   4.019 -0.0560 -0.0373  0.0787
 9253W        W24722  11.128   1.325  15.700  0.1448 -0.2209  0.2853
 9254W        W24723   6.036   8.906  11.800 -0.1487 -0.1127  0.2794
 9255W        W24724  15.630  17.635  14.049 -0.0539 -0.0417  0.0018
 9256W        W24725   2.740   1.648  12.101 -0.0584  0.2672  0.1120
 9257W        W24726  13.246   3.743  13.331  0.0949 -0.3269  0.1136
 9258W        W24727  14.981  15.761   4.112  0.0239  0.1200 -0.1334
 9259W        W24728   4.633  10.213  14.768  0.2785  0.1741  0.2331
 9260W        W24729  14.436   1.846   1.479  0.1985 -0.0265  0.2290
 9261W        W24730   5.742  12.405  15.270  0.2600 -0.0942 -0.1557
 9262W        W24731   3.198  15.187   0.078 -0.0143 -0.0378  0.2425
 9263W        W24732  17.730  13.314  12.052 -0.1471  0.1894 -0.3953
 9264W        W24733   1.016  11.939   4.669  0.0780  0.4325  0.1528
 9265W        W24734   2.985   9.984  12.512 -0.1215 -0.2311 -0.0384
 9266W        W24735   8.284   7.141  14.441  0.0177 -0.1688  0.0144
 9267W        W24736   9.308  17.483  15.653  0.3350  0.2914 -0.1787
 9268W        W24737   4.942   5.767  14.730 -0.2165  0.3657 -0.0661
 9269W        W24738   2.913   2.360   2.435  0.1880 -0.1256  0.2281
 9270W        W24739   0.874   8.046   0.583  0.4829  0.2095  0.6161
 9271W        W24740  12.791   2.479   3.786 -0.0447  0.1061  0.0704
 9272W        W24741  10.163   7.450   4.274 -0.0570  0.1656 -0.0473
 9273W        W24742   6.388  17.912  13.314  0.0687 -0.3423 -0.1831
 9274W        W24743  10.591  17.732  15.975 -0.0337 -0.1950 -0.2428
 9275W        W24744  15.291  16.663   1.621 -0.0567  0.1508 -0.0126
 9276W        W24745   9.529   5.091   2.588  0.0187  0.2400  0.1242
 9277W        W24746   2.240  10.695  16.258 -0.1155  0.0167  0.1971
 9278W        W24747   7.761  10.422  13.366  0.4319  0.1542 -0.0550
 9279W        W24748   2.185  16.971   4.908 -0.0206  0.0287  0.3719
 9280W        W24749  13.620  17.546   6.164 -0.1390  0.2460 -0.0078
 9281W        W24750   8.929  15.695  14.052  0.2067 -0.1943 -0.3321
 9282W        W24751   8.585  13.693   4.291 -0.2430 -0.0819  0.0755
 9283W        W24752  16.666   9.840   3.272 -0.1756  0.2927 -0.2419
 9284W        W24753  10.862   2.309  11.609  0.0218  0.1497 -0.4042
 9285W        W24754  12.668   6.536   4.731 -0.0404  0.0379 -0.0749
 9286W        W24755  16.364   6.355  12.294 -0.1268  0.2369 -0.0318
 9287W        W24756   8.743  14.363  12.538  0.2351 -0.1324  0.1823
 9288W        W24757   9.126   8.489   3.300  0.1007 -0.1144  0.0630
 9289W        W24758  16.694   5.965  16.059  0.1380  0.3387 -0.0650
 9290W        W24759  12.802  11.415  14.752 -0.1772  0.4712  0.0158
 9291W        W24760  11.745  14.159   2.353  0.1251  0.1000 -0.1089
 9292W        W24761   7.619  13.603   3.934  0.0018  0.2238  0.1293
 9293W        W24762   4.553  16.075   3.945  0.0495  0.1044 -0.2880
 9294W        W24763  16.297   8.090   1.035 -0.1344 -0.0151 -0.1245
 9295W        W24764  11.296  10.859  13.040 -0.0535  0.0041  0.1558
 9296W        W24765  14.763   1.375  15.322 -0.0983  0.2591  0.0529
 9297W        W24766  11.815   4.549  14.347  0.1018  0.1638  0.0272
 9298W        W24767   1.119  14.498  14.664 -0.0711 -0.0466 -0.0213
 9299W        W24768  15.616  15.792  11.632 -0.1552  0.3936 -0.0310
 9300W        W24769   3.069   7.518  15.588 -0.0132  0.4019 -0.1752
 9301W        W24770   9.148  17.848   2.304 -0.1179  0.2163  0.0241
 9302W        W24771  14.160   7.833  15.959 -0.2359  0.0237 -0.1650
 9303W        W24772  10.141   8.730  12.987  0.3986 -0.1727  0.1599
 9304W        W24773   8.358  14.085   5.152  0.1336  0.0429  0.0986
 9305W        W24774   7.286   7.874   2.168  0.0634 -0.0796 -0.1082
 9306W        W24775  17.049   8.972  12.582  0.1677 -0.1138  0.0609
 9307W        W24776   4.973   1.011   4.396 -0.1810  0.2426  0.0328
 9308W        W24777  12.089   2.375  12.218 -0.1745  0.2635  0.2999
 9309W        W24778  17.113   1.654   6.157  0.1927 -0.0844  0.3508
 9310W        W24779   0.023   4.680   2.261  0.0541 -0.0585 -0.0195
 9311W        W24780  16.752   4.645  13.822 -0.0491 -0.2752  0.1976
 9312W        W24781   0.762   3.325  15.198 -0.2385  0.1620  0.4206
 9313W        W24782   8.627   5.198   4.356  0.0712 -0.2622  0.0063
 9314W        W24783  16.193  13.193   3.019 -0.1796  0.0604  0.1543
 9315W        W24784  12.686   1.379   1.625 -0.0236  0.0089  0.2887
 9316W        W24785   2.424   8.227   0.602 -0.0894  0.0940  0.1628
 9317W        W24786   0.361   0.058   1.031 -0.0261 -0.0347 -0.0170
 9318W        W24787   8.109  14.000   4.622  0.1120 -0.2169 -0.2361
 9319W        W24788   5.147   4.623   4.435 -0.0261 -0.0475  0.1075
 9320W        W24789   4.623  11.251   5.922  0.0241  0.1025 -0.1101
 9321W        W24790   3.122  12.181  15.533  0.0549  0.1504 -0.0125
 9322W        W24791  16.343   2.539   4.633 -0.0225 -0.3666  0.1410
 9323W        W24792  15.233  13.217  16.590 -0.0478 -0.2588  0.0751
 9324W        W24793   2.591  17.626  15.015 -0.0789  0.1307 -0.1217
 9325W        W24794   2.568   2.331  11.608  0.1254  0.1337  0.1306
 9326W        W24795   8.279  17.231   2.886  0.1292  0.2111 -0.0754
 9327W        W24796   4.868   5.701  15.203  0.0855  0.1720 -0.0075
 9328W        W24797   1.986   7.562  13.293 -0.1122 -0.0482  0.0686
 9329W        W24798  17.270  12.661   2.616 -0.1975 -0.1195  0.0854
 9330W        W24799   6.883  15.576  14.049  0.1444  0.0804  0.1679
 9331W        W24800  15.288  14.895   3.434 -0.0183  0.0370  0.1591
 9332W        W24801   7.748   3.008  14.846 -0.3527 -0.0830 -0.1454
 9333W        W24802  10.415  11.036  15.189 -0.0022  0.2457 -0.0585
 9334W        W24803  11.293   7.454   1.828 -0.0074  0.0507  0.1550
 9335W        W24804  12.941  14.418  10.489  0.0545 -0.2766  0.0812
 9336W        W24805   9.934   5.629   2.614 -0.2415 -0.5113  0.2913
 9337W        W24806   4.444  12.005  15.736 -0.0240  0.1082  0.5111
 9338W        W24807   7.134  14.478  13.520  0.0084 -0.1690  0.0849
 9339W        W24808  10.346   0.347   4.813  0.0564 -0.0756 -0.1592
 9340W        W24809   5.831   6.079   4.268 -0.2668  0.0114 -0.1602
 9341W        W24810  12.024  16.811  15.911 -0.2627  0.0167  0.1484
 9342W        W24811  12.371   6.644   0.936 -0.1591  0.4120  0.0917
 9343W        W24812   6.380  13.257   0.259 -0.0365  0.0795  0.0430
 9344W        W24813  11.704   7.981   4.560 -0.1667  0.0971  0.0375
 9345W        W24814   2.838   1.785  13.000  0.1801 -0.0313  0.3027
 9346W        W24815   2.615  16.414   4.208  0.1317  0.0981 -0.0537
 9347W        W24816   7.546   1.279   3.143 -0.0230  0.0472 -0.0661
 9348W        W24817  17.068   0.631   2.435 -0.1506  0.0227 -0.1784
 9349W        W24818   2.207   8.152  15.246  0.0664  0.0374 -0.2961
 9350W        W24819   2.142   2.024   0.319  0.2267 -0.0597  0.1243
 9351W        W24820  12.092  13.794  13.285 -0.0169 -0.1178  0.2160
 9352W        W24821  13.008   1.231   5.828 -0.1089  0.0170 -0.0847
 9353W        W24822   0.617  13.373   2.224 -0.0258 -0.1777  0.1772
 9354W        W24823  15.144   0.593   1.534 -0.2023 -0.0597 -0.0791
 9355W        W24824   8.945   0.510   0.472  0.0291 -0.1570 -0.1611
 9356W        W24825   2.994   8.120   4.030  0.0524 -0.3978 -0.0595
 9357W        W24826  10.621  16.653   2.329 -0.3124  0.1798 -0.2073
 9358W        W24827   1.866  11.133   3.336  0.0303  0.0568 -0.0250
 9359W        W24828   6.446  13.769   4.475 -0.0056  0.1697 -0.0788
 9360W        W24829  17.520   0.571  13.542 -0.1399 -0.0426  0.1126
 9361W        W24830   4.150   4.852   4.902  0.1056  0.0165  0.0082
 9362W        W24831  16.194   4.393   3.218  0.0184 -0.0211  0.0783
 9363W        W24832   6.385   5.503   3.314 -0.0606  0.1643  0.2243
 9364W        W24833   5.916  16.118  10.822 -0.1374  0.4061  0.2743
 9365W        W24834   4.465   1.070   0.327  0.1410  0.0667  0.0150
 9366W        W24835   9.818   3.784  15.061 -0.0885  0.0588 -0.0681
 9367W        W24836   4.982   2.431  13.501  0.0989  0.0379  0.0209
 9368W        W24837  16.539   7.320   0.385  0.3705 -0.0336 -0.1795
 9369W        W24838  10.022   0.562  11.968  0.0289  0.2873 -0.0522
 9370W        W24839   7.308  12.858   0.409  0.1202 -0.2146 -0.0969
 9371W        W24840  11.539  16.349   0.068 -0.2094 -0.3313  0.0343
 9372W        W24841   5.134   2.199   3.770  0.0285 -0.2302 -0.0651
 9373W        W24842   0.286   3.325  13.236 -0.1017  0.2127 -0.1801
 9374W        W24843   9.602  10.014  16.538  0.0780 -0.0036  0.0934
 9375W        W24844  10.577  16.638   4.992  0.0247  0.1124 -0.0323
 9376W        W24845  11.402   6.086  16.237  0.0837 -0.0505  0.1341
 9377W        W24846   5.917  11.842   2.808  0.1802  0.1885  0.1114
 9378W        W24847  15.778  12.097  16.016  0.2216 -0.0406  0.2299
 9379W        W24848  16.302   9.484   1.376 -0.1214 -0.2457 -0.2026
 9380W        W24849  14.048  11.103  13.077 -0.0518  0.1004 -0.1125
 9381W        W24850  16.435   1.558  15.428  0.0718  0.2742  0.4496
 9382W        W24851  17.741  13.947   4.343  0.1180  0.1488 -0.0120
 9383W        W24852   8.582   0.133   0.725 -0.1076  0.0841 -0.1956
 9384W        W24853   4.949   7.291  12.349 -0.1983  0.1921 -0.0340
 9385W        W24854   1.789   3.862  14.500  0.1827  0.0762 -0.0222
 9386W        W24855  15.317   0.236   4.670  0.2741  0.2707  0.1524
 9387W        W24856   5.952   5.254   2.858 -0.1505 -0.1206 -0.2343
 9388W        W24857   9.694  12.318   4.214 -0.0621  0.0045  0.0625
 9389W        W24858   9.982  17.436  15.429  0.1506  0.1973 -0.0369
 9390W        W24859   6.342   7.092  16.188 -0.3878 -0.0120 -0.0372
 9391W        W24860  12.732  12.858  13.553 -0.0902  0.2503 -0.0215
 9392W        W24861   7.647   9.763  15.033  0.1723  0.2329  0.0923
 9393W        W24862   2.431  11.367   5.041  0.0254  0.1975 -0.2448
 9394W        W24863  15.934  16.500  16.529 -0.1384  0.2085 -0.1820
 9395W        W24864  12.998  12.532   5.053  0.1755 -0.1814 -0.0559
 9396W        W24865   7.868  12.878  13.450 -0.0215  0.1987  0.0008
 9397W        W24866  15.099  16.962  16.353  0.2764 -0.1877 -0.0572
 9398W        W24867  12.583   8.055  12.780  0.1824 -0.0322  0.0583
 9399W        W24868   8.251  12.698   1.397 -0.2034 -0.0706  0.1866
 9400W        W24869  17.348  14.177   0.145  0.0269 -0.2427  0.0415
 9401W        W24870  12.765   4.643  12.390  0.1682 -0.0637 -0.1249
 9402W        W24871   3.255   0.305  15.099  0.1478  0.1590 -0.0950
 9403W        W24872  16.897  13.398  13.437  0.1755 -0.0567  0.0728
 9404W        W24873   2.699   4.962   4.994 -0.1571 -0.4591 -0.1145
 9405W        W24874  10.013  13.247  16.088  0.0816 -0.3010 -0.2218
 9406W        W24875  11.320   8.718   2.353 -0.1219  0.0216  0.2642
 9407W        W24876  14.364   5.014  14.982 -0.1105  0.5192  0.1683
 9408W        W24877  11.875   6.109  10.931  0.1357 -0.0830  0.2812
 9409W        W24878  10.980  15.508   3.195  0.3676  0.2629  0.2045
 9410W        W24879   5.723   4.905   0.054  0.3064  0.0086  0.0868
 9411W        W24880  14.354   1.662   3.679  0.0394  0.1840 -0.1520
 9412W        W24881  16.057  17.252  13.370 -0.0725  0.0839  0.0338
 9413W        W24882  17.871   4.484   1.431  0.0282  0.0211 -0.0021
 9414W        W24883  14.616   0.300   3.477  0.1684  0.1424  0.2467
 9415W        W24884   1.077  14.040   1.413 -0.0728  0.1862  0.2672
 9416W        W24885  16.515  11.438   3.281  0.1117 -0.1283 -0.0109
 9417W        W24886   5.892   7.736   3.836 -0.1183  0.0122  0.0298
 9418W        W24887   7.381  10.697  16.501 -0.0990 -0.0149 -0.0322
 9419W        W24888   3.744  14.336   2.488 -0.0281 -0.0219 -0.0695
 9420W        W24889   3.238   9.635  12.123 -0.1312  0.1538 -0.0211
 9421W        W24890  13.467   6.034  11.000  0.0820 -0.2509 -0.0029
 9422W        W24891   8.398   2.252   0.927 -0.0451  0.1151 -0.0932
 9423W        W24892   4.366  13.090  12.926 -0.2108  0.1738 -0.0449
 9424W        W24893   5.068  12.921  14.883  0.1811 -0.3097  0.3207
 9425W        W24894   9.129  12.063   3.037  0.0879 -0.1637 -0.3132
 9426W        W24895   4.522  11.290  12.967  0.0101 -0.1438 -0.0729
 9427W        W24896   4.656   7.050  11.636  0.0101 -0.0469 -0.3887
 9428W        W24897   2.551  14.611   4.243 -0.0449  0.2468  0.1475
 9429W        W24898   4.154  17.560  12.690 -0.2971  0.4244  0.0329
 9430W        W24899   4.468  13.914  12.803 -0.2659  0.0914  0.2617
 9431W        W24900   8.537   9.668  13.440  0.2262  0.1191 -0.1985
 9432W        W24901   0.828  15.988  13.959 -0.0151  0.0536 -0.0199
 9433W        W24902  15.081   6.389   2.509  0.0232 -0.0328 -0.1973
 9434W        W24903  12.179   2.223  14.662 -0.0033 -0.0005 -0.0175
 9435W        W24904   8.148   3.428  13.215  0.1036  0.0308  0.2658
 9436W        W24905  10.021   4.669  14.213 -0.2551 -0.0427 -0.0413
 9437W        W24906   8.139  10.535  12.022  0.0511  0.0317  0.0453
 9438W        W24907   7.171   3.733  13.351 -0.1416  0.2726  0.1798
 9439W        W24908  14.131   5.937   3.353  0.0206 -0.2512 -0.2599
 9440W        W24909   7.342   2.211   1.787 -0.1072  0.2489 -0.1156
 9441W        W24910  13.152  11.129  14.541  0.2260 -0.2837 -0.0408
 9442W        W24911  15.630  15.996   2.715  0.2283 -0.0782  0.0336
 9443W        W24912   0.490  17.435   5.775 -0.0468 -0.1502  0.1709
 9444W        W24913   5.367   1.290  13.359  0.3077 -0.1892  0.0507
 9445W        W24914   8.954  10.948  11.664 -0.1658 -0.1126 -0.0815
 9446W        W24915   1.940  10.755   0.536 -0.2043  0.2670 -0.0848
 9447W        W24916  15.168   4.802  13.809  0.1999 -0.0521 -0.1124
 9448W        W24917  17.649   6.431   0.285  0.1046  0.1868 -0.6775
 9449W        W24918  13.865  17.464   4.540  0.0070  0.0806  0.0059
 9450W        W24919   6.106  14.421  14.084  0.2529  0.3013  0.0512
 9451W        W24920   7.299   1.457  12.039  0.1307  0.2341 -0.0730
 9452W        W24921  10.045   1.735   5.304 -0.0019  0.0729 -0.0801
 9453W        W24922  11.478   7.708   3.239  0.2579  0.0809 -0.1033
 9454W        W24923   0.258   7.597  13.815 -0.2141  0.2086 -0.0091
 9455W        W24924  13.008   9.707   1.241  0.0820  0.3820  0.2382
 9456W        W24925   4.995   1.371   3.121 -0.0739 -0.3184 -0.0394
 9457W        W24926  13.597   7.087   4.484 -0.1525 -0.0428 -0.2434
 9458W        W24927   7.587  11.345   3.361  0.0881  0.0517 -0.0787
 9459W        W24928   7.247   4.494   0.771 -0.2215 -0.0866  0.1429
 9460W        W24929   7.235   3.461  15.463 -0.0850 -0.0173  0.1370
 9461W        W24930  17.843  11.403   5.808 -0.2283  0.1967  0.2038
 9462W        W24931  14.661   1.760   2.819 -0.2151 -0.1251  0.2325
 9463W        W24932  11.899   6.737  11.078 -0.0980 -0.3294 -0.2711
 9464W        W24933   8.072  14.871  13.640  0.2809 -0.0793  0.3760
 9465W        W24934  11.867   6.052   3.262  0.0412  0.3625  0.1817
 9466W        W24935   9.133   4.308  16.455 -0.3366 -0.0914 -0.3828
 9467W        W24936   5.865   1.146  16.500  0.1212  0.2251  0.0869
 9468W        W24937  15.980  10.732   4.037 -0.0564 -0.1122 -0.2398
 9469W        W24938   5.420   5.487  11.800 -0.2126 -0.1074 -0.2863
 9470W        W24939   7.949  15.463  12.735  0.0199  0.2336  0.4268
 9471W        W24940   2.967   6.395   4.256 -0.0772 -0.1493  0.0421
 9472W        W24941   6.628   2.633  13.597  0.0451 -0.1630 -0.0313
 9473W        W24942  15.649  12.859   3.688 -0.2054  0.0501 -0.3087
 9474W        W24943  13.244  17.695  14.799 -0.1040  0.1483  0.3085
 9475W        W24944   4.360   8.357   4.905 -0.1743  0.1105 -0.2331
 9476W        W24945   6.967   0.548   4.652  0.3495  0.0557  0.2205
 9477W        W24946  13.902  10.826  10.150 -0.0955 -0.0442 -0.0084
 9478W        W24947  17.692  13.666   1.268  0.0252  0.0895  0.0345
 9479W        W24948  12.983   4.659  12.878  0.0150 -0.1818 -0.2275
 9480W        W24949  10.457  13.285   1.583 -0.0571 -0.1135  0.1357
 9481W        W24950   0.685  11.804  12.867 -0.0603 -0.3574 -0.2688
 9482W        W24951  16.360  13.289   1.500 -0.0285 -0.0628  0.3981
 9483W        W24952  15.921   0.508  11.741  0.0849  0.3235 -0.0505
 9484W        W24953   8.625   5.779   5.170 -0.0562  0.0329  0.1272
 9485W        W24954   2.233  16.177  14.189  0.2723  0.2208 -0.1181
 9486W        W24955  15.317   5.523  12.443  0.1014  0.2511  0.0617
 9487W        W24956  12.896  10.454   0.936 -0.0542 -0.2226  0.0868
 9488W        W24957  11.069  17.654  16.166  0.0254  0.2178  0.0808
 9489W        W24958   0.760   6.399  15.021  0.3734  0.1462 -0.0099
 9490W        W24959   2.908  16.392  13.413 -0.3761  0.1058  0.1678
 9491W        W24960  12.153  11.610  11.723 -0.0600  0.0002  0.1192
 9492W        W24961   9.675  16.294   4.336 -0.0115  0.2802 -0.1506
 9493W        W24962   8.106   4.209  13.421 -0.0882  0.0166 -0.0702
 9494W        W24963  15.812  11.061  15.319  0.0246  0.0370  0.1878
 9495W        W24964   7.881   8.977  15.882  0.0507 -0.1713  0.0536
 9496W        W24965  17.461   3.962  16.505  0.3917  0.2949 -0.1082
 9497W        W24966   7.205  17.789  10.589  0.0251 -0.2498  0.1645
 9498W        W24967   5.785  14.736  12.001 -0.1486  0.4030 -0.3237
 9499W        W24968   2.951  14.061   4.023 -0.0918 -0.2128 -0.0126
 9500W        W24969   8.227  10.579  15.982 -0.2249 -0.0569 -0.0649
 9501W        W24970  16.530   3.782   1.414  0.1416 -0.0914  0.2778
 9502W        W24971   1.172   7.607  13.605 -0.1824 -0.0176  0.1556
 9503W        W24972  11.896  17.571   5.819  0.2819 -0.0951 -0.2159
 9504W        W24973   9.785   2.129  16.501  0.1284  0.0039 -0.1634
 9505W        W24974  10.053  15.756  12.118 -0.0514 -0.0756  0.0057
 9506W        W24975  17.451   2.735  11.143  0.1230 -0.2535 -0.1412
 9507W        W24976   1.970  12.571   3.366  0.3033  0.0734 -0.1746
 9508W        W24977   1.583  17.391   2.966 -0.1917 -0.3063  0.1872
 9509W        W24978   7.442   6.822   2.288 -0.2392 -0.1628 -0.1664
 9510W        W24979   0.864  16.238  13.502  0.0549  0.2196 -0.0799
 9511W        W24980   6.601   6.247  15.715  0.0507  0.0202  0.0448
 9512W        W24981   9.030   4.548  13.722  0.2049 -0.3838  0.2094
 9513W        W24982   1.448  16.471   0.272  0.1850  0.0162  0.0369
 9514W        W24983  11.804   8.300   1.520  0.2619 -0.0394  0.1841
 9515W        W24984   5.548   3.760  15.224 -0.2431 -0.1326 -0.1247
 9516W        W24985   2.878  15.651   1.945  0.0431  0.1712  0.2066
 9517W        W24986  12.442   5.176   5.049  0.0406  0.0659 -0.1610
 9518W        W24987   2.857   3.858  15.847 -0.0458 -0.0199  0.2089
 9519W        W24988  11.363   4.598  16.379 -0.0547  0.0500 -0.1149
 9520W        W24989  13.735  11.612  12.816 -0.0965 -0.3401  0.3039
 9521W        W24990   3.518   5.868   3.708  0.1944  0.0198 -0.0293
 9522W        W24991   0.413  13.610  12.224 -0.2639 -0.2768 -0.0076
 9523W        W24992   3.487   0.434  16.532 -0.3004  0.1678  0.0112
 9524W        W24993   6.305   2.609   3.497  0.0847 -0.3245 -0.0091
 9525W        W24994  15.793   4.443  14.822  0.1625  0.1201  0.0196
 9526W        W24995  12.968  17.242  16.147 -0.1084 -0.1258 -0.3450
 9527W        W24996  12.574   2.383   5.080 -0.1410  0.1461 -0.2148
 9528W        W24997   2.265  10.111  11.857 -0.1988 -0.1081 -0.1528
 9529W        W24998  10.798  12.790  15.040 -0.2705  0.2306  0.3276
 9530W        W24999  12.428   7.199  12.263  0.1248  0.2271 -0.1127
 9531W        W25000   0.349  17.678  12.136  0.1167  0.0113  0.3374
 9532W        W25001   2.992   3.051   0.400  0.2269  0.0240 -0.1724
 9533W        W25002   8.128   0.920  14.759  0.0339 -0.1055 -0.0172
 9534W        W25003   5.821  10.885   0.677  0.3917  0.3407 -0.1885
 9535W        W25004  15.336   1.803  14.641 -0.0234 -0.1357 -0.1120
 9536W        W25005   1.778  16.690  13.057 -0.1322 -0.0731  0.0717
 9537W        W25006   8.537  14.459   3.430  0.0446  0.0062 -0.0931
 9538W        W25007  11.481  10.338   2.622  0.1168  0.0401 -0.1401
 9539W        W25008  12.190   5.882  11.684 -0.0855 -0.0275  0.2472
 9540W        W25009  16.405   9.443  10.792  0.2700 -0.0354  0.3746
 9541W        W25010   0.778   2.169  12.319 -0.0079  0.0545  0.1603
 9542W        W25011   5.094   8.951   4.555  0.1263  0.1473  0.4311
 9543W        W25012   9.904   1.687   0.402  0.3066 -0.1234  0.1196
 9544W        W25013   7.855   3.069   0.836 -0.0339  0.0810  0.2751
 9545W        W25014  13.876   4.922  14.976  0.0352 -0.1130  0.0910
 9546W        W25015   7.356  11.947  14.062  0.3790 -0.0473 -0.2237
 9547W        W25016  15.069  10.771  14.377  0.2172  0.1689 -0.1630
 9548W        W25017   1.480   2.560   0.888  0.2375  0.2208  0.2214
 9549W        W25018   8.514   4.559   1.955  0.3875  0.1514 -0.3143
 9550W        W25019  14.652  11.866   5.653  0.1592  0.4147 -0.0867
 9551W        W25020  17.305  17.912  16.147  0.1805  0.0392  0.1138
 9552W        W25021   0.152  10.224   5.317  0.1828 -0.0212 -0.0715
 9553W        W25022   7.068  13.247   1.014  0.1309 -0.1651  0.3623
 9554W        W25023  12.150  17.420  12.426 -0.0040  0.1464  0.0232
 9555W        W25024   2.961  15.655   0.248 -0.1425  0.0026 -0.2550
 9556W        W25025  15.084   5.762  11.231 -0.0289 -0.3971 -0.1358
 9557W        W25026   8.322  12.019   3.904  0.1817 -0.2723 -0.4060
 9558W        W25027  13.483   2.926   3.825 -0.0545 -0.2105  0.1799
 9559W        W25028  14.806  10.840  15.087  0.2992 -0.0222  0.1328
 9560W        W25029  12.136   9.115   0.267  0.2783 -0.3087 -0.3136
 9561W        W25030  12.783  16.189  15.945  0.3690 -0.0789  0.1342
 9562W        W25031  14.970   7.180  13.302 -0.0179 -0.4214  0.2242
 9563W        W25032   0.496   9.117  12.540  0.2389 -0.0570  0.0340
 9564W        W25033   8.005   9.503  13.517 -0.1005  0.2407  0.1341
 9565W        W25034   3.469   4.883   4.303  0.2536  0.1947  0.0873
 9566W        W25035  10.049  13.692   2.120  0.1482  0.1445  0.2455
 9567W        W25036  10.347   7.837   4.491 -0.3991 -0.1027  0.0465
 9568W        W25037  17.810   2.332   6.301 -0.1910 -0.1971 -0.1675
 9569W        W25038   8.935   7.439   3.292 -0.2286 -0.3403 -0.1539
 9570W        W25039   8.364   1.872  14.485  0.2410 -0.1530 -0.1989
 9571W        W25040   0.023   8.879  14.183  0.0602  0.2043 -0.0416
 9572W        W25041  16.431  15.369  16.554  0.0263 -0.2357 -0.5295
 9573W        W25042  11.317   0.112   3.892 -0.1739 -0.2664  0.1530
 9574W        W25043   7.306  13.927   0.608  0.4677  0.1047  0.0198
 9575W        W25044   6.422   0.408   2.261 -0.0608 -0.1614  0.0155
 9576W        W25045   1.616  11.899   1.399  0.0934 -0.0330 -0.2622
 9577W        W25046   1.982   7.993  16.161 -0.0909 -0.5057  0.1064
 9578W        W25047   0.332  16.181  12.167 -0.1752 -0.0301  0.0272
 9579W        W25048  14.153   0.143  14.953 -0.1562 -0.0888 -0.1225
 9580W        W25049   1.702   2.939  11.837  0.0184 -0.0592  0.2017
 9581W        W25050  13.557  13.444  13.829 -0.0203  0.1193  0.1619
 9582W        W25051  10.299  15.710   2.538  0.1295  0.1516  0.1594
 9583W        W25052   7.018  12.491   2.139  0.1805  0.0867 -0.1336
 9584W        W25053   8.812   6.545  15.719 -0.1780 -0.0847 -0.4460
 9585W        W25054   6.327   2.920   4.626 -0.0955  0.0541  0.1048
 9586W        W25055   2.474  10.931  11.884 -0.0884 -0.1391 -0.2934
 9587W        W25056   2.059  16.378   2.032  0.1392 -0.0915  0.0726
 9588W        W25057   6.042   0.234  14.700 -0.0777 -0.0383 -0.0885
 9589W        W25058   7.551  10.397  11.511 -0.2101 -0.1385  0.0367
 9590W        W25059  13.890  13.849  12.616 -0.1980 -0.2090 -0.1878
 9591W        W25060  12.427   6.356  11.089 -0.3109  0.0246  0.1009
 9592W        W25061  17.688   6.638   3.122 -0.0079  0.0936  0.5031
 9593W        W25062  10.606   2.900   2.077  0.0278 -0.0588  0.0127
 9594W        W25063  17.209   3.149  11.015  0.0398  0.3246 -0.0174
 9595W        W25064   0.489  14.231   1.949  0.2058  0.1672 -0.0292
 9596W        W25065  16.726  17.608   2.430  0.1618 -0.0846 -0.1335
 9597W        W25066  11.543   9.512   2.861 -0.0302  0.1142 -0.1048
 9598W        W25067  14.076  13.555   1.853 -0.1904 -0.1705 -0.1452
 9599W        W25068  10.535  15.678  16.159  0.0522 -0.1344  0.4079
 9600W        W25069   4.965  14.801   3.546  0.2829  0.1222 -0.2375
 9601W        W25070  17.795   3.107   1.514  0.1291  0.1021  0.1104
 9602W        W25071  14.248  13.835   2.298  0.0308 -0.3227 -0.2384
 9603W        W25072   7.624   1.169   2.173  0.1167  0.0353  0.0485
 9604W        W25073   8.005   5.693  16.146  0.4199 -0.0322 -0.1322
 9605W        W25074   3.761  11.706   0.312  0.1006 -0.0893 -0.0218
 9606W        W25075  17.640  15.220  12.168 -0.0711 -0.1549  0.1848
 9607W        W25076  17.777   3.103  15.692 -0.1601  0.1011 -0.1662
 9608W        W25077   5.049  10.213  15.412 -0.0629  0.0880 -0.1290
 9609W        W25078  16.544   0.262   5.961  0.1783 -0.0127  0.0455
 9610W        W25079   2.046  14.447  16.285 -0.0921  0.0708 -0.1008
 9611W        W25080   9.906  12.925  11.160  0.1004 -0.0043  0.0075
 9612W        W25081   1.008  12.878   2.909  0.2506  0.1456  0.0529
 9613W        W25082  16.805  15.619   3.136 -0.1084 -0.1275 -0.0864
 9614W        W25083  12.657  14.751   2.660  0.0610  0.2159 -0.1634
 9615W        W25084  13.228  12.614  12.252 -0.0406  0.3290 -0.1445
 9616W        W25085  15.681   7.009   0.512  0.0424  0.1462 -0.2072
 9617W        W25086   2.182   1.361   0.891 -0.1990  0.0198 -0.1640
 9618W        W25087  13.448  13.256   0.134 -0.1001 -0.3165  0.1780
 9619W        W25088   1.685  11.251  14.445 -0.0805 -0.0635  0.0266
 9620W        W25089   6.924   0.762   0.568 -0.1798 -0.0458  0.3207
 9621W        W25090  11.708   6.909  12.096 -0.3274  0.0235 -0.0195
 9622W        W25091  14.580   1.251   5.735  0.0046 -0.1840 -0.3713
 9623W        W25092  10.215  11.926  11.463  0.3527  0.4159  0.1102
 9624W        W25093   2.112  11.776   3.541  0.3583 -0.0017  0.0104
 9625W        W25094   2.936   7.639   1.207 -0.0062  0.0103  0.0936
 9626W        W25095  16.697   2.022  16.384 -0.1338 -0.1043 -0.1001
 9627W        W25096   2.937   6.659  15.339 -0.3084 -0.0911  0.0524
 9628W        W25097   1.939  10.136  10.859  0.1653  0.1439  0.1515
 9629W        W25098   0.736   3.725  12.937 -0.0582 -0.2066  0.0582
 9630W        W25099   5.579   2.073   2.960  0.1388  0.1149  0.1641
 9631W        W25100  17.478   3.332   3.046 -0.0072  0.1030 -0.0676
 9632W        W25101  12.164   2.162  12.789 -0.2055  0.0169 -0.0346
 9633W        W25102  11.545  12.160  11.358 -0.0116  0.1212 -0.1422
 9634W        W25103  11.120  10.516  16.508 -0.0201  0.1017  0.0080
 9635W        W25104  15.492   2.562   2.397 -0.0563 -0.2431  0.0188
 9636W        W25105  11.283   3.229  12.270 -0.0883 -0.0251 -0.1425
 9637W        W25106  11.474   8.520  15.277  0.1043  0.3195 -0.1726
 9638W        W25107  14.472  13.602  15.380  0.0351 -0.0924  0.3054
 9639W        W25108   0.977  11.041  12.381 -0.1726  0.0120 -0.0100
 9640W        W25109   3.086  14.190  11.300  0.3786  0.3013 -0.1844
 9641W        W25110   7.494   8.202   1.239 -0.1244 -0.0974  0.0717
 9642W        W25111   9.553   8.166  11.578 -0.2510 -0.0936 -0.0666
 9643W        W25112  16.078   6.797  12.915 -0.2723  0.1069 -0.1361
 9644W        W25113   4.038  11.351  15.068 -0.4212  0.1641  0.2182
 9645W        W25114  13.640  16.499  15.464 -0.0497  0.1844  0.2559
 9646W        W25115  17.882   4.963   0.421  0.0184 -0.0586 -0.0136
 9647W        W25116   6.519   3.908   1.287 -0.3487  0.2205 -0.0185
 9648W        W25117  14.673  11.863  13.983 -0.1412 -0.3545 -0.1386
 9649W        W25118   6.043  13.685   2.561 -0.1098  0.0713  0.2488
 9650W        W25119   6.003   8.121  14.893 -0.0506  0.3801  0.2871
 9651W        W25120   9.828   6.440   1.851 -0.0039  0.1038 -0.3314
 9652W        W25121   1.389  12.895   2.518 -0.0114  0.0465 -0.0537
 9653W        W25122   9.332  15.490  13.744 -0.3475  0.0703  0.0348
 9654W        W25123   8.285   2.123   1.997  0.2439 -0.0734  0.1827
 9655W        W25124  17.197   8.675   0.996  0.0271 -0.1271 -0.0660
 9656W        W25125   9.595   1.166  13.237 -0.2512  0.0462 -0.1482
 9657W        W25126   1.788   4.739  11.805 -0.0586 -0.0154  0.0792
 9658W        W25127   5.453   2.938   3.462  0.0035 -0.1741 -0.1108
 9659W        W25128   5.696  14.835  14.406 -0.2056 -0.0704 -0.0313
 9660W        W25129   1.855  14.074  16.032 -0.0125 -0.1448 -0.1072
 9661W        W25130  10.466  14.251  15.263 -0.0783 -0.2839  0.0038
 9662W        W25131   0.004  11.449   0.445  0.0850 -0.0717 -0.1089
 9663W        W25132   1.464   9.337   4.032 -0.1264  0.3507 -0.1615
 9664W        W25133  15.261  15.006   0.118  0.1438 -0.2576  0.1386
 9665W        W25134  12.227   9.325  14.001 -0.1816  0.0502  0.0472
 9666W        W25135  14.307  16.797  15.050  0.2189  0.3015 -0.3797
 9667W        W25136   3.527  17.771   3.696  0.0957 -0.1766 -0.3116
 9668W        W25137  13.687  11.391  16.276  0.0561 -0.0085  0.1005
 9669W        W25138   8.239   4.593   3.953 -0.1211 -0.0128  0.1544
 9670W        W25139  12.798   4.459   2.705 -0.1321 -0.0131  0.1512
 9671W        W25140   8.972  13.102   0.315 -0.1893 -0.1148  0.0180
 9672W        W25141   7.693  12.494  13.226  0.3628 -0.1204 -0.3423
 9673W        W25142  13.492  15.206   5.618 -0.2372 -0.0059  0.1530
 9674W        W25143   9.897  10.433  11.397  0.3168  0.0888 -0.1391
 9675W        W25144   2.126   5.886   6.340  0.0868 -0.2700  0.2414
 9676W        W25145  13.260   8.229  12.279  0.0011  0.0403 -0.2510
 9677W        W25146   3.383   2.231   5.451 -0.0315  0.0698 -0.0775
 9678W        W25147   8.800  11.187   5.228  0.0006 -0.1079 -0.0542
 9679W        W25148   3.261   3.962   3.111  0.3425 -0.0707  0.0765
 9680W        W25149   3.485   9.957   4.164  0.0936 -0.0569  0.3286
 9681W        W25150  15.009  11.626   4.066  0.2702 -0.0141  0.1526
 9682W        W25151  11.355   4.181   3.824  0.0183 -0.1127  0.2439
 9683W        W25152   0.432   8.551  11.654 -0.1306  0.0674  0.2003
 9684W        W25153  10.877   4.296   5.117 -0.0175 -0.0248  0.2134
 9685W        W25154   6.841  11.538   2.302  0.0219 -0.3146 -0.1170
 9686W        W25155   9.453  10.762  12.410  0.0814  0.3143 -0.0610
 9687W        W25156   3.351  13.647  12.896  0.1881  0.3239 -0.1044
 9688W        W25157   5.068   0.589  14.694 -0.0078  0.1080  0.1275
 9689W        W25158  17.450  14.343   4.545 -0.1031  0.1649  0.1632
 9690W        W25159   6.416  10.846   0.076 -0.0491 -0.1730  0.2413
 9691W        W25160   1.207  17.739  15.955  0.2349 -0.0199 -0.0687
 9692W        W25161   2.863   6.109  12.332  0.1599 -0.4172  0.2416
 9693W        W25162  13.157   8.629  14.774  0.0920  0.0182  0.0864
 9694W        W25163  11.592   1.859  16.418 -0.1538  0.0022 -0.1534
 9695W        W25164  16.978   8.875   2.309  0.0054  0.2663 -0.2677
 9696W        W25165  15.045   1.438   6.588  0.1118  0.1135  0.3067
 9697W        W25166  14.419  11.026   1.378 -0.0066 -0.2605  0.2595
 9698W        W25167   0.803   4.239  14.187  0.2327 -0.0443 -0.3584
 9699W        W25168   7.747  17.182   0.702  0.0567 -0.0396  0.1003
 9700W        W25169  16.964   6.220   4.216  0.0811 -0.0397  0.0601
 9701W        W25170   0.333   7.966   0.428  0.1880 -0.2748 -0.1613
 9702W        W25171  17.875   6.114   1.713  0.1775 -0.0372 -0.4934
 9703W        W25172   8.907   1.422   4.077 -0.1353  0.2807 -0.4607
 9704W        W25173   7.663   8.193  16.398  0.3893 -0.0916  0.1886
 9705W        W25174   9.079   0.758   4.679  0.1529 -0.1218 -0.0970
 9706W        W25175  11.015  14.867   4.969  0.0513 -0.1854 -0.2371
 9707W        W25176  12.463   2.028  11.635  0.2757  0.0857  0.1913
 9708W        W25177   4.984  17.780   0.831  0.0522 -0.1171  0.3355
 9709W        W25178  12.746   1.571   0.706 -0.0564  0.0661  0.0715
 9710W        W25179   0.495   4.525  13.132  0.0246  0.0211 -0.0091
 9711W        W25180   7.928  12.018  16.025  0.0203  0.2792  0.0624
 9712W        W25181   2.745   3.283   3.659  0.1343 -0.2167  0.0416
 9713W        W25182   2.330  15.830   3.380  0.1926  0.0557  0.1260
 9714W        W25183  13.875   3.992   1.181 -0.0198  0.3154 -0.0445
 9715W        W25184  14.983   3.638   4.639 -0.1967 -0.3301  0.0524
 9716W        W25185   0.292  12.703  12.180 -0.1165  0.1339 -0.0283
 9717W        W25186   7.482  10.716  15.580 -0.3156 -0.1773  0.1911
 9718W        W25187  14.464   4.580  12.170  0.0000  0.0482  0.0956
 9719W        W25188  17.783  12.456  12.697 -0.0668  0.1086 -0.0730
 9720W        W25189   1.514  11.248  15.474  0.0355 -0.1531  0.0281
 9721W        W25190   8.701   9.015  11.295 -0.1062 -0.0801  0.2149
 9722W        W25191  10.627  14.500   1.850 -0.0129  0.1173 -0.0502
 9723W        W25192  11.240  16.299   3.716  0.0171 -0.1046 -0.4910
 9724W        W25193   0.755   3.252  13.078 -0.1818 -0.0614  0.0843
 9725W        W25194   8.631   1.963   0.413 -0.0399 -0.2225  0.1360
 9726W        W25195   0.336  18.002   1.794 -0.0257 -0.0640 -0.1677
 9727W        W25196   3.298  14.797   4.163 -0.2151  0.0372  0.0629
 9728W        W25197   4.253  16.286   5.295  0.2828  0.3107  0.3563
 9729W        W25198  12.378  13.952  14.088  0.0925 -0.1493  0.1914
 9730W        W25199  16.140   0.532   5.217 -0.3846  0.0261  0.1395
 9731W        W25200  11.729  15.453   3.710 -0.1052  0.2563  0.1314
 9732W        W25201  14.939  16.480   2.687 -0.1191  0.3399 -0.0977
 9733W        W25202   8.887   7.346   3.773 -0.1412  0.0589  0.1512
 9734W        W25203   9.711  12.221   5.786  0.0969  0.2281  0.0159
 9735W        W25204   7.024   6.248  15.391  0.2942 -0.2351 -0.2678
 9736W        W25205   1.367  17.180  13.936  0.3470 -0.2496  0.0123
 9737W        W25206   3.583   9.628   3.411 -0.0780 -0.0536  0.2506
 9738W        W25207   6.139   8.377   6.455 -0.1371 -0.3712 -0.2230
 9739W        W25208   7.069   5.286   4.587 -0.2700 -0.2728 -0.2910
 9740W        W25209  10.937   0.623   4.035 -0.0404  0.0677  0.0454
 9741W        W25210  11.384  10.278  10.353  0.0882 -0.1359 -0.1234
 9742W        W25211  11.211  15.851   2.984 -0.2121 -0.1291  0.0052
 9743W        W25212   2.146  17.987  13.337  0.1540  0.3848  0.1288
 9744W        W25213   8.031   9.127  12.690  0.0375 -0.1797 -0.2173
 9745W        W25214  11.694   7.341   0.337  0.4461  0.0016  0.2920
 9746W        W25215   0.642   3.211  11.205  0.1714  0.2391  0.2133
 9747W        W25216  15.401   8.429  12.950 -0.0286 -0.0137  0.0716
 9748W        W25217   7.742   8.626   0.909  0.0737 -0.0402  0.0774
 9749W        W25218   8.702  12.745   1.057  0.1085  0.3552 -0.0328
 9750W        W25219  13.662   3.786  16.334  0.3025  0.0804 -0.1697
 9751W        W25220  11.561   6.337   3.491  0.1427 -0.0755 -0.1975
 9752W        W25221   6.736   5.989   4.589 -0.1657  0.0207  0.0191
 9753W        W25222   7.598   8.518   3.311  0.2553  0.1259  0.1829
 9754W        W25223   6.720  17.227  12.594 -0.3407  0.1327 -0.5709
 9755W        W25224   0.173   4.150   5.001  0.0767 -0.1175 -0.1904
 9756W        W25225   0.003  14.947  14.686  0.1219 -0.2649 -0.0450
 9757W        W25226   4.098   8.884  13.835 -0.2826 -0.0096  0.1649
 9758W        W25227   2.557  10.240  14.875  0.0470 -0.0153  0.0126
 9759W        W25228  17.749   7.748  13.979  0.0523 -0.0920  0.0885
 9760W        W25229  17.791   1.781  11.395 -0.2245  0.1234  0.2261
 9761W        W25230   1.541   5.307   4.339  0.2390 -0.2254  0.0087
 9762W        W25231  14.548  16.422   5.787  0.0008  0.2277 -0.2226
 9763W        W25232   3.556   8.917   2.813 -0.0392  0.0596  0.3977
 9764W        W25233  15.468   4.977  11.088  0.1912  0.1102 -0.1234
 9765W        W25234   0.133   7.290  12.237  0.1856  0.2201  0.2115
 9766W        W25235   1.538  12.752   4.792 -0.0013  0.1117  0.0253
 9767W        W25236   7.411   6.651  13.036  0.2968  0.0721 -0.2155
 9768W        W25237   4.726  14.913   6.008  0.2722  0.1507 -0.2102
 9769W        W25238   2.149   8.690  13.947 -0.1992 -0.2845  0.1837
 9770W        W25239   0.750  12.627  11.981  0.1716 -0.2901 -0.1579
 9771W        W25240   4.706   3.645  14.982 -0.2195 -0.1584  0.0426
 9772W        W25241  10.847   9.744   4.635 -0.0115  0.0397 -0.0696
 9773W        W25242   0.112   2.741  15.811  0.3012 -0.2346  0.3306
 9774W        W25243  17.986   0.546   4.379  0.3168  0.0701  0.1714
 9775W        W25244  17.043   6.385   1.845 -0.0763 -0.2775  0.0127
 9776W        W25245   4.113  13.316  14.691 -0.0452  0.2328  0.1839
 9777W        W25246   5.544   4.788   2.676 -0.0406 -0.0770 -0.1491
 9778W        W25247   6.894   1.368  14.070  0.1971  0.1398  0.2575
 9779W        W25248  16.287  14.267  12.681 -0.1607  0.0629 -0.0452
 9780W        W25249  10.579   3.726   2.545 -0.1674 -0.2720  0.1851
 9781W        W25250  12.694   6.341  15.843 -0.1577 -0.1878  0.2455
 9782W        W25251   6.524   6.314  12.566  0.1636 -0.1267 -0.0195
 9783W        W25252  14.356   6.656   4.717 -0.2774  0.0067 -0.1916
 9784W        W25253   8.456  10.498   2.150  0.1676  0.1729 -0.2533
 9785W        W25254   4.164   4.158  14.331 -0.2065 -0.0577 -0.1448
 9786W        W25255  14.888   9.633  12.865 -0.0843 -0.1540 -0.0944
 9787W        W25256  16.734  13.338   1.111  0.0717 -0.4175 -0.1913
 9788W        W25257   4.497   7.008  13.908  0.2182  0.1335  0.2162
 9789W        W25258  17.107  13.329   0.746 -0.4242  0.3093  0.2494
 9790W        W25259   9.926   8.815  16.585  0.2488  0.2057 -0.0145
 9791W        W25260   7.377   5.082   2.799 -0.0033  0.0373 -0.1221
 9792W        W25261   0.002  15.322   1.247 -0.2066 -0.0985 -0.3702
 9793W        W25262  15.553   6.766  11.428 -0.0368  0.1478  0.0832
 9794W        W25263   3.680  10.354   4.340  0.3679 -0.0602  0.1170
 9795W        W25264   5.502  15.237  15.340  0.0103 -0.2478  0.3741
 9796W        W25265   8.018   8.803  12.284 -0.0615 -0.0099 -0.1266
 9797W        W25266  17.723  10.772   2.502 -0.2501  0.2530  0.2942
 9798W        W25267  16.793  11.592   4.644 -0.1092 -0.3562  0.2407
 9799W        W25268   7.828  17.209   0.184 -0.3114  0.2284  0.1363
 9800W        W25269   8.456  16.675  11.876 -0.0269 -0.0714  0.1695
 9801W        W25270   6.722   5.718   0.221  0.2280  0.2022  0.1805
 9802W        W25271  10.281  12.215  11.896  0.2669  0.2052 -0.2075
 9803W        W25272  11.267  15.091  14.734  0.1057 -0.2857 -0.0882
 9804W        W25273   5.415   4.311   4.131 -0.2884  0.0501 -0.1069
 9805W        W25274   3.876   7.868  13.122 -0.2023  0.1511 -0.2229
 9806W        W25275  10.231  10.502   5.397  0.4983  0.0215  0.1725
 9807W        W25276   1.763  12.503   0.300  0.0965 -0.0654  0.2079
 9808W        W25277  16.196   4.791  16.133 -0.2334 -0.0560  0.1066
 9809W        W25278   9.102  12.984   3.070  0.1123 -0.3207 -0.0503
 9810W        W25279  12.978   1.636   2.608  0.1845 -0.2528 -0.0692
 9811W        W25280  13.057   5.430  15.378 -0.2206  0.0912 -0.0376
 9812W        W25281   6.867  14.514  16.469  0.3616 -0.2053  0.3129
 9813W        W25282   5.514  11.589  14.765  0.1612  0.3852 -0.0699
 9814W        W25283  16.602  15.404   1.179  0.0738  0.0731 -0.1037
 9815W        W25284   8.665  10.657  14.280 -0.1720 -0.1124 -0.1562
 9816W        W25285   8.771  11.975  13.885 -0.2185  0.1168 -0.0498
 9817W        W25286  10.132  14.017   0.520 -0.0975 -0.3326  0.3626
 9818W        W25287  13.230  17.892  13.931  0.2530 -0.0898  0.1032
 9819W        W25288  14.180   6.050  16.334  0.2797  0.2298 -0.0380
 9820W        W25289   0.572   2.813   2.909  0.0719 -0.1443 -0.1484
 9821W        W25290  10.748   8.066   4.005 -0.0673  0.3839 -0.0831
 9822W        W25291   7.674   9.068   5.617  0.0218 -0.0965 -0.0579
 9823W        W25292   5.971   2.076  16.567  0.2960  0.1824  0.3553
 9824W        W25293   9.052   1.090  14.388  0.0425  0.1238 -0.1362
 9825W        W25294  14.327   3.247  11.957 -0.0779 -0.2029 -0.0523
 9826W        W25295   2.461  15.038  15.326  0.0939  0.1129 -0.1343
 9827W        W25296   4.994  14.524   5.736  0.0600 -0.0847 -0.1265
 9828W        W25297  15.704  16.303  13.588 -0.1223  0.1125  0.2166
 9829W        W25298   3.211  16.685  12.580 -0.0531 -0.4497  0.0088
 9830W        W25299   4.794   2.637   5.558 -0.1613 -0.2109 -0.0231
 9831W        W25300   6.095  12.384   0.601 -0.2522 -0.1410  0.0855
 9832W        W25301   8.213  17.185  14.771  0.1321  0.0172 -0.1721
 9833W        W25302   6.221   4.550   3.069 -0.2105  0.0305  0.1583
 9834W        W25303   6.474  15.612   4.136  0.2635  0.0263 -0.1392
 9835W        W25304  16.291   1.803  13.807  0.1077 -0.1474 -0.2918
 9836W        W25305  14.975  10.480   2.476  0.2181 -0.0386 -0.1440
 9837W        W25306  13.320  10.305   5.878 -0.1706  0.1508 -0.0608
 9838W        W25307  13.494  15.664   1.356 -0.3824  0.0033 -0.1729
 9839W        W25308   7.601  14.754   2.508 -0.2793 -0.0556 -0.0261
 9840W        W25309   6.182  10.449   3.485  0.1825  0.1845  0.1434
 9841W        W25310  11.396   4.749  14.674  0.0371  0.1804 -0.1316
 9842W        W25311  15.072  13.936   0.705 -0.2440  0.1004  0.2146
 9843W        W25312  11.286   0.899   4.262  0.1617  0.1436  0.0256
 9844W        W25313   8.488   3.312   1.850 -0.1801  0.2250  0.0652
 9845W        W25314  15.771   8.240   4.205  0.0386  0.1442 -0.1054
 9846W        W25315   6.094  10.126   1.994  0.0129  0.0481  0.2671
 9847W        W25316   9.801  10.938   1.161 -0.0108  0.0196 -0.1468
 9848W        W25317  10.698   1.939   4.177  0.1606  0.1755  0.1853
 9849W        W25318  16.299  17.929  13.481 -0.0861  0.2070  0.3745
 9850W        W25319  10.312  12.412  16.322 -0.0860  0.1251  0.1126
 9851W        W25320  11.171  17.622   5.535 -0.2171 -0.0101 -0.0996
 9852W        W25321  17.966   7.594  11.674 -0.1411  0.0928 -0.0860
 9853W        W25322   1.602   5.559   3.382  0.0313  0.1578  0.0052
 9854W        W25323  12.580   2.408  11.989 -0.0287  0.3380  0.0360
 9855W        W25324   9.637  14.748  12.677 -0.2182  0.0727  0.1954
 9856W        W25325   1.272   8.520  16.535 -0.2680 -0.2871  0.0021
 9857W        W25326  14.106   6.330  11.903 -0.1789  0.0751  0.0089
 9858W        W25327  16.471   7.958   2.734 -0.2022  0.1586  0.0724
 9859W        W25328   0.530  14.436  15.903 -0.1382  0.1335 -0.1404
 9860W        W25329   7.784   7.140   0.521  0.0791 -0.0032 -0.2478
 9861W        W25330   8.166  16.454   4.503  0.1018  0.2145  0.0807
 9862W        W25331   6.856  16.752  13.900 -0.2435  0.0184 -0.1292
 9863W        W25332  10.660  17.900   0.316  0.0768  0.0498  0.0383
 9864W        W25333   7.738   1.928   6.220 -0.0658 -0.1151 -0.0680
 9865W        W25334   9.382  14.092   4.587 -0.2233 -0.1326  0.3193
 9866W        W25335   7.194  10.899   0.787  0.1546 -0.3863 -0.0369
 9867W        W25336   7.100   8.204   2.525 -0.1390 -0.1803 -0.0493
 9868W        W25337   1.274   7.554  16.355  0.0931  0.1709  0.0233
 9869W        W25338  12.997  17.121  13.888  0.1904 -0.1888  0.0058
 9870W        W25339  12.537   1.446  11.809  0.1416 -0.1132 -0.2146
 9871W        W25340   2.995   8.355   3.492  0.0761 -0.1541  0.0699
 9872W        W25341   3.239  17.155  16.402 -0.2609  0.0519 -0.0005
 9873W        W25342   3.685  13.763  14.931 -0.1089 -0.1043  0.2668
 9874W        W25343  13.529  13.425  11.999  0.0095 -0.1559  0.1445
 9875W        W25344   7.305   1.233  12.471  0.0977 -0.3283 -0.0886
 9876W        W25345   0.967  14.421   4.347 -0.0441  0.2254  0.1608
 9877W        W25346   9.778  11.190   5.891 -0.0914  0.2529 -0.0207
 9878W        W25347   3.839  11.136   2.702 -0.2214  0.2314  0.0286
 9879W        W25348  10.449  10.705  15.767 -0.1692 -0.0453  0.0316
 9880W        W25349   3.017  17.910   3.548  0.2983 -0.2398  0.0475
 9881W        W25350   0.088   2.560   2.999  0.2488 -0.0475  0.1544
 9882W        W25351  17.340   2.790  15.715 -0.1841  0.2572  0.0299
 9883W        W25352   3.561  11.525  12.406  0.2315 -0.2842  0.0241
 9884W        W25353   8.249  12.365   0.417 -0.0841 -0.0647 -0.3208
 9885W        W25354   5.478   5.747   5.234  0.0448  0.0313 -0.2411
 9886W        W25355  16.494  11.826   5.483 -0.1598 -0.1370 -0.1308
 9887W        W25356   6.331   7.980  15.228 -0.1979 -0.0231  0.0492
 9888W        W25357   0.730  13.575   1.325  0.1953  0.0286  0.1694
 9889W        W25358  16.202   4.614  12.520  0.3756  0.3208 -0.0103
 9890W        W25359  13.649  16.014   6.241  0.1962  0.1934 -0.1341
 9891W        W25360   6.193   5.700   3.789  0.0069  0.4107 -0.1066
 9892W        W25361  10.191  12.418  13.628  0.0820 -0.4249  0.0453
 9893W        W25362  10.894   2.300   3.545  0.0374 -0.0567  0.1275
 9894W        W25363  11.625   1.721   3.956 -0.0743 -0.1854 -0.0461
 9895W        W25364  15.624   8.045  10.867  0.0598  0.5743  0.1088
 9896W        W25365  13.976  12.628  14.994 -0.1660 -0.2095 -0.1384
 9897W        W25366   0.866   7.251  12.419 -0.0613 -0.0106 -0.0649
 9898W        W25367   2.643  15.566  14.641 -0.0787 -0.0245 -0.3422
 9899W        W25368  17.906   2.359  11.843 -0.0675 -0.2028 -0.0190
 9900W        W25369   0.998   8.435  14.095 -0.2427  0.1424  0.1152
 9901W        W25370  13.325  14.015   1.294  0.1435  0.1969 -0.0185
 9902W        W25371   2.306  15.975  14.638 -0.1823 -0.0098 -0.1020
 9903W        W25372  15.706   7.078  10.672  0.1102  0.2807  0.0590
 9904W        W25373   3.699   4.266  13.384  0.0022 -0.2112 -0.0323
 9905W        W25374  10.155   8.232   1.781 -0.1085 -0.0657  0.0012
 9906W        W25375   8.619   4.250   4.119  0.2540  0.0089 -0.1054
 9907W        W25376  16.412   1.566  12.501 -0.0601  0.1991  0.0017
 9908W        W25377   0.592  12.395  14.648 -0.1868 -0.1374  0.1885
 9909W        W25378  16.222   9.204   4.893  0.1360  0.0397 -0.2415
 9910W        W25379   6.357  17.260   4.370  0.0799 -0.0838 -0.1535
 9911W        W25380   1.558  15.145   5.772 -0.1049 -0.0169 -0.0894
 9912W        W25381  11.176   6.044   3.759  0.0944  0.2144 -0.1118
 9913W        W25382   3.416  15.938   4.793  0.1637 -0.1545 -0.0410
 9914W        W25383   7.805   4.042   5.356  0.0442 -0.2894 -0.0770
 9915W        W25384   6.205   1.573  13.235  0.0949  0.3987  0.0973
 9916W        W25385   0.437   1.221   4.680  0.0007 -0.1138 -0.0490
 9917W        W25386  14.815  15.533   0.925  0.0919 -0.3889 -0.2758
 9918W        W25387  12.010   5.013   3.857  0.0589 -0.0139 -0.1488
 9919W        W25388   6.162  15.680   6.719 -0.1225  0.2454  0.1596
 9920W        W25389   4.752   6.159  13.761 -0.2285 -0.1917  0.0799
 9921W        W25390  12.332   6.190  12.988  0.0384  0.1110 -0.1268
 9922W        W25391  16.800   6.545  15.999 -0.1743 -0.1061 -0.4585
 9923W        W25392  10.259  16.487   0.662 -0.0689 -0.1236 -0.1067
 9924W        W25393   6.279   5.796   1.445 -0.3694 -0.2205 -0.1246
 9925W        W25394  12.885  12.639   4.609  0.0904  0.0937 -0.0872
 9926W        W25395   7.126   8.121   0.113 -0.0611 -0.2400  0.0924
 9927W        W25396  13.454   1.614   3.297  0.0972 -0.0850 -0.0752
 9928W        W25397   3.974  11.028  10.809 -0.0290 -0.0969 -0.0730
 9929W        W25398  13.352  10.818  16.358 -0.1769  0.1314  0.0471
 9930W        W25399  16.992   1.731  11.403 -0.4326  0.0820  0.2756
 9931W        W25400  11.167   3.953   4.240  0.1563 -0.1511  0.2423
 9932W        W25401   5.060   5.274   5.251 -0.1295 -0.1331  0.1896
 9933W        W25402  14.757   2.729   4.896 -0.1305 -0.1217 -0.0387
 9934W        W25403  14.820   4.489  13.640 -0.2106 -0.0920  0.5801
 9935W        W25404   5.836   8.679  12.959 -0.2278 -0.4431 -0.1267
 9936W        W25405  15.255  14.343   4.107 -0.0470  0.0002  0.1297
 9937W        W25406  12.011   1.530   0.976 -0.0368 -0.2312 -0.1279
 9938W        W25407  17.850   5.264  11.015  0.3144 -0.2798  0.3638
 9939W        W25408  14.757  17.456   3.722  0.1853 -0.0070 -0.0232
 9940W        W25409   4.087   2.178   1.870 -0.1992 -0.3349  0.1840
 9941W        W25410   3.790   5.221  13.156 -0.0019  0.0094 -0.0566
 9942W        W25411  14.219   8.218  12.490 -0.0679 -0.3988  0.3790
 9943W        W25412   2.933  17.449  12.849 -0.1322 -0.2646 -0.2396
 9944W        W25413  15.184   3.265   4.830  0.0679  0.0785 -0.0196
 9945W        W25414   0.786   2.878   5.398 -0.0675  0.2281 -0.1305
 9946W        W25415  16.719   9.352   4.575  0.0529  0.0827 -0.0393
 9947W        W25416   6.536  11.409  12.898 -0.0856  0.1733  0.0195
 9948W        W25417  14.112   9.823  14.350 -0.2473  0.3078  0.0887
 9949W        W25418   6.475  11.689   2.682  0.1320  0.1742 -0.4219
 9950W        W25419   5.898   3.799  13.065 -0.2391 -0.0633  0.0638
 9951W        W25420   7.107  12.031  15.293  0.2850  0.0739  0.1818
 9952W        W25421   8.810  11.514  16.070 -0.3163  0.0960  0.0674
 9953W        W25422  11.739  10.262  11.658 -0.1323  0.0627  0.1384
 9954W        W25423  15.531   5.263  16.307 -0.0438  0.0123  0.2666
 9955W        W25424  13.169   6.948   3.611  0.0265 -0.1608 -0.1941
 9956W        W25425   1.275   4.126   1.499 -0.1923  0.1455  0.2513
 9957W        W25426   8.316  16.748   4.860  0.0182 -0.0726  0.1082
 9958W        W25427   5.521  17.556  15.256 -0.1149 -0.1103  0.2286
 9959W        W25428  14.525   1.953   1.948 -0.1557 -0.2430 -0.1598
 9960W        W25429  10.837  10.328  11.857 -0.2664  0.1127 -0.0235
 9961W        W25430   4.674   1.811   2.537  0.0599 -0.2383 -0.1581
 9962W        W25431   7.437   4.498  15.007  0.1434 -0.0304  0.1933
 9963W        W25432  13.403  17.508  12.608  0.0147 -0.1138  0.3028
 9964W        W25433   4.528  17.626   4.686 -0.2505 -0.1706 -0.0555
 9965W        W25434   2.117   1.020  12.457  0.0320  0.0345 -0.3719
 9966W        W25435   9.636   6.071  11.432 -0.2396  0.1467 -0.0435
 9967W        W25436  15.235  15.335   1.750  0.2750 -0.1801 -0.1237
 9968W        W25437  11.004   7.339  15.742 -0.1993 -0.0792  0.0873
 9969W        W25438   4.172  14.196   4.595  0.5028  0.0869  0.0601
 9970W        W25439   0.142   3.940  11.420 -0.1378  0.1308  0.1760
 9971W        W25440  15.715   8.316   1.845 -0.1926  0.2805  0.0746
 9972W        W25441   0.709   5.007  11.373  0.5062  0.0413  0.0874
 9973W        W25442   5.316   4.724   3.376 -0.0776  0.2006  0.0434
 9974W        W25443   5.437   8.845   4.156 -0.1082  0.0235  0.3121
 9975W        W25444  14.615   3.782  15.561  0.1066  0.0220 -0.0518
 9976W        W25445  15.467  16.619  16.241 -0.0132  0.0250  0.0719
 9977W        W25446   2.414   5.631   4.872 -0.0460 -0.1464  0.4377
 9978W        W25447   4.045  17.235  15.174  0.2901  0.1361 -0.1878
 9979W        W25448   2.807  15.833  12.486  0.0002  0.1510 -0.0406
 9980W        W25449   6.222  12.969   5.244 -0.2915 -0.1862  0.1161
 9981W        W25450  13.905  15.407   1.481 -0.0761  0.1595 -0.1586
 9982W        W25451  12.700  10.356  11.913 -0.1505  0.1027  0.1357
 9983W        W25452   9.666  12.263  12.754 -0.2030 -0.1398  0.4185
 9984W        W25453  15.370  17.022  15.858  0.0320  0.0775 -0.1071
 9985W        W25454  10.006   3.009   0.925  0.3590  0.4181 -0.0399
 9986W        W25455   0.525   0.570  15.237 -0.0254  0.2191 -0.1908
 9987W        W25456   5.711  13.185  13.821 -0.1450 -0.1497 -0.0301
 9988W        W25457  10.626   6.374   2.520 -0.5058 -0.2279 -0.0327
 9989W        W25458   6.091  15.278   2.257 -0.1639  0.2186  0.1092
 9990W        W25459   4.355   0.917   5.244  0.0692  0.0987  0.2897
 9991W        W25460   9.713  10.864   3.354 -0.2367 -0.1924 -0.0983
 9992W        W25461  16.901   4.212  13.974  0.0831 -0.0113  0.1592
 9993W        W25462   7.384  11.897   0.055  0.1837 -0.2209  0.1304
 9994W        W25463   1.820   0.414  13.281 -0.1100  0.1499 -0.0628
 9995W        W25464  10.361   6.724   2.768  0.1250  0.1323 -0.3846
 9996W        W25465  14.679  17.018  12.284 -0.0040  0.0695  0.0040
 9997W        W25466  11.084   3.737  12.313 -0.0822  0.2458  0.2846
 9998W        W25467  12.752   6.507  13.007 -0.1243  0.0343  0.3231
 9999W        W25468  11.649   5.240  11.420 -0.1223  0.2697  0.1915
10000W        W25469  11.368   5.915   1.430 -0.2131 -0.3180  0.0906
10001W        W25470  13.208   4.560  16.428  0.1291  0.1483 -0.2638
10002W        W25471   5.654   1.341  11.954 -0.1055  0.0792  0.0710
10003W        W25472  14.567  16.461   0.884  0.0138  0.1553  0.2575
10004W        W25473   4.992   5.339  14.415 -0.0117  0.0682 -0.1327
10005W        W25474   5.830   9.128  15.622  0.0202  0.2302  0.3030
10006W        W25475   2.762   7.124   4.613  0.0997 -0.0607 -0.0541
10007W        W25476   5.672  16.350  12.704 -0.1767 -0.0275 -0.3131
10008W        W25477  14.183   0.931   4.403 -0.1636 -0.2096  0.2015
10009W        W25478  15.680   8.105  15.715  0.1957  0.3457 -0.1059
10010W        W25479   3.053   9.018   4.376 -0.1491  0.4460  0.1380
10011W        W25480  10.905  11.238   5.187  0.0179 -0.1649  0.2206
10012W        W25481  13.337   9.658   0.003 -0.0640  0.0260 -0.0203
10013W        W25482   4.220   4.820   3.058 -0.1537  0.2330 -0.2691
10014W        W25483   5.544   1.305  12.493  0.0245  0.0983 -0.4040
10015W        W25484  14.909  14.381  16.543  0.1136  0.0643 -0.1131
10016W        W25485  11.089   8.365  11.713  0.0700 -0.1639  0.1235
10017W        W25486  11.990   5.527  15.640  0.1336  0.3564  0.1019
10018W        W25487   0.728  15.995   3.439  0.0599  0.2333  0.0862
10019W        W25488  16.900   2.520  14.620 -0.0068  0.2165  0.0104
10020W        W25489   9.874  12.470  14.019  0.1821 -0.0503 -0.2667
10021W        W25490  15.171  16.179  14.233 -0.0900  0.3299  0.2487
10022W        W25491   5.166  10.766  12.476  0.0957  0.1255  0.1745
10023W        W25492   5.680   6.715   2.838  0.3127  0.2535 -0.2415
10024W        W25493  15.779   4.816  11.415 -0.0739 -0.0435 -0.1188
10025W        W25494   1.984   9.582  15.852 -0.1376 -0.1130 -0.0600
10026W        W25495  15.634  14.781   6.442 -0.2489  0.1116  0.0568
10027W        W25496   4.708   6.696   5.189 -0.0861  0.2016 -0.2529
10028W        W25497  14.809   0.759   3.529 -0.0496  0.0927  0.0923
10029W        W25498   2.184   6.122  16.288  0.0751 -0.0045  0.2319
10030W        W25499  15.541   7.498   1.185  0.2411  0.0875 -0.0110
10031W        W25500  14.969  10.994   1.147  0.0646 -0.0137 -0.0169
10032W        W25501   4.820   5.668   1.764  0.0033 -0.2024 -0.1787
10033W        W25502   4.546   4.018   0.504  0.0376 -0.1069  0.1984
10034W        W25503   6.584  14.248   4.601  0.1553  0.2295 -0.0229
10035W        W25504  10.981   2.744  16.576  0.2432 -0.0586  0.2904
10036W        W25505   7.945  15.040  14.943 -0.3350  0.0198 -0.0357
10037W        W25506  14.095   1.133   3.169  0.1440 -0.2345  0.1847
10038W        W25507  16.179  13.561  13.555  0.0446 -0.1793 -0.1336
10039W        W25508   6.198  13.453   0.924 -0.5194  0.1682 -0.2016
10040W        W25509   8.809   8.804  13.494 -0.2839 -0.1503 -0.1906
10041W        W25510  12.855   1.789  11.440  0.2021 -0.2258 -0.1972
10042W        W25511   4.107  13.866   4.994  0.1954 -0.2815 -0.0001
10043W        W25512  10.063   7.261  15.513  0.1750 -0.1147 -0.1613
10044W        W25513   9.054  14.218  16.066 -0.3192  0.1471  0.2092
10045W        W25514   6.274   2.049  15.346  0.0630 -0.1125 -0.1430
10046W        W25515   8.746   8.618   2.648 -0.1541  0.1386 -0.1781
10047W        W25516  17.651  14.462   5.516  0.3189 -0.0368 -0.1408
10048W        W25517  15.547   7.103   3.530  0.0857  0.0096  0.1979
10049W        W25518   6.376  13.650  13.724 -0.1105  0.0292 -0.2419
10050W        W25519  15.004   5.597  14.157  0.0466 -0.3757 -0.0753
10051W        W25520  11.632   1.465   4.821 -0.1064  0.0598  0.1570
10052W        W25521   3.932   8.430  16.002 -0.2030  0.1288 -0.0488
10053W        W25522  15.378  10.504  13.134  0.0599 -0.3131 -0.0546
10054W        W25523   8.246   6.021   1.882 -0.0622  0.0571  0.2892
10055W        W25524  12.725  16.360   1.116  0.2845  0.4151  0.0455
10056W        W25525  15.670   8.367   0.849  0.0668 -0.0419  0.3322
10057W        W25526   1.138  12.389  11.676 -0.2429 -0.1482 -0.2549
10058W        W25527   8.188   6.681  14.481 -0.2099  0.0087 -0.0870
10059W        W25528  13.935   8.140   0.399  0.2359 -0.1369  0.1077
10060W        W25529  12.276   8.581  13.357 -0.4216  0.1385 -0.0029
10061W        W25530  14.338   1.251   4.040 -0.4132 -0.0831  0.1426
10062W        W25531   2.893  17.832   0.997 -0.0102 -0.0470 -0.1089
10063W        W25532   2.034   4.837  15.736  0.1884  0.2294  0.1125
10064W        W25533   1.498   5.148   4.791 -0.1607 -0.2899 -0.1000
10065W        W25534   9.948   4.008   5.717 -0.0499  0.0113  0.0432
10066W        W25535  13.336   6.899  11.494 -0.2412  0.0620 -0.0893
10067W        W25536  14.997  13.343  13.297 -0.3128 -0.0477  0.0032
10068W        W25537   6.060   0.618   4.713 -0.0996  0.2329 -0.0611
10069W        W25538  16.069   7.934  11.120  0.1415 -0.1020  0.0984
10070W        W25539   5.701   0.253  14.362 -0.1128 -0.1833 -0.1890
10071W        W25540   5.031   1.156   1.165  0.1805  0.1516 -0.2497
10072W        W25541   6.483   7.958   3.213 -0.1462  0.1612  0.0510
10073W        W25542   3.093   7.595  14.163 -0.1629 -0.1444 -0.1092
10074W        W25543  12.397   3.909  10.999  0.0194  0.1534  0.4554
10075W        W25544   8.970   7.677  14.596 -0.2008  0.1422 -0.3508
10076W        W25545   2.045  15.106  15.046 -0.1196  0.1154  0.1268
10077W        W25546  12.225  13.303   1.910  0.0739  0.1314  0.0562
10078W        W25547   9.431  15.991   3.367 -0.1801  0.0254  0.3247
10079W        W25548  17.532  15.953  15.125 -0.1490  0.2214  0.1429
10080W        W25549   2.617   6.061   3.809 -0.1101 -0.1050  0.1767
10081W        W25550  13.164  11.903   2.328  0.0308 -0.0012 -0.5607
10082W        W25551  16.976   5.893   4.621 -0.1282  0.2437 -0.0098
10083W        W25552   8.680   7.764  11.494  0.1393  0.0145 -0.1950
10084W        W25553  14.740   0.500  13.105 -0.2749 -0.0587  0.0226
10085W        W25554   4.627   6.570  11.252  0.1097 -0.2465 -0.0004
10086W        W25555   5.112  15.245   3.684  0.1865  0.1255 -0.4161
10087W        W25556   0.979   5.037   3.174 -0.1637 -0.0776  0.2718
10088W        W25557   6.214   6.645   2.778  0.0746  0.0072 -0.2722
10089W        W25558  15.238  17.543   1.247  0.3467  0.3053 -0.1192
10090W        W25559  11.813   0.230   3.806 -0.0077 -0.0261 -0.1750
10091W        W25560   6.616  17.104   0.787  0.2472  0.0456  0.0553
10092W        W25561  11.769   0.875  14.415 -0.1921 -0.1840  0.1210
10093W        W25562  16.412   1.189  16.305  0.2123 -0.3217  0.1792
10094W        W25563   9.153   7.925   3.299 -0.0204  0.1794 -0.2385
10095W        W25564   9.078   8.324  12.772 -0.6326 -0.1746  0.2244
10096W        W25565  12.149  17.312  14.165  0.1529 -0.0525 -0.0701
10097W        W25566  16.631  13.077  13.154 -0.1499 -0.0783  0.0702
10098W        W25567   6.277  17.025  13.725  0.0496  0.0815 -0.3965
10099W        W25568   8.599  14.591   1.982 -0.0599  0.0776 -0.1096
10100W        W25569  12.246  12.091   2.585 -0.3930 -0.3000 -0.0852
10101W        W25570   5.945   6.015  13.732 -0.0397 -0.3502 -0.0805
10102W        W25571   7.155  10.972  12.163  0.0567 -0.0687 -0.2399
10103W        W25572   0.264   7.281   0.959  0.2317  0.1099  0.0307
10104W        W25573   4.703  17.739   2.871  0.2445 -0.2448 -0.2774
10105W        W25574   0.675   7.331  16.549 -0.2462 -0.1856  0.0765
10106W        W25575  14.704  17.608  13.194 -0.1300 -0.1883 -0.0808
10107W        W25576   6.359  14.001  12.009 -0.2492  0.0830  0.2426
10108W        W25577  14.600  12.663   4.605 -0.3043 -0.0780  0.3669
10109W        W25578   6.128   8.712   4.930 -0.0197  0.2862 -0.3226
10110W        W25579  11.811  17.233  15.618 -0.0841  0.0045 -0.0775
10111W        W25580   8.373   6.331   5.073 -0.0927  0.1158 -0.0106
10112W        W25581   2.626  11.283  11.495  0.6060 -0.2166 -0.0501
10113W        W25582  10.535   9.462  12.921  0.1512 -0.0114  0.0202
10114W        W25583  11.950  16.750  14.419 -0.1999 -0.2351  0.0624
10115W        W25584  15.703   8.141   0.085  0.1469 -0.0904 -0.1148
10116W        W25585   4.047   1.739   1.673  0.1778 -0.1119 -0.1938
10117W        W25586   0.807   6.672  16.044 -0.1659  0.0959  0.0091
10118W        W25587   3.473  14.843  16.424 -0.2846 -0.1830 -0.1008
10119W        W25588  15.999   2.999   0.383 -0.0201  0.1306 -0.0631
10120W        W25589   6.108   9.980  11.736 -0.4720 -0.0867  0.1038
10121W        W25590  11.275   6.932  11.153 -0.0703  0.2110 -0.0909
10122W        W25591  15.259   3.222   3.749  0.3142 -0.1614 -0.0364
10123W        W25592  15.256  17.422   5.659 -0.1557  0.0096  0.1373
10124W        W25593   9.548   5.531  16.128  0.0335  0.0066 -0.2524
10125W        W25594   8.699  15.539   2.672  0.2427 -0.0789  0.0762
10126W        W25595   7.211   8.612  10.532  0.1642 -0.0234  0.2197
10127W        W25596   9.144  16.358   3.642 -0.0168 -0.0306  0.0791
10128W        W25597   1.731  11.116  13.967  0.1599  0.0288  0.1942
10129W        W25598  10.957  17.684  11.086 -0.1966  0.2151 -0.2150
10130W        W25599   4.146  10.004   0.758  0.0088  0.0966 -0.0516
10131W        W25600   9.476  17.598  14.461 -0.2890 -0.2908  0.0117
10132W        W25601   3.587  16.320   1.547 -0.1540 -0.0703 -0.3437
10133W        W25602  12.386  15.423   0.413 -0.1598  0.0517  0.2143
10134W        W25603   1.259   9.789  12.403 -0.1065 -0.0071 -0.0609
10135W        W25604   6.384  11.285  12.400  0.2686  0.0396 -0.0975
10136W        W25605  13.862  16.099  16.317 -0.2212 -0.3019 -0.0418
10137W        W25606   0.966   8.780   4.281 -0.0574  0.1564 -0.3397
10138W        W25607  14.119  15.030   2.674 -0.3043 -0.0469 -0.0576
10139W        W25608   8.951   5.089   1.190 -0.0749 -0.0503 -0.0544
10140W        W25609   3.539   3.517  14.302  0.0541 -0.0260 -0.2802
10141W        W25610  12.848   6.072   5.113  0.2346 -0.3223  0.0123
10142W        W25611   5.040  13.450  12.371  0.2889 -0.1143 -0.1484
10143W        W25612   1.650  14.501   2.162  0.0452 -0.1118 -0.1164
10144W        W25613   8.593   2.365   3.882 -0.0421  0.0432 -0.0228
10145W        W25614   0.340   7.699   1.749 -0.3699 -0.0975 -0.1357
10146W        W25615  13.524   5.499  11.019  0.0520  0.0408 -0.1250
10147W        W25616  14.640  17.555  14.364  0.0588  0.0346  0.1190
10148W        W25617  16.921   6.781   2.598  0.0519 -0.0233  0.2020
10149W        W25618  16.328  10.895   0.734 -0.0671  0.0231  0.0499
10150W        W25619  15.401  17.691   2.287 -0.2235 -0.1447  0.1178
10151W        W25620   2.701   6.554  15.822 -0.1533 -0.1106  0.2339
10152W        W25621   0.104  14.670   4.228  0.0747 -0.1894 -0.0247
10153W        W25622   7.066  10.774  11.003 -0.1519 -0.0278  0.0100
10154W        W25623   4.950  15.251   4.490 -0.1358  0.2815  0.1178
10155W        W25624  13.996  17.035  13.087  0.1533 -0.0068 -0.0012
10156W        W25625  15.752   2.665  11.901  0.2868  0.0603 -0.0540
10157W        W25626   1.355  16.779   4.462  0.2142  0.2279 -0.2542
10158W        W25627  12.521  15.652  16.508 -0.2569  0.1078 -0.1257
10159W        W25628   4.341   0.641  12.280 -0.1732 -0.1255 -0.0143
10160W        W25629   5.191  15.826   6.344 -0.1111 -0.1717 -0.2029
10161W        W25630   8.459   6.764   3.943 -0.2508  0.1847 -0.0455
10162W        W25631  12.036   2.185  11.748 -0.0066  0.1295  0.1162
10163W        W25632   1.870  15.421   4.452 -0.0261  0.0228  0.2630
10164W        W25633  11.839  11.786   0.246  0.0146 -0.0645  0.1492
10165W        W25634  15.960   3.789  12.204 -0.2017 -0.3910 -0.0026
10166W        W25635   1.520  13.739  16.342  0.2033 -0.0867 -0.0218
10167W        W25636   4.866   6.821  16.568  0.0528 -0.3001 -0.0913
10168W        W25637   0.920   8.716  14.938 -0.0036 -0.1701 -0.0026
10169W        W25638  12.054   5.212  13.720 -0.3058  0.0939 -0.0071
10170W        W25639  11.707  10.535  12.151 -0.0537  0.0117  0.0488
10171W        W25640  13.333  16.897  16.126 -0.1349  0.0419 -0.1976
10172W        W25641   5.565  15.396   3.233  0.0999 -0.0866 -0.0500
10173W        W25642  16.592  13.325  16.183  0.1829  0.1875  0.0103
10174W        W25643  10.802   3.280  11.468 -0.3056  0.2119  0.0814
10175W        W25644  10.575  10.944   5.449  0.2740  0.1955 -0.0329
10176W        W25645   7.555   0.092   6.283  0.3179  0.2093  0.0353
10177W        W25646  15.415  13.854   5.701 -0.2123 -0.0665  0.0374
10178W        W25647   5.006   2.033  13.832  0.1194  0.1065  0.1567
10179W        W25648   4.813   4.371   0.239  0.0650 -0.1799  0.3875
10180W        W25649   4.829   7.339   0.760 -0.3381 -0.3564 -0.2407
10181W        W25650  10.831   8.634   3.101  0.1314  0.1919  0.0950
10182W        W25651  16.691   6.528   2.196 -0.1465 -0.0569 -0.1308
10183W        W25652   7.291  17.767   2.116 -0.1913 -0.3212 -0.1542
10184W        W25653   6.079  14.959  12.524 -0.3527 -0.2561  0.1953
10185W        W25654   6.822  11.823  15.652  0.1582 -0.2425 -0.0188
10186W        W25655   1.600   4.349  14.098 -0.2653 -0.1185 -0.2719
10187W        W25656  13.403   0.287  14.914  0.0364 -0.1630 -0.2951
10188W        W25657  16.628  13.396   5.167 -0.1203  0.2015  0.5418
10189W        W25658   7.132   0.150  15.089 -0.0484 -0.0040 -0.0258
10190W        W25659   1.955   1.119   0.450  0.0503  0.1967 -0.2226
10191W        W25660   6.730   6.956  13.363  0.2463 -0.3129  0.1464
10192W        W25661  10.541  16.814  14.766 -0.0859 -0.1765  0.1553
10193W        W25662  13.673  12.229  15.844  0.0864  0.0777 -0.0315
10194W        W25663  16.170   3.660  13.028  0.0760  0.1070  0.1111
10195W        W25664  13.869   5.018   0.630  0.0234 -0.2486 -0.2259
10196W        W25665  10.454  14.893   2.048  0.3115 -0.2573  0.2187
10197W        W25666   7.566  17.630   4.662 -0.1656 -0.3369 -0.4097
10198W        W25667  11.532  11.302   5.621  0.1513 -0.1365 -0.0188
10199W        W25668   4.638   2.639   3.099  0.2694  0.2985  0.1615
10200W        W25669   7.853  15.224   3.756 -0.0712 -0.3015 -0.1611
10201W        W25670   5.642  10.701  12.312  0.1769  0.1257 -0.2470
10202W        W25671   2.505   4.883  12.535  0.0231 -0.0368  0.3270
10203W        W25672   6.089   9.290  16.008 -0.2700  0.1593  0.1132
10204W        W25673  17.755   8.524  10.448 -0.2280  0.0732  0.1206
10205W        W25674   0.741  13.079   5.782 -0.1286 -0.1205  0.3063
10206W        W25675   8.981  13.296  11.968 -0.0992 -0.4726 -0.0274
10207W        W25676   0.814  10.422   4.590 -0.0252 -0.0296 -0.2832
10208W        W25677  14.243  12.428   5.393 -0.2432  0.0809  0.0000
10209W        W25678   3.437   3.567  11.227  0.1361  0.0898  0.2418
10210W        W25679   5.095  14.787  13.222 -0.0168 -0.0307 -0.1273
10211W        W25680   1.719   0.770  12.161 -0.1862  0.3068  0.2443
10212W        W25681   3.211  13.001  11.868 -0.2595 -0.2294 -0.0554
10213W        W25682   7.434   1.646   3.545 -0.2733  0.0686  0.1495
10214W        W25683   5.160   8.627  14.258 -0.1093 -0.2364 -0.0394
10215W        W25684  10.285  11.337  14.586 -0.1217 -0.0612 -0.2421
10216W        W25685   5.552   2.871  14.484 -0.2330 -0.3825  0.0097
10217W        W25686  13.994   1.801   2.575  0.2502 -0.0037 -0.1707
10218W        W25687   9.963   6.890   5.764  0.1803 -0.1809 -0.0120
10219W        W25688   6.231   5.376   1.200 -0.0108  0.1829  0.0179
10220W        W25689  14.208   0.420  16.002 -0.1429  0.0104  0.1859
10221W        W25690  17.955  15.693   0.245  0.1372  0.3315  0.0232
10222W        W25691  17.363   9.122  14.017 -0.0197 -0.1390  0.1565
10223W        W25692   9.920  14.377  16.498 -0.0071  0.1924  0.1134
10224W        W25693  14.522   7.838   2.633 -0.1455 -0.1322 -0.1464
10225W        W25694  14.586   4.575   0.606 -0.3129 -0.0623  0.1031
10226W        W25695  17.167  13.665   1.984  0.2774 -0.1375 -0.0942
10227W        W25696   8.655   1.200  13.299 -0.3997 -0.3460  0.1116
10228W        W25697   6.461   6.038   3.089  0.0531 -0.0137 -0.0192
10229W        W25698  11.098  13.155   3.397 -0.1668 -0.1183  0.2829
10230W        W25699   8.727   6.817   0.687 -0.4988 -0.3622  0.0861
10231W        W25700  12.965   0.562   5.697  0.3301  0.1056 -0.0791
10232W        W25701  14.085   2.975   3.106 -0.0448 -0.0693  0.1586
10233W        W25702  16.572  12.915  10.578 -0.0436 -0.1427  0.5256
10234W        W25703  16.925   0.239  15.419  0.0412  0.0331 -0.1464
10235W        W25704  14.225   1.908  12.546  0.0732 -0.4172  0.0231
10236W        W25705   8.538  12.227   4.283  0.1437 -0.1084  0.0064
10237W        W25706   4.368  12.409   0.825 -0.1682  0.0719 -0.0353
10238W        W25707   4.012  16.123   4.793  0.1614 -0.3294 -0.0218
10239W        W25708   1.672  14.754  11.446 -0.0696  0.0276 -0.1825
10240W        W25709  16.377   5.710  13.259  0.0715 -0.1825 -0.1335
10241W        W25710  12.573   9.678  14.031 -0.2158 -0.4207 -0.0013
10242W        W25711   8.632   1.511   4.945 -0.2859  0.1745 -0.2919
10243W        W25712  16.575   6.268   1.777  0.1595  0.0992  0.0226
10244W        W25713  16.118   0.935   5.588  0.1460  0.0322 -0.0539
10245W        W25714  11.823   7.503   4.796  0.0414  0.0058  0.1478
10246W        W25715   9.144   6.583   4.812  0.0640 -0.1596 -0.2545
10247W        W25716   8.693  12.701  13.728 -0.1311  0.0418 -0.2084
10248W        W25717  17.456  14.435  15.423  0.0030  0.0588  0.1972
10249W        W25718  13.753  11.741   1.044 -0.0199 -0.0293 -0.0409
10250W        W25719   0.164  15.220   0.293 -0.2237 -0.1809 -0.1707
10251W        W25720  17.194  17.809   0.006  0.1948 -0.0992 -0.0445
10252W        W25721   9.385   5.818   3.750 -0.2089 -0.0458  0.0550
10253W        W25722  16.909  16.039  13.173  0.0282 -0.2073 -0.0811
10254W        W25723   9.790  12.699   5.470 -0.1155 -0.0143  0.0498
10255W        W25724   8.113  15.416   2.299  0.0004 -0.0608 -0.1993
10256W        W25725   9.054   3.360   0.254  0.2451 -0.1371 -0.3168
10257W        W25726  14.983  13.796   3.499  0.1207 -0.3268 -0.0779
10258W        W25727  15.863  14.156  15.648  0.2781 -0.0555  0.1053
10259W        W25728   9.081   7.058   4.935  0.0373  0.0481 -0.1090
10260W        W25729   1.641   4.258  15.120 -0.1552 -0.0243 -0.2933
10261W        W25730  10.462   4.929   5.058  0.0817  0.0978  0.1149
10262W        W25731   7.202  15.918  14.245  0.2349 -0.1424  0.0395
10263W        W25732  10.779   9.728  13.413 -0.0527 -0.1838  0.1788
10264W        W25733   2.400   9.962   1.357  0.2713 -0.0921 -0.1070
10265W        W25734  14.800   4.126   4.617  0.0105  0.1379 -0.0283
10266W        W25735   1.566  17.158  13.062  0.2578  0.0943 -0.1845
10267W        W25736   6.597  13.554   1.268 -0.1212  0.1849 -0.3067
10268W        W25737  15.541   7.297   4.688  0.1209  0.0023  0.3130
10269W        W25738  17.664   2.480  15.903 -0.0671  0.1517 -0.2574
10270W        W25739   7.201  17.481  12.775  0.2209  0.3864 -0.1604
10271W        W25740   8.942   0.100  13.128 -0.0914  0.0349  0.1519
10272W        W25741  15.505  14.533   3.736 -0.0115  0.3687  0.1068
10273W        W25742  15.121   3.807   2.585  0.0708 -0.1504  0.0817
10274W        W25743  17.779   3.127   2.058  0.2269 -0.0201  0.3546
10275W        W25744  12.248   0.317  11.626  0.1141  0.0372 -0.3053
10276W        W25745   8.964   6.993   4.173  0.0647  0.0037 -0.0612
10277W        W25746   1.445  14.506   6.487 -0.0941 -0.0495  0.2687
10278W        W25747  10.866  10.483  15.543  0.5564  0.1575 -0.0763
10279W        W25748   3.656  13.175  15.981 -0.4762  0.2469  0.0053
10280W        W25749   9.756  10.254  10.886 -0.0962 -0.1111  0.2747
10281W        W25750  10.702  13.864   3.797  0.0029  0.3428 -0.2576
10282W        W25751   8.234   9.937  14.357 -0.0871 -0.1281  0.1058
10283W        W25752  10.422  11.258   4.393  0.0402  0.0899  0.2923
10284W        W25753   0.991  14.416   0.767 -0.0461  0.0824  0.3351
10285W        W25754  15.341   6.658   3.313 -0.1466  0.0316 -0.1097
10286W        W25755   2.809  14.320  14.916 -0.3154  0.1393 -0.1282
10287W        W25756  10.314  14.245   1.424 -0.0586  0.0960 -0.0338
10288W        W25757  13.453  10.323  12.162 -0.3019  0.0052  0.2165
10289W        W25758   0.414  15.875  14.710  0.0556  0.1461 -0.0467
10290W        W25759  17.004  12.604  14.476  0.1184 -0.4285  0.1922
10291W        W25760  12.961  15.333   3.859 -0.1920  0.1914 -0.2060
10292W        W25761   7.220  16.415   2.369 -0.0402 -0.2307 -0.0907
10293W        W25762  10.647   3.367   5.402  0.1874  0.2838 -0.1170
10294W        W25763  13.378  14.132   1.784  0.2885 -0.1494 -0.1661
10295W        W25764   7.031   0.391   5.744  0.1049  0.2050 -0.0578
10296W        W25765   1.090   0.173   2.405 -0.1175 -0.2588 -0.1425
10297W        W25766   9.833   4.819   0.953 -0.4149  0.4051  0.1339
10298W        W25767  14.742  10.160  13.979 -0.2549  0.1970  0.3286
10299W        W25768   1.049   0.155   4.225 -0.0571  0.1130 -0.2131
10300W        W25769   2.265   6.102   0.159 -0.0540 -0.1680  0.0274
10301W        W25770   7.362   8.870  12.405  0.1709 -0.1859  0.2627
10302W        W25771  10.967   5.920  12.010  0.1821  0.1446 -0.1363
10303W        W25772  13.171   6.622   0.605 -0.1049 -0.2360  0.0325
10304W        W25773  13.001  12.650  12.895 -0.1484  0.2748 -0.1034
10305W        W25774   5.431  14.393  16.175 -0.1154 -0.2767 -0.1563
10306W        W25775  10.756   2.684   4.779  0.1312  0.0284 -0.2585
10307W        W25776   9.110   1.065   0.748 -0.1638  0.0792  0.0293
10308W        W25777  11.959   0.027  14.762 -0.1974  0.2888  0.1524
10309W        W25778   1.933   7.078  15.305 -0.0316  0.1101  0.1412
10310W        W25779  15.664   8.118  15.207 -0.0063 -0.4134  0.1219
10311W        W25780   0.771   4.705  13.596  0.1150 -0.0779  0.1954
10312W        W25781   1.925   8.773  11.991  0.0955 -0.0133 -0.0769
10313W        W25782  13.149  12.514  15.715 -0.1353 -0.0332  0.1162
10314W        W25783   2.493   4.686  15.527  0.1574  0.0729 -0.1270
10315W        W25784   3.834  16.644  15.688 -0.1256 -0.0547 -0.2791
10316W        W25785  15.484   4.916   1.413  0.0976  0.2018  0.2184
10317W        W25786   4.065  15.864  14.561  0.2110  0.2515 -0.0207
10318W        W25787   7.199   9.582   2.648  0.0220 -0.1690  0.0001
10319W        W25788  13.945   6.743  16.293 -0.2293  0.2861  0.1144
10320W        W25789   1.373  11.109  11.299  0.0949  0.1007  0.1711
10321W        W25790  15.364   6.616   5.415 -0.1721 -0.0035  0.0716
10322W        W25791  16.837   6.085   3.205  0.1304 -0.0608  0.0054
10323W        W25792   8.686   1.570  16.190  0.2649 -0.0791 -0.1686
10324W        W25793   5.860   5.164   4.449 -0.1173  0.1884  0.0549
10325W        W25794  13.926   0.075   1.685  0.1991  0.0150  0.0236
10326W        W25795  16.396   6.464  14.485  0.3763  0.0272  0.0747
10327W        W25796  14.653  12.409   5.735 -0.0219 -0.0089  0.2773
10328W        W25797  13.293  16.401   4.653  0.0561 -0.3324  0.3501
10329W        W25798   0.968  15.947  14.667  0.0910 -0.1449 -0.2618
10330W        W25799  14.764  12.615   4.051  0.1661 -0.0143 -0.1760
10331W        W25800   7.879   0.186  15.939  0.0238 -0.1081 -0.1523
10332W        W25801  15.398  11.040  11.836  0.0022 -0.1546  0.0089
10333W        W25802  13.397   3.867   1.392 -0.2191  0.0218 -0.1256
10334W        W25803  15.517  11.579   4.040 -0.2486  0.0491  0.0014
10335W        W25804   9.454  17.614  12.276 -0.2008 -0.2384 -0.1907
10336W        W25805   3.434  17.361   0.625 -0.0224  0.1292  0.1042
10337W        W25806   9.467   5.165   1.084  0.3392 -0.1413 -0.1382
10338W        W25807  16.342   0.231   1.292 -0.1701 -0.0151 -0.1280
10339W        W25808   7.385  14.267  12.742 -0.3304  0.0383 -0.3527
10340W        W25809  10.955   7.368  13.440  0.2096  0.1373 -0.0964
10341W        W25810  13.310   6.971   4.102  0.1361 -0.2755  0.2285
10342W        W25811   6.996  16.874   4.900 -0.0775  0.0660  0.1765
10343W        W25812   0.501   6.728   5.178 -0.1883  0.3880 -0.1349
10344W        W25813   6.186   2.919  16.317 -0.0097  0.2540  0.1385
10345W        W25814   1.291  10.242  11.521  0.1764 -0.1083 -0.1364
10346W        W25815  12.537   7.441  13.565  0.1033 -0.1006  0.2619
10347W        W25816  15.621  17.632   0.018 -0.2112 -0.2820 -0.3043
10348W        W25817   0.824   9.917  14.471 -0.1126 -0.0598  0.1751
10349W        W25818   8.085   5.374   2.400 -0.1055  0.1200  0.1842
10350W        W25819  16.324  15.677   3.130 -0.0589 -0.0752 -0.0011
10351W        W25820   2.340  14.724  14.930  0.1322 -0.1057 -0.2322
10352W        W25821  16.515   9.510   2.837 -0.2669 -0.1492 -0.0699
10353W        W25822   3.304  17.158  12.969 -0.2469 -0.3249 -0.0173
10354W        W25823   7.434  10.203  13.808  0.0979 -0.1070  0.0274
10355W        W25824   1.395   8.772   5.237  0.2084 -0.1899  0.0581
10356W        W25825  13.299  16.779   0.587  0.2737  0.2295 -0.1510
10357W        W25826  11.147  13.960  15.566 -0.4652  0.1788 -0.0707
10358W        W25827   5.572  13.026  11.814  0.2477  0.2603  0.1407
10359W        W25828  13.610  12.249  15.289 -0.1028  0.0337  0.1787
10360W        W25829  14.718   4.158   1.336 -0.1460 -0.0920  0.1016
10361W        W25830  15.954   2.310   3.939 -0.2323 -0.0837  0.1439
10362W        W25831  14.712  11.386  13.886 -0.0844  0.1927 -0.2602
10363W        W25832   3.887   1.408  11.743  0.0527 -0.0531  0.0521
10364W        W25833   3.570   6.538  14.536 -0.5922 -0.1127  0.2066
10365W        W25834   9.383   8.147  13.631  0.2458 -0.0104 -0.0740
10366W        W25835  11.136   0.188  16.277 -0.2941  0.0068 -0.1931
10367W        W25836  16.245  15.728   0.263 -0.1138  0.1136  0.2703
10368W        W25837  10.471  11.043  11.290  0.0640 -0.0093 -0.1292
10369W        W25838  12.108   3.150  14.812  0.6203 -0.0209 -0.3672
10370W        W25839   4.182   8.522   2.988 -0.1860  0.0537 -0.0687
10371W        W25840  12.142  10.820   5.688 -0.1818  0.0853  0.0031
10372W        W25841  14.864  10.411   3.843 -0.3196 -0.0152  0.1237
10373W        W25842   1.122  12.693  13.669  0.2501 -0.0393  0.2409
10374W        W25843   3.420   0.230   2.477  0.1630  0.1754 -0.0039
10375W        W25844   2.866   4.910   1.480  0.0558  0.1215  0.2386
10376W        W25845  17.648   6.185  16.418  0.1377 -0.2601  0.2122
10377W        W25846   0.646  12.713   4.979  0.0463 -0.3192 -0.1979
10378W        W25847  14.253   4.011  14.608  0.1262  0.0051 -0.3541
10379W        W25848   7.323   9.424   3.120  0.1263 -0.0437 -0.2329
10380W        W25849   8.802   7.848  16.007  0.1893  0.1109  0.2463
10381W        W25850   6.649   4.196   2.953 -0.0028 -0.2913 -0.2403
10382W        W25851  10.746  13.858  15.833  0.0481 -0.2057  0.1187
10383W        W25852   9.416   0.584   2.416 -0.0682 -0.0415 -0.1458
10384W        W25853  15.252   3.421   4.191  0.0186  0.2219  0.4159
10385W        W25854   7.554   0.535   5.980 -0.2335  0.2442  0.4211
10386W        W25855   2.734   9.625  12.248  0.2443  0.1925 -0.2969
10387W        W25856  12.099   7.907  13.976 -0.3618 -0.1026  0.1861
10388W        W25857  16.584  17.691   4.969 -0.1857 -0.1790 -0.1731
10389W        W25858  17.890   3.371  15.167 -0.1836  0.2454 -0.0898
10390W        W25859   2.108  17.553  11.052  0.1224 -0.0774  0.2441
10391W        W25860   9.759  17.569  15.903  0.0094  0.0548  0.2371
10392W        W25861  10.317  14.495   6.496  0.1123 -0.2953 -0.0845
10393W        W25862  11.456  11.548  12.688 -0.3665 -0.0339 -0.2449
10394W        W25863   8.171  16.690   0.724 -0.0834 -0.0618  0.1346
10395W        W25864  11.151   2.570  13.888  0.1006  0.0633  0.1850
10396W        W25865  12.434  13.999   3.851 -0.2640 -0.0563  0.0896
10397W        W25866   4.260   6.974  12.845  0.2599 -0.1644 -0.2949
10398W        W25867  15.220  16.977  13.227  0.2937  0.2007  0.2431
10399W        W25868   0.109  14.554  16.190 -0.0083  0.0476 -0.0120
10400W        W25869  15.292   8.829   5.388  0.1075  0.0877 -0.2399
10401W        W25870  11.422   2.084   3.608  0.5295 -0.1358  0.0294
10402W        W25871   6.629  11.214   1.923 -0.0689  0.2820  0.2400
10403W        W25872  15.964   9.797  13.187 -0.0691 -0.0890 -0.0064
10404W        W25873   3.702   4.879  16.496 -0.2285  0.0325 -0.0885
10405W        W25874   9.179   3.082   2.724  0.0045 -0.1483 -0.0216
10406W        W25875  11.537   8.770  11.840 -0.0178  0.1768  0.2021
10407W        W25876  11.214   3.004   3.584  0.1152  0.3620 -0.0521
10408W        W25877  12.270  16.031  15.747  0.0545 -0.0092  0.1858
10409W        W25878   1.254  12.927  11.577 -0.0522  0.1814  0.0964
10410W        W25879   2.614   6.315  16.257  0.0301  0.1846 -0.1538
10411W        W25880  15.064  15.697  15.724  0.1051  0.1449 -0.2477
10412W        W25881  17.412   5.192   1.831  0.1065 -0.0458  0.1694
10413W        W25882   4.205   7.315   0.718  0.1397  0.1505 -0.1046
10414W        W25883   7.003   3.125  16.296 -0.2263 -0.1002  0.1297
10415W        W25884   8.335  11.369  11.346  0.5124  0.3836 -0.1005
10416W        W25885  11.664  16.685  11.643 -0.2184  0.0131  0.0178
10417W        W25886   9.057   6.568   5.331  0.0840 -0.2458 -0.2597
10418W        W25887   5.761   6.940   4.167  0.1747  0.1153 -0.0397
10419W        W25888  14.741   7.516   3.814  0.0227 -0.2135 -0.1145
10420W        W25889   9.720   5.947   1.686  0.2015  0.3223 -0.0820
10421W        W25890  12.049   0.098   4.234 -0.0380  0.0794  0.2091
10422W        W25891   4.407  17.478  13.217  0.0119  0.3209 -0.0436
10423W        W25892   8.267   8.688   0.831 -0.2044 -0.0516 -0.0215
10424W        W25893   9.307  15.587  11.711 -0.1391  0.0132 -0.0357
10425W        W25894  13.293   2.077  15.556  0.2458 -0.1470 -0.2549
10426W        W25895   3.030   1.235   5.395  0.2373  0.0970 -0.0213
10427W        W25896   0.269  15.055   1.708 -0.1143 -0.1688  0.0673
10428W        W25897   8.952  14.410   5.903 -0.1877 -0.0573  0.0259
10429W        W25898   1.996  13.822  11.364 -0.1197 -0.1700  0.1113
10430W        W25899  16.234   7.204   1.832  0.1033 -0.1904 -0.2322
10431W        W25900   3.936  12.494  10.789  0.3058 -0.2284 -0.1014
10432W        W25901  11.402  15.834   0.113 -0.0297  0.0871  0.0479
10433W        W25902   1.888   1.859  12.403  0.0706  0.0495  0.1531
10434W        W25903   5.087  16.699  13.159 -0.3184  0.0399  0.2826
10435W        W25904   7.695   3.369   5.110 -0.3410 -0.2505  0.2397
10436W        W25905  10.099   0.422  12.813 -0.1745  0.3766 -0.1214
10437W        W25906  16.386   8.645  15.306 -0.0242 -0.0755 -0.4024
10438W        W25907  15.439   6.231  15.634 -0.1791  0.0556  0.3627
10439W        W25908  12.381   5.191   0.686  0.1413  0.2046 -0.0702
10440W        W25909  10.808  11.750  13.449  0.2284 -0.3527  0.1487
10441W        W25910   1.149  11.920  14.084  0.1959  0.1970  0.0390
10442W        W25911   9.936  17.956   0.947 -0.3031 -0.2956 -0.0633
10443W        W25912  17.164  14.476   1.181 -0.0540 -0.1700 -0.0558
10444W        W25913  11.114  17.460   4.810  0.1287 -0.2750  0.1035
10445W        W25914  17.517   4.332  14.853 -0.3040 -0.0849  0.2021
10446W        W25915  17.843   8.575  14.600  0.2643 -0.1181 -0.0419
10447W        W25916   1.426  11.516   5.798 -0.1285  0.0208 -0.3876
10448W        W25917  13.740  12.969   4.741 -0.0531 -0.0553 -0.1065
10449W        W25918  15.448  11.570  10.282  0.1980 -0.1174 -0.0224
10450W        W25919   5.983  12.439  12.350  0.0910  0.0015 -0.2607
10451W        W25920   4.159   8.324   1.265  0.0547  0.4042 -0.2763
10452W        W25921   9.557  15.174   0.670  0.0602 -0.0083  0.1879
10453W        W25922   7.739   0.669   2.915  0.1614 -0.2459  0.0359
10454W        W25923   7.243   7.727   5.298  0.1395 -0.0229 -0.2555
10455W        W25924   5.112   7.310  13.343  0.0822  0.0174  0.1251
10456W        W25925   9.886  17.331   6.207 -0.1387 -0.1759  0.0860
10457W        W25926   5.171  10.268   1.054 -0.0242  0.1067  0.1390
10458W        W25927  13.539  13.992  14.420 -0.0174 -0.0034 -0.1119
10459W        W25928   9.906   2.978   2.628 -0.2126  0.0426 -0.1109
10460W        W25929  12.680   3.457   1.094  0.0367 -0.1676 -0.0670
10461W        W25930  13.441   0.875   1.811  0.0131 -0.1189 -0.1464
10462W        W25931   7.915   4.285  15.041  0.1736 -0.3085 -0.1954
10463W        W25932   1.222  12.751  15.156 -0.0543  0.1686 -0.2170
10464W        W25933  14.035   8.686  15.670  0.2554 -0.3324 -0.1490
10465W        W25934  15.017   4.180   2.922 -0.0851  0.0949  0.0958
10466W        W25935   4.103  17.012  11.940  0.1360  0.0051  0.0096
10467W        W25936   3.352  13.893   3.756  0.3570 -0.1310  0.0759
10468W        W25937   0.730  17.778  11.621  0.0686 -0.2757  0.0505
10469W        W25938   8.631   2.793  12.552  0.1107 -0.3703 -0.2596
10470W        W25939   2.695   1.563   6.511 -0.1752 -0.0091 -0.2890
10471W        W25940  14.813   6.868  15.370 -0.0217 -0.0728  0.0353
10472W        W25941   6.460  17.502  13.784  0.0169  0.1567 -0.0431
10473W        W25942  13.990  15.739   2.337 -0.1288 -0.2038  0.2986
10474W        W25943  17.872  11.512  12.113  0.3569 -0.1737  0.0063
10475W        W25944  16.656   3.636  15.534 -0.3148 -0.0139 -0.1231
10476W        W25945  14.360  10.684   1.033  0.1199  0.4760  0.1936
10477W        W25946   3.072   3.114   0.913  0.1466 -0.0326 -0.0915
10478W        W25947  11.815  12.630  13.373 -0.2036  0.1709 -0.0595
10479W        W25948   8.485   4.849  13.207 -0.0445 -0.1042  0.0522
10480W        W25949   3.732   2.440  16.111 -0.1760 -0.1663  0.1021
10481W        W25950   0.375  17.064  11.037  0.1169  0.0520  0.0530
10482W        W25951  14.821   3.210   5.238 -0.2273  0.1728 -0.0386
10483W        W25952   7.617  11.236   0.683  0.1310 -0.0538  0.4185
10484W        W25953  11.266   3.273   2.606  0.0878  0.0849 -0.1199
10485W        W25954  10.594   4.779   1.597 -0.0476  0.0475 -0.0574
10486W        W25955   0.172   3.874  10.457  0.0859  0.3294  0.4922
10487W        W25956  10.617   5.612   1.981  0.1070 -0.1444 -0.1111
10488W        W25957   2.109  14.463   1.936  0.0405  0.0054 -0.0356
10489W        W25958   5.526  12.387   5.358 -0.1658  0.0645 -0.2809
10490W        W25959   1.853   1.008   0.961  0.1074  0.1317 -0.1559
10491W        W25960  16.978   7.718   3.676 -0.2958 -0.0548 -0.2470
10492W        W25961   5.135   1.485  13.811 -0.0648 -0.2854 -0.3279
10493W        W25962   2.201  16.958  13.019  0.4212 -0.3182  0.1033
10494W        W25963   1.585   9.900  15.060 -0.2178  0.1436 -0.1654
10495W        W25964   9.873   0.313   2.543  0.0340  0.0727  0.0283
10496W        W25965  11.863   9.267  13.471 -0.0367 -0.2236 -0.0376
10497W        W25966  14.513  16.003   1.089 -0.2985  0.0577  0.2684
10498W        W25967   4.601   7.036   4.869 -0.0151 -0.1868  0.0574
10499W        W25968   4.646  11.669   2.546  0.0167 -0.4070  0.1671
10500W        W25969   2.178   7.534  14.371 -0.0564 -0.0025 -0.3184
10501W        W25970  17.826  10.643  13.763  0.0435  0.0462  0.3085
10502W        W25971   2.817   5.087   2.446 -0.0863 -0.2098 -0.2579
10503W        W25972  13.124   8.753   1.566 -0.3474 -0.0878 -0.1089
10504W        W25973  10.209   2.332  10.907 -0.1076 -0.2778  0.2350
10505W        W25974  10.964   0.494  15.401  0.2566  0.0615  0.0268
10506W        W25975  11.725  11.520   2.141 -0.3182  0.2468  0.2522
10507W        W25976   3.336  13.399  14.097  0.0397  0.0528  0.0738
10508W        W25977  14.088  10.697  13.874  0.0941  0.0304  0.0692
10509W        W25978  13.382   7.134  16.506 -0.3154  0.0181  0.0217
10510W        W25979   2.719   9.768   0.632  0.1429  0.2379 -0.2724
10511W        W25980  14.051  12.995   1.823  0.1082  0.2311 -0.0899
10512W        W25981   0.701   9.535   3.547  0.0771  0.0929 -0.1767
10513W        W25982   0.121  12.428  11.720 -0.2777  0.0635  0.0150
10514W        W25983   8.226   7.320  15.780 -0.0814 -0.0373 -0.1639
10515W        W25984   1.612  14.284   4.868  0.1486 -0.1509 -0.1373
10516W        W25985  14.673   9.069   4.810 -0.1580 -0.1010  0.2054
10517W        W25986  15.543   1.396   4.770 -0.1203 -0.0947 -0.1882
10518W        W25987   2.518   7.381   5.030  0.2673  0.0357  0.3211
10519W        W25988   6.638  11.805   5.566 -0.1756  0.0291  0.2265
10520W        W25989   2.233  14.117  13.930 -0.2897 -0.0537  0.0293
10521W        W25990  12.554   6.383   1.323  0.1785  0.2357 -0.1448
10522W        W25991   2.712  16.766  15.924  0.0931  0.2148  0.0287
10523W        W25992  17.008  16.302   6.015 -0.0185 -0.2120 -0.0571
10524W        W25993   6.918  12.080  10.947 -0.1498  0.0367 -0.0017
10525W        W25994   1.576  16.158   2.021 -0.1114  0.1922  0.1231
10526W        W25995  15.138   2.506  15.335 -0.0448  0.0687 -0.0682
10527W        W25996  12.616   2.802  12.315  0.0090 -0.1969 -0.3962
10528W        W25997   3.456   5.749  15.475 -0.1010  0.0499  0.1443
10529W        W25998   5.551  15.706  13.111  0.1007 -0.1842  0.3519
10530W        W25999   9.494   0.369   3.092  0.2545  0.2159 -0.1822
10531W        W26000  17.142  10.426  11.136 -0.0285 -0.1593 -0.1361
10532W        W26001   1.754  15.376   6.156 -0.1620 -0.1534 -0.1877
10533W        W26002   5.273  17.602   5.142  0.0078  0.0420 -0.1230
10534W        W26003  17.137   5.591  14.505 -0.1466  0.1518 -0.1578
10535W        W26004  12.261  11.095  13.670  0.0390 -0.0975 -0.1068
10536W        W26005   7.691   2.555  15.491  0.1061 -0.1098 -0.2341
10537W        W26006  11.912  14.386  15.531  0.2382  0.1880 -0.1668
10538W        W26007  17.579   3.738   9.888  0.1422  0.0243  0.2284
10539W        W26008  17.383   8.474   2.738 -0.0731 -0.2126 -0.0461
10540W        W26009   4.439  16.100   2.122 -0.1895  0.1374  0.0374
10541W        W26010  16.716   4.020  12.014 -0.1487 -0.2385  0.3204
10542W        W26011   0.429   5.429  14.866  0.0884 -0.0312 -0.0736
10543W        W26012  17.179   1.344   5.668  0.0470  0.2333 -0.1626
10544W        W26013   1.039   0.666  15.293  0.0839 -0.0955  0.0692
10545W        W26014   2.346  17.739  12.994 -0.1416 -0.2973  0.0108
10546W        W26015   8.516   5.404   5.427  0.0547 -0.0279 -0.2678
10547W        W26016  15.105   5.286  11.449  0.0285  0.3291  0.0768
10548W        W26017   0.398  15.042  11.394  0.3027  0.2494  0.1784
10549W        W26018   6.841   7.304   2.721 -0.2053  0.3224  0.2015
10550W        W26019   9.617   9.019  11.663 -0.0593  0.1409 -0.1433
10551W        W26020   5.078   0.963   0.729 -0.0979 -0.0960  0.0927
10552W        W26021  12.201   4.549   5.843  0.1414  0.0761 -0.1582
10553W        W26022   3.692   4.337   4.065 -0.2420  0.1960 -0.1856
10554W        W26023   8.497   3.480   2.328  0.1590 -0.0219 -0.0992
10555W        W26024  12.594  11.213   3.577  0.1495  0.0080  0.2444
10556W        W26025   7.335   9.784  12.981 -0.2381 -0.2324  0.1372
10557W        W26026  14.282  15.189   3.495 -0.2684  0.1200  0.2400
10558W        W26027  12.974   3.779   3.335  0.1788 -0.0275  0.1682
10559W        W26028   6.278  14.555   4.264 -0.0936  0.0602  0.1074
10560W        W26029   4.753   7.978  14.147  0.1808 -0.0735 -0.0376
10561W        W26030  15.950  10.609  10.492  0.1702  0.0749 -0.2385
10562W        W26031   8.923  14.622   2.383  0.0899 -0.0959  0.0276
10563W        W26032   9.845   8.278  11.005 -0.0442  0.0581  0.3047
10564W        W26033   1.225  16.311  13.954 -0.2836 -0.1496  0.0318
10565W        W26034   0.631   1.438   1.934 -0.0862 -0.1246 -0.0472
10566W        W26035  12.120   9.564   2.066 -0.1369 -0.3344  0.0645
10567W        W26036   0.543   6.244  13.358 -0.1003  0.2498 -0.2017
10568W        W26037   7.593  11.582   5.668  0.0402 -0.1470  0.2063
10569W        W26038  13.257   2.138  11.572  0.1013 -0.1168 -0.0329
10570W        W26039   6.865  12.544   5.036  0.1761 -0.0618 -0.2299
10571W        W26040   7.846   7.837  10.826 -0.0266 -0.3905  0.0955
10572W        W26041  13.171  10.275  13.647  0.3723 -0.2963  0.1241
10573W        W26042  15.502  14.819   1.516 -0.1297  0.0169 -0.2090
10574W        W26043  11.769  14.997   1.680  0.1584  0.0557  0.1927
10575W        W26044   9.778  16.161   3.055 -0.1855 -0.1843 -0.0343
10576W        W26045   1.103  13.570   0.028 -0.1452  0.0411 -0.2794
10577W        W26046  16.165  16.526   4.751 -0.0626 -0.1819 -0.2039
10578W        W26047   2.908   7.284  13.721  0.2372 -0.1417  0.0030
10579W        W26048  13.582  13.550  11.059  0.2169  0.3720 -0.2858
10580W        W26049  11.196   8.797   5.294  0.2274  0.1695  0.1705
10581W        W26050  17.729  15.422  14.806 -0.0884 -0.1317  0.1569
10582W        W26051  10.568  16.972  12.791  0.0452 -0.1409  0.2474
10583W        W26052   9.317  13.388  10.873  0.2420 -0.3192 -0.1048
10584W        W26053   0.702   1.121  13.064  0.0001  0.0808  0.3629
10585W        W26054   8.364   5.049   2.056 -0.0113  0.0208 -0.0227
10586W        W26055   9.898   2.124   0.759  0.1528 -0.1818  0.1195
10587W        W26056  11.898   9.121  11.674  0.4321  0.3666 -0.1529
10588W        W26057   6.693  13.689  16.382 -0.0930 -0.2661  0.2414
10589W        W26058  13.775  16.920   4.570 -0.0636  0.0284 -0.3739
10590W        W26059  15.780   6.233  16.028 -0.1107 -0.0422 -0.1361
10591W        W26060   1.262   4.006  14.185  0.1289 -0.1405 -0.2332
10592W        W26061   6.595   2.720  12.315 -0.0174  0.4080 -0.0502
10593W        W26062   1.990  10.259  11.364 -0.0834 -0.1182  0.2521
10594W        W26063  16.950  12.959   1.374 -0.1730 -0.0164  0.4059
10595W        W26064   0.210  12.615  14.989 -0.0197  0.1045 -0.7509
10596W        W26065  12.920   9.287  13.111  0.0219  0.1751 -0.1259
10597W        W26066   6.420   5.153   2.675 -0.1403 -0.0817 -0.1818
10598W        W26067   4.010   4.707   3.985 -0.0431 -0.0800 -0.1836
10599W        W26068  16.490   8.948  11.578 -0.0881 -0.1105 -0.2300
10600W        W26069   5.155   3.253   2.760 -0.4006 -0.1985  0.0283
10601W        W26070   8.132  12.892   0.373 -0.1060  0.0501  0.4430
10602W        W26071  11.186   2.913  12.770 -0.1585  0.2095 -0.0150
10603W        W26072   3.208   7.216   1.485 -0.2766 -0.1835  0.1905
10604W        W26073   9.308   8.593  13.421 -0.0644 -0.0927  0.0514
10605W        W26074  15.595  16.813   2.908 -0.0081 -0.0749 -0.1479
10606W        W26075   3.672  13.517   3.784 -0.1090  0.3000 -0.2001
10607W        W26076   4.826   5.052   3.458  0.0413 -0.0509 -0.2016
10608W        W26077  11.921   3.707  16.465 -0.1383 -0.2347 -0.1367
10609W        W26078   8.368  15.034   5.951 -0.2378 -0.1282  0.1710
10610W        W26079   9.022  15.057   4.048  0.1967 -0.0274 -0.0856
10611W        W26080  11.640   9.256  15.573 -0.1157  0.0778 -0.1370
10612W        W26081   9.480  15.773   2.532 -0.1448 -0.1283 -0.0762
10613W        W26082  13.869  15.925   0.175 -0.0247 -0.3456  0.1978
10614W        W26083   5.138  10.412   3.861 -0.2617 -0.1457  0.0608
10615W        W26084   6.434   2.859  11.189  0.0981 -0.1177  0.0781
10616W        W26085   6.401   1.829   5.524 -0.1386  0.2048  0.1401
10617W        W26086   2.338   2.174  15.153 -0.0902  0.0094 -0.0778
10618W        W26087   4.671   8.429  15.018  0.1809 -0.0693 -0.0000
10619W        W26088   6.050   8.171   3.555 -0.0985  0.0526 -0.2295
10620W        W26089  11.985  14.652  14.408  0.0423 -0.2630  0.2891
10621W        W26090   5.698   4.329   2.847 -0.1586 -0.4312  0.0281
10622W        W26091  17.056  11.384   4.131  0.0083 -0.0057  0.3852
10623W        W26092   5.992   3.150   2.688  0.1199 -0.0763 -0.0472
10624W        W26093  16.641   2.803  12.803  0.1679  0.0078 -0.2356
10625W        W26094   8.207  15.859  14.854 -0.0415  0.0293  0.1661
10626W        W26095   9.429  13.792   0.400 -0.0013 -0.0875 -0.1030
10627W        W26096  11.597  11.630   1.198 -0.1037  0.2345 -0.2505
10628W        W26097  14.002  14.204  15.304  0.2647  0.1568  0.0010
10629W        W26098   5.791  17.719  15.697  0.0450  0.1125 -0.1118
10630W        W26099   0.307   2.719   4.066  0.1039  0.2962 -0.1468
10631W        W26100   7.296   9.780  14.595  0.0527 -0.0179  0.1596
10632W        W26101   7.383   1.954  10.467  0.0864 -0.1710  0.1309
10633W        W26102   0.184   0.345   4.787 -0.2572  0.0075 -0.2220
10634W        W26103   1.036   6.573  11.736 -0.1461  0.1889 -0.2010
10635W        W26104  10.281  16.223   1.648 -0.0395 -0.1569  0.0340
10636W        W26105   4.749  11.527  14.937 -0.4843  0.0224 -0.0970
10637W        W26106   3.783   0.287   1.440 -0.1855  0.0911  0.0917
10638W        W26107  11.043   3.936   5.398  0.0703 -0.0605  0.5198
10639W        W26108  14.591   5.010   4.084  0.2577 -0.1964 -0.2944
10640W        W26109   6.658   5.622   0.971  0.0603 -0.1666 -0.0164
10641W        W26110   1.987  16.021   6.317  0.1377 -0.1575  0.2282
10642W        W26111   9.926  15.202   0.352 -0.2870 -0.0586  0.2128
10643W        W26112   7.602   2.147  15.853  0.1329 -0.1269 -0.2238
10644W        W26113  15.428  11.709  14.576 -0.0219  0.2049  0.0480
10645W        W26114   9.326   3.897   4.410 -0.4789 -0.1359  0.3374
10646W        W26115  11.220  10.361  12.848 -0.2492 -0.0149 -0.0175
10647W        W26116   0.886   3.424   2.179  0.0956  0.0980  0.0345
10648W        W26117   5.185   0.391   0.528  0.1159 -0.2143 -0.2032
10649W        W26118   6.688   8.164   4.185  0.0588 -0.0570  0.1167
10650W        W26119  11.684  17.401  13.374  0.0282  0.1012  0.0874
10651W        W26120   7.572   1.658   2.380  0.1712  0.1494 -0.1426
10652W        W26121  14.531   9.586   0.396 -0.0565  0.1034 -0.1284
10653W        W26122   3.496  13.918   2.291 -0.0117  0.3640 -0.2780
10654W        W26123   1.607  15.402   2.467  0.3920  0.3426  0.2292
10655W        W26124   8.874   7.400  13.284  0.0930  0.2195 -0.0770
10656W        W26125   3.955   3.510   5.495  0.0272  0.0529  0.1147
10657W        W26126   0.181   2.838   4.839 -0.0706 -0.0306 -0.0656
10658W        W26127  15.385  17.140   1.566  0.1335 -0.0464 -0.0049
10659W        W26128   5.567   8.149  13.060  0.2092 -0.1630  0.0247
10660W        W26129   7.490  12.215   1.299  0.0843 -0.2704 -0.0728
10661W        W26130   5.221   9.498   5.393  0.2508  0.0397 -0.1833
10662W        W26131  16.895   2.824  13.680 -0.0873  0.1049  0.3793
10663W        W26132   1.094  12.493   4.873  0.1352 -0.2936 -0.0710
10664W        W26133  14.240  14.188  14.859  0.0899  0.1742 -0.0713
10665W        W26134   4.940  16.015  12.698 -0.2634 -0.0265  0.0370
10666W        W26135   0.953   5.356  13.444 -0.0465  0.0714 -0.3077
10667W        W26136  13.732   6.891   1.122  0.0547  0.3983  0.0324
10668W        W26137  11.763   7.277   1.948  0.1995  0.0362 -0.0873
10669W        W26138   6.056  11.971   0.355 -0.1044  0.0867  0.1963
10670W        W26139  13.919   5.765  10.776  0.2380  0.2049  0.0924
10671W        W26140   9.184   5.088   1.597  0.0873  0.5293  0.0034
10672W        W26141   3.779  14.143   5.301 -0.3038 -0.1755 -0.2154
10673W        W26142  14.800   8.906  12.565  0.2112  0.0349  0.2498
10674W        W26143   0.610  14.417  12.086 -0.1308  0.0024  0.0284
10675W        W26144  16.744   3.634   0.752 -0.1020  0.3821 -0.0816
10676W        W26145   9.472  12.665  15.269 -0.2023  0.0012  0.0233
10677W        W26146   7.310   6.478  11.119  0.2863  0.0210  0.1572
10678W        W26147  14.734  17.253  11.301  0.0691 -0.0696  0.2291
10679W        W26148   7.837   3.856  13.007 -0.2490 -0.0305 -0.2558
10680W        W26149  10.802  12.895  11.439 -0.1910  0.0446 -0.1384
10681W        W26150   8.095   2.956  13.513  0.4949  0.1666 -0.0189
10682W        W26151   6.950   2.990  13.611 -0.1054 -0.0940 -0.3537
10683W        W26152   6.501   7.128  10.871  0.0441  0.2105  0.2594
10684W        W26153   9.662   4.942   3.271  0.0762 -0.2072  0.0930
10685W        W26154   0.835  14.922   0.812 -0.1938 -0.1540  0.1404
10686W        W26155   0.004   1.064   4.456  0.1035 -0.1379 -0.2884
10687W        W26156   9.996  15.319  14.865  0.0806  0.2128 -0.2746
10688W        W26157   2.285   0.021  11.166 -0.0141  0.2398 -0.1801
10689W        W26158   2.718   7.327  12.026 -0.0611  0.0713  0.0243
10690W        W26159   3.240  14.068   0.954  0.0035  0.0235  0.1111
10691W        W26160  15.369  12.040  12.825  0.0865 -0.3447  0.1840
10692W        W26161  10.231  16.678   1.913  0.0056 -0.0594  0.1301
10693W        W26162   5.042  16.315   0.882 -0.0381  0.0484  0.0299
10694W        W26163   4.736   7.001  14.501 -0.2269  0.0546 -0.0295
10695W        W26164  15.450   6.293  14.952  0.3081  0.1912  0.0931
10696W        W26165   7.631   5.730  15.798  0.1256 -0.0723  0.0840
10697W        W26166   5.715   7.879  12.578  0.1618 -0.0033  0.2267
10698W        W26167   6.493  14.653  16.198  0.1163  0.0059  0.4113
10699W        W26168   1.465   9.177   1.231  0.2218 -0.0106 -0.1836
10700W        W26169   8.683   6.475  11.682 -0.1239  0.0947 -0.1556
10701W        W26170  10.057  12.935   4.385 -0.0692 -0.0572 -0.1364
10702W        W26171  13.494   1.375   2.085  0.1741  0.2866 -0.1022
10703W        W26172  12.860  17.289   2.828 -0.0694 -0.0502  0.0889
10704W        W26173  10.012  12.721  16.001 -0.2741 -0.1573  0.1268
10705W        W26174  11.324   1.206   6.276 -0.2005  0.2026  0.0480
10706W        W26175  12.034   6.440   0.533 -0.0075 -0.0155 -0.1048
10707W        W26176  14.306   9.559   5.903  0.4984 -0.0189  0.0697
10708W        W26177   0.274  10.935  15.420  0.1838 -0.1121 -0.1217
10709W        W26178   4.794  11.941   0.824  0.0987 -0.0954  0.2650
10710W        W26179   2.676  12.956  16.021 -0.3009  0.0622  0.0591
10711W        W26180  15.686  11.247   5.056 -0.1770 -0.3877  0.3444
10712W        W26181  16.298   3.269   0.063 -0.0193  0.0958  0.0322
10713W        W26182   4.123  11.257  14.294 -0.2551 -0.0717  0.1674
10714W        W26183   5.817   3.237  12.460 -0.0084 -0.0702 -0.1336
10715W        W26184  13.867  12.511   4.701 -0.1593  0.1152 -0.1924
10716W        W26185  17.944  13.536   1.657  0.0736  0.1328  0.0765
10717W        W26186   0.899   5.749  16.105  0.0731  0.0619 -0.1234
10718W        W26187   9.246   1.925   3.992 -0.2518  0.1720  0.0619
10719W        W26188   3.593   1.081   4.575  0.3478  0.1605  0.2678
10720W        W26189  16.073   5.621   1.718  0.1339 -0.1050  0.0208
10721W        W26190  14.850  15.417   6.559 -0.2572  0.1945  0.1988
10722W        W26191   9.022  14.272   3.379  0.1920 -0.0306  0.1725
10723W        W26192   9.396   4.532  12.380 -0.0522 -0.2274 -0.1011
10724W        W26193   4.524   1.089   4.748  0.2501 -0.0992  0.1331
10725W        W26194   7.829  15.857  11.983  0.1002 -0.0347  0.1068
10726W        W26195   8.125   4.431  12.435 -0.3718  0.0564 -0.1007
10727W        W26196   4.987   7.611   2.023  0.1217  0.1467 -0.3253
10728W        W26197   2.858  12.733   5.666  0.1096  0.3418  0.2001
10729W        W26198   8.040  13.691   5.114 -0.2078  0.2365  0.1235
10730W        W26199  16.584   6.157  13.239 -0.1331 -0.2301  0.1823
10731W        W26200  15.130  10.274  14.210  0.1698 -0.1558  0.0115
10732W        W26201   2.696  17.354   4.201  0.0896  0.0254  0.1770
10733W        W26202   7.692  15.541   1.315 -0.4202 -0.1199  0.1238
10734W        W26203   1.721   3.708  14.011  0.0204 -0.1129  0.0279
10735W        W26204  17.397   0.108  15.155  0.0121 -0.0821  0.1521
10736W        W26205   4.245  14.859   5.404 -0.1279  0.2781 -0.1531
10737W        W26206  17.027   0.630  11.194  0.2086 -0.3158 -0.0417
10738W        W26207  10.813   7.921   4.919 -0.1571 -0.0945 -0.1596
10739W        W26208   5.443   0.235  15.567  0.0893 -0.3555  0.2199
10740W        W26209   2.285  16.243   0.006  0.3849 -0.0619 -0.0213
10741W        W26210   0.522   5.131  13.891  0.0227 -0.1122 -0.2024
10742W        W26211   7.358   1.606   1.053 -0.1916 -0.0390  0.0837
10743W        W26212  10.346  11.900   5.026 -0.1873  0.3387 -0.0738
10744W        W26213  12.069   8.024   4.197  0.2975  0.0023 -0.0507
10745W        W26214  16.630   3.924   4.708 -0.1636 -0.1068  0.0145
10746W        W26215   6.138   0.893  15.733 -0.0252  0.0678 -0.2689
10747W        W26216  10.244   0.357  13.296  0.0680  0.0295 -0.0535
10748W        W26217  12.986   8.773   2.152 -0.0606 -0.2495  0.1069
10749W        W26218   5.635  15.217   2.745 -0.0377 -0.2133  0.1993
10750W        W26219   9.688   3.242   3.700 -0.0571  0.2543  0.1304
10751W        W26220  17.862  15.477   2.706 -0.1224 -0.1326  0.2262
10752W        W26221  11.954  11.375  10.898 -0.1930  0.3281 -0.0311
10753W        W26222  15.036   1.952  15.437  0.0704  0.0249  0.2082
10754W        W26223  12.428   5.302  11.747  0.0108  0.0179  0.3445
10755W        W26224   7.090   6.245  11.692 -0.1082 -0.1280 -0.1646
10756W        W26225  13.004  14.697  13.140 -0.0456  0.2302  0.0673
10757W        W26226   3.676   7.034   4.328  0.1129 -0.0257  0.0597
10758W        W26227   2.940  12.837  12.822  0.2714  0.2057 -0.1485
10759W        W26228  13.045   8.613   1.049  0.0872  0.2646 -0.0537
10760W        W26229  14.320  12.627   2.056 -0.2297 -0.0887  0.1215
10761W        W26230  13.711   5.487   0.794 -0.1772 -0.1690  0.0160
10762W        W26231   2.586   5.393  16.239 -0.0760  0.1163  0.1398
10763W        W26232   7.621   9.705   0.734 -0.0941  0.0463  0.2641
10764W        W26233   8.951   4.632  12.430 -0.1086  0.3695 -0.3350
10765W        W26234  15.620  11.030  13.880  0.4579  0.1606  0.0787
10766W        W26235  13.556   7.791  12.652  0.1686  0.1955 -0.1083
10767W        W26236  11.403  15.078   1.181 -0.1124 -0.1278  0.1992
10768W        W26237   5.482   0.380   3.089  0.1238 -0.0449 -0.1184
10769W        W26238  12.400   2.256   1.614 -0.0339  0.0846 -0.1023
10770W        W26239  13.303   5.017  13.709 -0.0216 -0.1492 -0.0483
10771W        W26240   9.856  13.213  16.601  0.0252  0.2708  0.0948
10772W        W26241   2.841   9.336  13.063  0.1871 -0.3214 -0.2213
10773W        W26242   0.281  12.370  16.504 -0.2491  0.1219 -0.0191
10774W        W26243   6.157  16.667   4.947 -0.3646  0.0128 -0.1787
10775W        W26244   2.881  12.573  15.659 -0.0460  0.2605 -0.0900
10776W        W26245   6.282   8.483  12.507 -0.1614  0.0834 -0.1666
10777W        W26246  11.486   1.234   3.899 -0.2674  0.1277  0.0011
10778W        W26247  10.796   4.897   0.672 -0.2726  0.0745 -0.1063
10779W        W26248  12.039  13.282  12.744  0.0147 -0.3023  0.0620
10780W        W26249  13.622  13.743  16.244  0.1562  0.0846 -0.1531
10781W        W26250   2.340  16.995   5.927  0.1455 -0.0925  0.3314
10782W        W26251  14.188  14.197   3.803 -0.0448 -0.3262  0.2066
10783W        W26252   5.997   3.902   1.229  0.1627 -0.0717  0.2308
10784W        W26253   5.607   9.936   1.002 -0.3755 -0.3798 -0.1610
10785W        W26254   3.936  17.726  13.140 -0.4177  0.1087  0.0550
10786W        W26255   7.147  11.501  14.138 -0.0979 -0.3149  0.0900
10787W        W26256   5.361   8.761   2.904  0.0648  0.0864  0.0331
10788W        W26257   5.172  17.667  11.998 -0.2327 -0.0545  0.0295
10789W        W26258  16.266  15.293   0.758 -0.1286 -0.0475 -0.0638
10790W        W26259  13.843   4.134  12.469  0.3535 -0.0341 -0.0826
10791W        W26260   7.107   9.772   2.112  0.1371 -0.1810 -0.0790
10792W        W26261  14.914  11.274  15.372  0.3405  0.0657  0.2836
10793W        W26262  17.296  15.831   1.360  0.0402  0.0822 -0.2893
10794W        W26263   7.052   2.053   1.094 -0.0161  0.0588  0.1517
10795W        W26264  12.565   4.441  11.872  0.1836 -0.0172 -0.1487
10796W        W26265   8.403   5.492   3.406 -0.0727 -0.2500  0.1273
10797W        W26266  18.002  10.557   0.320 -0.1916 -0.2192  0.0570
10798W        W26267  16.367  14.951   3.773  0.2072 -0.3180  0.1008
10799W        W26268  10.383   8.969  12.275 -0.1116  0.3649 -0.0188
10800W        W26269   9.662   3.347  14.287 -0.1353  0.3620 -0.0111
10801W        W26270  17.101  17.606  14.486 -0.1594 -0.0534 -0.0774
10802W        W26271   9.317   3.907  16.220  0.4141  0.0969 -0.1337
10803W        W26272   6.572   9.863  13.681 -0.1346 -0.0495  0.1425
10804W        W26273  15.120  15.039  13.146 -0.2228  0.0813 -0.1503
10805W        W26274   7.054  16.805  11.256 -0.1118  0.0578 -0.0161
10806W        W26275  12.990  15.898   5.296  0.2375 -0.1202  0.1249
10807W        W26276  14.290  15.351  11.999 -0.0948  0.1219  0.0333
10808W        W26277  17.152  14.534   4.162  0.0838  0.0679  0.1540
10809W        W26278  10.724  14.824  14.051 -0.0585 -0.3748  0.1994
10810W        W26279   2.520   9.437   1.513  0.2028  0.2105  0.0134
10811W        W26280   4.864  17.830   4.334 -0.0485  0.3349  0.3337
10812W        W26281   5.571   7.166  13.190  0.2989  0.2251  0.0492
10813W        W26282   3.904  13.395   3.005  0.1653  0.1060  0.0431
10814W        W26283   9.160   7.353  10.887 -0.1294  0.0506  0.1383
10815W        W26284   5.903   7.547  16.585  0.3225 -0.0909  0.2684
10816W        W26285   7.496  13.217   4.982  0.2162 -0.1619  0.0610
10817W        W26286   9.085  16.786   6.469  0.1220  0.3158  0.1098
10818W        W26287   6.803  17.417   2.916 -0.0103 -0.0086 -0.0038
10819W        W26288  15.690   0.945  11.717 -0.0912 -0.1866  0.0434
10820W        W26289   7.754  14.613  12.615  0.0586  0.1043 -0.0083
10821W        W26290   9.692   2.061   4.150  0.0643 -0.0869 -0.0826
10822W        W26291   0.148   1.659   5.258 -0.2023  0.1760  0.0295
10823W        W26292   9.525   1.099   2.448 -0.0039 -0.0455  0.0914
10824W        W26293   4.240   9.809  14.977  0.0266 -0.1573  0.0423
10825W        W26294  14.932  10.220   1.569 -0.2519  0.0264 -0.0200
10826W        W26295  10.768  11.419  15.459 -0.3770 -0.0067 -0.0255
10827W        W26296   1.514   2.356   1.394  0.0605  0.0942 -0.0297
10828W        W26297  13.537  10.649  14.322 -0.0853 -0.0277  0.3305
10829W        W26298  12.286   3.747   1.152 -0.1115  0.0348 -0.1117
10830W        W26299  10.837  12.690   3.221 -0.1546 -0.1596  0.0059
10831W        W26300  11.546   5.611  14.451  0.1745 -0.1847 -0.1025
10832W        W26301   8.830   5.688  15.257 -0.0481  0.0364  0.0884
10833W        W26302  12.560  17.589  11.181 -0.1569 -0.1946 -0.1335
10834W        W26303   3.527  11.903  15.553  0.0112 -0.1049 -0.0886
10835W        W26304   6.547  14.156  16.213  0.0534 -0.0661 -0.1467
10836W        W26305   5.962  13.999   0.880 -0.1064  0.4322  0.1206
10837W        W26306  12.163  10.903   5.203  0.0793  0.0868 -0.3843
10838W        W26307  17.854  10.207   3.632  0.2082  0.0439 -0.1431
10839W        W26308   7.007   0.035  14.355  0.1299  0.1006 -0.1439
10840W        W26309  11.131   1.943   4.458  0.0072  0.1657 -0.1892
10841W        W26310  17.977  10.212  11.448 -0.0417  0.0742 -0.0474
10842W        W26311   5.841   1.207  14.394  0.3545  0.1851 -0.0062
10843W        W26312  16.064   0.620   3.197  0.2516 -0.1026  0.0606
10844W        W26313   7.795  15.900  15.670 -0.2364  0.1986 -0.1566
10845W        W26314   3.244   9.794  10.858  0.0026 -0.0130 -0.1687
10846W        W26315   0.129   4.981   3.814  0.0008  0.2016  0.1163
10847W        W26316   9.102   2.686  15.668 -0.1152 -0.4671  0.1169
10848W        W26317   5.524  16.925  12.567  0.0606 -0.2158 -0.0418
10849W        W26318  11.970   2.428   5.766 -0.0765  0.0929 -0.3618
10850W        W26319  12.950   8.468  11.941 -0.0125 -0.1521 -0.0323
10851W        W26320   3.485   3.360  15.261  0.0762  0.1383  0.0872
10852W        W26321  15.560   7.899   2.094 -0.5237  0.0877  0.1656
10853W        W26322   5.035   5.522   0.951  0.0306 -0.3395  0.0850
10854W        W26323   2.707  14.865   6.540 -0.2285 -0.0145 -0.2956
10855W        W26324   2.073   6.505  11.425  0.2403  0.0296  0.1017
10856W        W26325  10.353  16.580  15.214 -0.3239 -0.2761 -0.1322
10857W        W26326  13.849  14.571  14.980 -0.1839 -0.3238  0.0591
10858W        W26327  10.559  10.864   1.634  0.1161 -0.3370 -0.2153
10859W        W26328   6.228   8.973   1.205  0.2687 -0.3600  0.3073
10860W        W26329   8.656  13.051  15.284 -0.3230 -0.1220  0.1770
10861W        W26330  16.060   0.469  12.706 -0.0768 -0.0658 -0.0846
10862W        W26331   0.669  10.788   4.862  0.1540 -0.1647  0.1269
10863W        W26332  11.930   3.114  15.893 -0.1902  0.1638 -0.0614
10864W        W26333   0.682  15.167  15.808  0.0647  0.0146  0.0172
10865W        W26334   5.409  11.151  12.001  0.0275  0.0439  0.0581
10866W        W26335   0.632  12.319  11.635 -0.0042  0.0008  0.2301
10867W        W26336  10.643  17.644  12.251  0.1794 -0.1478  0.1361
10868W        W26337  16.769   6.119   5.041  0.0027 -0.1122  0.1356
10869W        W26338   9.598  14.812  15.591 -0.3638  0.1489 -0.1227
10870W        W26339  11.519   2.590  15.330  0.2471  0.0638  0.1248
10871W        W26340  15.636   9.362  15.002  0.2560 -0.1766 -0.1380
10872W        W26341  17.913   9.335  11.930 -0.0961  0.1151 -0.1537
10873W        W26342   0.214   2.497  16.215 -0.0052 -0.0705  0.0889
10874W        W26343  14.139   6.313  15.059 -0.0361 -0.2423 -0.0609
10875W        W26344   1.919  17.697  15.129  0.1645 -0.2192  0.3318
10876W        W26345  11.035  13.477   6.075  0.2241 -0.1474 -0.0520
10877W        W26346  17.815  12.532   2.365  0.0280  0.4366 -0.1137
10878W        W26347   4.927   4.766   2.018 -0.0568  0.2042 -0.1421
10879W        W26348  10.913   6.455  11.884  0.0514 -0.3015 -0.0752
10880W        W26349  11.997  11.033  15.192  0.2499  0.0075  0.1489
10881W        W26350   4.117   0.135  12.513 -0.0715 -0.0593  0.1918
10882W        W26351  11.801   3.597  13.088 -0.2501 -0.0828 -0.0029
10883W        W26352  13.824   1.866   4.630  0.3699  0.2744 -0.1065
10884W        W26353  10.111   5.083   1.660  0.0828 -0.2471  0.0193
10885W        W26354   5.655   2.380   5.223  0.0580  0.3789  0.3029
10886W        W26355   4.055  16.780   2.158 -0.2241 -0.1671 -0.0321
10887W        W26356  14.476   7.197   4.876  0.1385 -0.1966  0.2057
10888W        W26357   9.870   7.927  12.330  0.1804  0.0775  0.0153
10889W        W26358   0.215  14.030   0.896  0.1487 -0.1196 -0.0844
10890W        W26359   0.375  10.913   0.691  0.0104 -0.0397  0.0109
10891W        W26360   1.904   3.829  15.579 -0.1027  0.0071 -0.0397
10892W        W26361  17.878  14.168   2.896  0.0779  0.3149  0.1897
10893W        W26362  12.459   6.485  12.622  0.1115 -0.0979 -0.0003
10894W        W26363   2.473   0.394  11.774  0.0590 -0.1141  0.0268
10895W        W26364   0.951   8.628   2.372 -0.1028 -0.1332  0.0591
10896W        W26365   1.123   9.038  16.036  0.0427  0.0131 -0.1122
10897W        W26366   2.398   5.231   3.457  0.1215 -0.0292 -0.0301
10898W        W26367   5.066   3.357  13.600 -0.1768  0.2874  0.1982
10899W        W26368  12.250  10.972   0.401 -0.3866 -0.3284 -0.3200
10900W        W26369  17.590   2.489   0.354  0.0285  0.0185  0.2024
10901W        W26370  14.953   2.770   0.551 -0.0538 -0.0669  0.1047
10902W        W26371   8.337  14.225   1.717 -0.1641 -0.0632 -0.0517
10903W        W26372   3.181   9.338  15.454  0.0565  0.1370 -0.1724
10904W        W26373  17.638   4.892   3.878 -0.1285  0.0942  0.0291
10905W        W26374  12.819  14.727  12.621  0.1923  0.0466  0.3219
10906W        W26375  15.602   5.644   0.461  0.1823  0.0073  0.2945
10907W        W26376  11.675   5.197  15.916 -0.0031 -0.0228  0.1050
10908W        W26377   4.359   6.268   4.586  0.2134  0.2436 -0.0564
10909W        W26378   7.669   6.672  11.949  0.1602  0.0167 -0.1880
10910W        W26379   4.341   0.201   1.315 -0.1876  0.0289 -0.0166
10911W        W26380  14.280  12.004   1.427 -0.1408  0.2196 -0.1699
10912W        W26381   6.239   1.567   1.057 -0.1515 -0.1076  0.2312
10913W        W26382  11.131   3.458   5.121 -0.0514 -0.0769  0.2114
10914W        W26383  14.878   6.689  13.138 -0.1326 -0.1375 -0.2080
10915W        W26384   2.547   6.757  12.260  0.0789 -0.1842  0.2456
10916W        W26385   8.134  12.097   3.193  0.1731  0.1624 -0.1819
10917W        W26386   3.542   4.433   1.937 -0.2332 -0.1253  0.2082
10918W        W26387  14.560  16.593  15.591  0.0903  0.2249 -0.0464
10919W        W26388   2.783   1.224   4.239 -0.2597  0.0528 -0.3828
10920W        W26389  11.483   8.226   0.659  0.0497  0.0705  0.1293
10921W        W26390  16.378   7.719  10.604  0.1580  0.2189 -0.1932
10922W        W26391  16.915   1.682  15.544 -0.1325  0.0360  0.1804
10923W        W26392  15.401   0.967   3.603 -0.0585 -0.0829  0.3506
10924W        W26393   7.463  17.077  14.655 -0.0696  0.1433 -0.0180
10925W        W26394  15.263   5.962   2.734  0.2095  0.3183  0.2591
10926W        W26395   2.470   9.295  11.102  0.1587 -0.2364  0.3589
10927W        W26396  10.755   8.808   4.982 -0.0020  0.1301 -0.3413
10928W        W26397   9.088  14.983  13.386 -0.2308 -0.3101 -0.1587
10929W        W26398  17.993   4.205   3.249  0.1792 -0.0288  0.0353
10930W        W26399  10.225  13.896   4.590 -0.2847  0.1402 -0.0059
10931W        W26400  15.717   2.868   0.805  0.1386 -0.0874  0.0019
10932W        W26401  12.215  15.175   1.415 -0.3187 -0.1708  0.0287
10933W        W26402   0.278   7.451  16.172  0.0100  0.0701 -0.5464
10934W        W26403  11.277   7.012   5.601  0.2074  0.0115  0.0346
10935W        W26404  14.377  17.721   6.120  0.1404  0.2783 -0.0626
10936W        W26405   3.847  13.989  14.393 -0.0209 -0.1389  0.1544
10937W        W26406   2.486  11.967   5.112  0.0526  0.1679  0.0579
10938W        W26407  15.287  14.407   2.113  0.2105 -0.2061  0.0354
10939W        W26408   7.617  15.641   5.325  0.2078 -0.0560  0.1900
10940W        W26409   3.538  15.422   6.429 -0.2039  0.1226  0.2536
10941W        W26410   1.740   0.339   3.347  0.1828  0.1355  0.3035
10942W        W26411   8.475  12.989   5.735  0.1025 -0.0184  0.1569
10943W        W26412  14.865  10.977   2.537 -0.0530 -0.1694 -0.1762
10944W        W26413  10.108  13.070  11.943  0.0079  0.4089 -0.0204
10945W        W26414  14.496   4.252   2.464 -0.0905  0.1168  0.0712
10946W        W26415   3.270  17.972   4.921  0.1100 -0.0777  0.0336
10947W        W26416   4.657  13.114  11.646 -0.2159  0.1391  0.0629
10948W        W26417  16.218  11.296  14.980  0.1500  0.2409  0.2913
10949W        W26418   2.968   8.284  15.706  0.2897  0.1909 -0.1108
10950W        W26419   6.737   7.735  15.027 -0.1204  0.0458  0.0037
10951W        W26420   4.350   5.005  11.273 -0.2168 -0.0720  0.4178
10952W        W26421   9.386   8.139  12.286  0.2101 -0.1306 -0.0388
10953W        W26422  16.413  14.606  15.069 -0.2435 -0.0393  0.1740
10954W        W26423   9.849   3.142   3.186 -0.0795  0.1545  0.1076
10955W        W26424  17.583  15.441   5.071  0.0385  0.0753  0.0762
10956W        W26425  15.594  17.532   4.691 -0.2173  0.0000  0.1344
10957W        W26426  10.437  13.662   0.527 -0.1167  0.1849  0.5182
10958W        W26427   7.023  10.817  13.901  0.3288 -0.2263 -0.0760
10959W        W26428   9.670   4.471  12.947 -0.1314 -0.1477  0.2806
10960W        W26429   1.169   3.552  13.931  0.0737 -0.0030 -0.0674
10961W        W26430   5.118   3.905   1.129 -0.0473 -0.3941  0.0284
10962W        W26431   7.313  17.499  14.371  0.0034 -0.0500 -0.1370
10963W        W26432  12.587  13.591   4.799 -0.1436 -0.0128 -0.0328
10964W        W26433  14.779  14.288  14.821 -0.0085 -0.3391 -0.5479
10965W        W26434  16.725  10.931   2.242  0.1033  0.1105 -0.0432
10966W        W26435  11.421  17.488   5.969 -0.2923  0.1818  0.2701
10967W        W26436   0.837  12.911   4.601  0.0808 -0.0911 -0.2847
10968W        W26437  17.310   3.898  10.756  0.3811 -0.0888 -0.1772
10969W        W26438   9.368   8.105  11.147 -0.2081 -0.0401  0.2759
10970W        W26439  12.261  11.064  11.669 -0.1789 -0.1777 -0.0343
10971W        W26440  10.236  10.192  16.610  0.1354 -0.2024  0.2119
10972W        W26441   8.695  12.877  10.389  0.1170 -0.1104 -0.0791
10973W        W26442  14.122  13.982   4.804 -0.0734  0.1803 -0.3848
10974W        W26443   5.386  11.921   2.171  0.0876 -0.0381 -0.2489
10975W        W26444  11.937   8.318  11.833  0.0585 -0.2191  0.2404
10976W        W26445   5.008  14.757  13.875  0.0764  0.4117 -0.1238
10977W        W26446  17.540  13.814  12.338  0.1431  0.0828 -0.1607
10978W        W26447  15.770  11.589  15.800  0.2413  0.0649 -0.0529
10979W        W26448   0.680  16.424  15.287  0.0913  0.1130 -0.0678
10980W        W26449  13.902   7.409   4.802  0.0252 -0.3315 -0.0745
10981W        W26450  11.186  13.524   5.060 -0.2305  0.0478 -0.1849
10982W        W26451  10.227  10.223   0.490  0.2406 -0.3701  0.1189
10983W        W26452  14.709   1.357  13.478 -0.3064 -0.0909  0.1805
10984W        W26453  16.752   4.073   0.503 -0.1788  0.0361  0.2758
10985W        W26454  14.760  17.026   0.098  0.0299  0.0110  0.0208
10986W        W26455   2.693   9.068  12.620 -0.3330 -0.1436 -0.0249
10987W        W26456   1.803   1.242  13.308 -0.2301  0.1771 -0.0458
10988W        W26457   4.030   3.848  10.585 -0.0623 -0.0902  0.0431
10989W        W26458   5.491   1.482  16.376 -0.0499  0.1987 -0.1599
10990W        W26459   6.138  11.849  11.138  0.1081  0.1960  0.1015
10991W        W26460   9.265  15.002   0.041  0.0077  0.0797  0.0203
10992W        W26461  12.879  10.624  16.373 -0.2815  0.0021  0.1294
10993W        W26462   5.919   6.193   2.945 -0.1582  0.2375  0.1020
10994W        W26463  15.237   8.401  16.505  0.1729  0.0114 -0.0904
10995W        W26464  14.278   5.580  16.254  0.0167 -0.0307  0.1868
10996W        W26465   1.879  11.572   0.180 -0.0331  0.4341 -0.1035
10997W        W26466  12.335   3.972  16.522  0.0751 -0.0756  0.0307
10998W        W26467  13.258   7.874  11.322 -0.2621 -0.0653  0.0647
10999W        W26468   0.243   2.973  10.779 -0.0360 -0.0063 -0.0419
11000W        W26469  13.189  16.380   0.861 -0.1145  0.1653  0.2462
11001W        W26470  11.930  12.252  10.425  0.0738 -0.2642  0.1287
11002W        W26471   3.232  14.868  13.546  0.0297 -0.1040  0.2770
11003W        W26472  17.847   8.955  11.223  0.0354 -0.1562  0.0545
11004W        W26473   0.316  17.174  12.113 -0.0652 -0.3173  0.2036
11005W        W26474  15.882   5.065  14.816  0.0459  0.0991  0.4626
11006W        W26475  12.188   1.646  13.452 -0.0761  0.2594  0.1582
11007W        W26476  16.140   5.217  13.196  0.0008 -0.2859 -0.1012
11008W        W26477   9.731  10.413   1.205  0.2694  0.1265 -0.0688
11009W        W26478  11.341  17.400   2.352  0.3133  0.0968 -0.2386
11010W        W26479   2.344   3.082   4.032 -0.0528 -0.1210  0.0224
11011W        W26480   6.809   4.080  13.272 -0.2637  0.1296  0.4594
11012W        W26481  16.914  15.357  16.541  0.0231 -0.0697  0.0879
11013W        W26482   4.660  15.854  15.012 -0.0754  0.0934 -0.4142
11014W        W26483   8.547   9.100   5.150 -0.2625  0.0310 -0.0965
11015W        W26484   6.912   1.627  12.336 -0.0271  0.1104 -0.0599
11016W        W26485   5.077  10.711   1.308 -0.0454 -0.0659 -0.3521
11017W        W26486   3.210  14.321   3.617  0.0801  0.3172  0.2759
11018W        W26487   7.806  17.646  12.530 -0.2842  0.0840  0.4206
11019W        W26488  15.159  12.888  13.577 -0.1922  0.3407 -0.2760
11020W        W26489  14.953   7.982   0.179 -0.1876  0.2786 -0.1074
11021W        W26490   5.059   4.128   2.614 -0.0444 -0.1082 -0.1502
11022W        W26491   5.066   5.012   3.040 -0.1307  0.0852  0.0916
11023W        W26492  14.430  17.337   0.277  0.2806  0.0896 -0.1947
11024W        W26493   8.530   4.038  14.351 -0.3082  0.1506  0.0550
11025W        W26494  16.180   9.980  11.451 -0.0476  0.2737 -0.1795
11026W        W26495   1.755  12.408   5.136  0.2014 -0.1335  0.0176
11027W        W26496  11.104  13.279  11.635 -0.0267 -0.1301 -0.2647
11028W        W26497   5.862   9.759  14.169 -0.0349  0.2637 -0.0974
11029W        W26498  17.887   3.595   1.804  0.0463 -0.0361 -0.0379
11030W        W26499   2.298  11.949   4.149 -0.1488  0.2241 -0.0681
11031W        W26500  14.188   9.482  15.331  0.1381  0.1548  0.0778
11032W        W26501   0.439   4.956   2.075  0.1245  0.1107  0.3190
11033W        W26502   7.235  10.736   2.334 -0.0606  0.1877  0.2235
11034W        W26503  12.626  12.754   5.333 -0.1566  0.1294  0.1066
11035W        W26504  11.302   5.065  11.710  0.1542  0.1162  0.1438
11036W        W26505  10.932   3.745  11.571 -0.0353  0.0578  0.1372
11037W        W26506   4.216   2.152   3.403  0.0499  0.0479  0.0237
11038W        W26507  13.237   5.139   1.684 -0.1098 -0.2690 -0.0379
11039W        W26508   6.386   4.931   1.772  0.3754  0.0489 -0.2176
11040W        W26509   0.814   2.031   2.338 -0.0722 -0.0249  0.0723
11041W        W26510  10.992  11.798   0.615 -0.0380  0.0710 -0.0045
11042W        W26511  13.074   5.168  11.082 -0.1926 -0.0190  0.1187
11043W        W26512  13.998   2.327   4.750  0.2803  0.1895  0.0502
11044W        W26513  13.466  17.993   3.973  0.1146 -0.0743 -0.2228
11045W        W26514   3.467   1.052   3.450  0.1375 -0.1205 -0.0730
11046W        W26515  12.665   3.981   0.337  0.1129  0.2755  0.2408
11047W        W26516  11.427   6.047   5.063 -0.3069 -0.2056 -0.0149
11048W        W26517  13.165  14.360   3.389 -0.1744  0.1205 -0.1014
11049W        W26518   4.870  12.683   2.115  0.1254  0.0602  0.1706
11050W        W26519  17.142   3.969   4.712 -0.1518  0.1101  0.3551
11051W        W26520   7.589   7.763   5.622 -0.0561  0.2711 -0.0998
11052W        W26521  12.000   4.873   2.386 -0.0822  0.1142 -0.1545
11053W        W26522  10.479   9.439  12.405  0.0784 -0.2888 -0.1263
11054W        W26523   6.199  17.685  14.797  0.1874 -0.1556  0.1547
11055W        W26524   1.987  17.632   1.018 -0.4499  0.1156 -0.1028
11056W        W26525   9.662   2.154   0.344 -0.1446 -0.0457  0.0831
11057W        W26526   8.923   4.660   1.525 -0.3011  0.0957  0.0104
11058W        W26527  16.534   8.114   2.143 -0.1446 -0.0682  0.1619
11059W        W26528   0.415   0.798  16.399  0.1269 -0.1257  0.1703
11060W        W26529   1.164  15.593  13.940 -0.0831 -0.2357  0.3039
11061W        W26530  12.423  11.653  12.509 -0.2975  0.0876 -0.4656
11062W        W26531   4.114   0.489  11.648 -0.3065  0.1997 -0.0358
11063W        W26532   0.832   9.772  12.705  0.1117 -0.2423  0.0020
11064W        W26533  10.144   3.652   3.936 -0.1756  0.2040 -0.0813
11065W        W26534   4.774   0.452  12.094 -0.1664 -0.3017 -0.1226
11066W        W26535   6.668  10.018   2.817  0.0843 -0.0798 -0.0571
11067W        W26536  14.170   7.701  14.947  0.0859  0.0408 -0.1034
11068W        W26537  17.130  15.142   2.459  0.1794 -0.0697  0.0741
11069W        W26538  16.449  12.791   3.413  0.0679  0.3873  0.0434
11070W        W26539   0.064   2.734   0.108 -0.1158 -0.0104  0.1475
11071W        W26540   8.413  11.685   3.249 -0.1022  0.1951  0.2638
11072W        W26541  11.353   6.774   1.839 -0.0455  0.1822 -0.0406
11073W        W26542   0.675   4.413   2.074  0.0822 -0.1966  0.1563
11074W        W26543   0.064  12.135   5.141  0.1900 -0.1244 -0.1431
11075W        W26544  12.661   2.842  11.703 -0.1013 -0.1226  0.0557
11076W        W26545   2.885  17.155   5.200 -0.4069  0.0596 -0.0428
11077W        W26546   9.788   4.996  13.923 -0.1445  0.1544 -0.0966
11078W        W26547   4.217  11.819   4.810 -0.3422  0.1109  0.0788
11079W        W26548  17.035  13.370  15.682  0.0344  0.1657  0.2070
11080W        W26549   0.628  15.159   2.065 -0.0171 -0.1886 -0.3292
11081W        W26550  17.622  12.152   5.474 -0.1365  0.0115  0.1714
11082W        W26551   2.111  10.949   0.072  0.1881  0.0961 -0.1395
11083W        W26552  12.852   1.141   2.811  0.1240 -0.3636  0.0075
11084W        W26553   7.131  11.070  15.589 -0.1605 -0.1284  0.2115
11085W        W26554   3.156   5.192  14.845  0.0524 -0.5657 -0.2189
11086W        W26555  16.780   7.133   3.830  0.0637 -0.0883  0.1833
11087W        W26556   0.475  11.665  15.397  0.0550 -0.1386 -0.1837
11088W        W26557  17.399   4.852  14.822  0.0974  0.0479 -0.1995
11089W        W26558  10.952   6.202   5.397 -0.2479 -0.1253  0.1909
11090W        W26559   1.851   4.235   4.826  0.0483  0.0785  0.0332
11091W        W26560  13.891   3.694   5.336  0.1616 -0.1525  0.2912
11092W        W26561  11.280   2.778   5.392 -0.1275 -0.0326  0.1841
11093W        W26562   6.648   8.476  12.127 -0.1909  0.0777  0.1293
11094W        W26563   6.827   9.163  12.871  0.3914  0.1397  0.1567
11095W        W26564   7.352  15.994  12.067 -0.2321 -0.1771 -0.1858
11096W        W26565   0.234   7.218   5.962 -0.1174  0.1313  0.0732
11097W        W26566  16.124  15.367   3.910  0.3623  0.0764  0.2923
11098W        W26567  17.530  17.452   3.660  0.1447 -0.0109 -0.0150
11099W        W26568   1.701  10.733  11.371  0.0000 -0.1256  0.2175
11100W        W26569  16.395  12.099   0.480  0.0947  0.0044  0.0171
11101W        W26570  12.355  17.160  15.951 -0.0254  0.0354  0.0777
11102W        W26571   2.087   4.512  13.353 -0.1909 -0.0503 -0.1955
11103W        W26572   5.265  13.163   2.855  0.4837  0.2334  0.3839
11104W        W26573  17.958  15.510  12.420  0.0873  0.2227 -0.4422
11105W        W26574  10.132   1.590  14.604 -0.2921  0.0729 -0.0090
11106W        W26575   2.492   7.903   4.879 -0.1820  0.0332 -0.1198
11107W        W26576   4.729   5.412  15.690  0.0684  0.5321 -0.3322
11108W        W26577  11.978   7.860  15.016  0.0764 -0.0398 -0.3708
11109W        W26578   8.932   0.453  14.260 -0.0560 -0.1698 -0.2516
11110W        W26579  14.134   7.168  10.580 -0.0677 -0.0530 -0.2358
11111W        W26580  17.242   9.649  11.432  0.0849 -0.1367 -0.1942
11112W        W26581   2.550  11.704  14.268 -0.4392 -0.0203  0.0280
11113W        W26582   3.067   6.583  14.835  0.0830 -0.0459  0.0690
11114W        W26583  13.510   6.506  15.624 -0.1322  0.0770  0.0442
11115W        W26584  13.065  14.281  14.226 -0.1128 -0.1964 -0.0569
11116W        W26585  15.270  10.100  11.429  0.2138 -0.2870  0.4018
11117W        W26586  10.901   6.640  12.681  0.0950  0.2728 -0.1763
11118W        W26587   6.923   5.430   5.590  0.0531 -0.0099  0.1493
11119W        W26588  15.161   2.203   3.527  0.0765 -0.1431  0.0613
11120W        W26589  17.854  14.962   0.894 -0.1311 -0.1083 -0.2805
11121W        W26590   1.673   8.373  15.299 -0.1194  0.3820  0.0224
11122W        W26591   9.551   8.021   3.566  0.1559  0.0105 -0.0570
11123W        W26592   7.164  14.065  14.882 -0.1826 -0.0059  0.1490
11124W        W26593  16.051   8.515  15.786 -0.3341 -0.1382 -0.3252
11125W        W26594   2.762  10.121   1.042  0.1210  0.1532  0.1237
11126W        W26595   4.416   3.133   0.946  0.2293 -0.0884  0.2210
11127W        W26596  11.792  11.197  14.404 -0.1794  0.0073 -0.2330
11128W        W26597   5.769   5.918  16.561 -0.1093  0.0710 -0.2526
11129W        W26598   0.802   6.600   1.237 -0.2213 -0.0454 -0.1553
11130W        W26599   2.723  15.924   4.419 -0.0587  0.2799  0.0117
11131W        W26600  12.041   0.252   5.561  0.0348 -0.1837  0.2615
11132W        W26601   1.594  14.302   5.969 -0.0993  0.1538 -0.2095
11133W        W26602   8.953  11.993   4.582 -0.0109  0.0247 -0.0432
11134W        W26603  10.420  12.342  12.406  0.1234  0.1288 -0.2189
11135W        W26604  16.939  17.147   1.223  0.0334 -0.1994  0.1320
11136W        W26605   0.912  13.797   0.462  0.1573  0.2530 -0.0527
11137W        W26606   6.457   9.215   0.792 -0.0162 -0.0691 -0.4205
11138W        W26607  15.201   0.964  14.356 -0.1540  0.5781  0.0360
11139W        W26608   0.280   9.733   1.873  0.0907  0.2030  0.0117
11140W        W26609   1.438   5.709   4.799  0.0089  0.0989 -0.0645
11141W        W26610  16.828   6.035   2.135 -0.0673 -0.1536 -0.1499
11142W        W26611  16.185  13.359  10.648 -0.1710  0.1010 -0.0282
11143W        W26612  15.997   4.388   5.079  0.0050  0.0717  0.0194
11144W        W26613   2.683   5.310   3.937 -0.1118  0.1559  0.1486
11145W        W26614  12.053  10.485   1.357 -0.2718 -0.3606 -0.0299
11146W        W26615   9.951  17.234  14.531 -0.2037 -0.0278 -0.0090
11147W        W26616   3.829   5.035  11.316  0.1051  0.1700 -0.1069
11148W        W26617   7.033  17.589  12.328 -0.0841 -0.0839  0.1310
11149W        W26618   2.367  14.157   1.075  0.0617  0.1306  0.0263
11150W        W26619   0.714  10.261  11.914 -0.0910 -0.0625 -0.1216
11151W        W26620   2.094  11.550  12.658 -0.1286 -0.2356 -0.2957
11152W        W26621  10.445   7.539   4.864  0.0227  0.0807 -0.0081
11153W        W26622   1.096   2.771   2.843  0.0309 -0.0073  0.0751
11154W        W26623   8.123   2.202   3.777  0.1016 -0.1358 -0.1100
11155W        W26624   4.729   0.954  12.133 -0.1844 -0.2584 -0.0338
11156W        W26625  16.878   2.977  14.885 -0.0981  0.1695 -0.0524
11157W        W26626  13.843  17.595  12.300 -0.1051 -0.0322 -0.1507
11158W        W26627  15.773   0.889   6.026  0.0419 -0.2142 -0.1300
11159W        W26628   3.939   5.288  13.719 -0.0809 -0.0441  0.1370
11160W        W26629   4.530   7.287  15.293 -0.1074  0.2278  0.0069
11161W        W26630  11.699   3.467  11.565 -0.0089 -0.0755  0.3195
11162W        W26631  13.638  13.210   2.575  0.1976  0.1111  0.0367
11163W        W26632   3.277   1.374  12.823  0.1005  0.0808 -0.1109
11164W        W26633   9.070  12.327   4.273  0.2744  0.0427 -0.4206
11165W        W26634   3.667   1.043  12.962 -0.0055  0.4338  0.0027
11166W        W26635   1.046   6.967  15.692 -0.3075 -0.1125 -0.3637
11167W        W26636  10.362   9.896  13.102  0.0537  0.0593 -0.1314
11168W        W26637  11.562   9.011  16.138  0.0895 -0.1112  0.1538
11169W        W26638   0.243  14.500  14.483  0.1541 -0.3843  0.0024
11170W        W26639  14.420   0.782   0.521  0.2080 -0.1368 -0.0631
11171W        W26640  13.049   1.750   2.096  0.4200 -0.0221 -0.0479
11172W        W26641   5.848  17.972  15.163 -0.2836 -0.2486 -0.0981
11173W        W26642   7.230   5.784   4.568 -0.0508  0.1126  0.0224
11174W        W26643  14.275   5.700   5.306 -0.1085 -0.3107 -0.0308
11175W        W26644  11.593   5.292  15.291  0.1494  0.2557  0.0328
11176W        W26645  10.013   8.881  13.470  0.0633 -0.3594 -0.0584
11177W        W26646   6.361   5.832   4.270  0.1806 -0.0250 -0.1498
11178W        W26647  13.956  14.020  13.110 -0.1515  0.2705  0.0273
11179W        W26648  11.446  13.353  12.730 -0.0860 -0.2014  0.0921
11180W        W26649  13.440   2.132   5.008 -0.0893 -0.1430  0.1809
11181W        W26650  14.157  15.229   4.555  0.0705 -0.0617  0.0571
11182W        W26651  13.743  11.416   3.332  0.1473 -0.4263  0.3274
11183W        W26652   0.496  16.879  13.799 -0.0126  0.1972 -0.1117
11184W        W26653  15.239   2.641  13.744 -0.0488 -0.0771 -0.1584
11185W        W26654  13.782  13.733   0.095 -0.0584  0.1892  0.0128
11186W        W26655  13.976  14.330  12.187 -0.0081  0.0715  0.0801
11187W        W26656   7.015  12.607  11.168  0.0307 -0.0766 -0.0581
11188W        W26657   6.916  15.000   4.846 -0.0706 -0.0299 -0.3501
11189W        W26658   9.504  17.727   4.419 -0.2310  0.2984 -0.0536
11190W        W26659   2.118  17.274   0.593 -0.1459  0.1000 -0.1024
11191W        W26660   6.759  15.237   5.601  0.2750 -0.1851  0.2239
11192W        W26661   1.135   7.517   4.842  0.2451  0.2099 -0.1054
11193W        W26662  16.668  11.475   3.767  0.1825  0.0679  0.0992
11194W        W26663   9.245  14.443   0.126 -0.0534 -0.2248 -0.0086
11195W        W26664  15.600  11.474  14.090  0.2739 -0.0197 -0.0601
11196W        W26665  11.493  11.000   4.033  0.1690  0.2317 -0.0541
11197W        W26666   5.639  13.352  13.238  0.2580 -0.1010 -0.2473
11198W        W26667   2.863  13.336  11.708 -0.1282 -0.2922  0.2080
11199W        W26668   4.662   5.691  12.870  0.0200  0.0459  0.0796
11200W        W26669  16.521   1.810   2.441 -0.0289  0.0838 -0.0544
11201W        W26670   2.835  10.674  15.726 -0.3141 -0.0878 -0.1411
11202W        W26671  14.585  13.918  14.504  0.1395 -0.1965 -0.2089
11203W        W26672   5.061  11.354   3.993  0.1899  0.1403  0.0755
11204W        W26673  12.171   8.767   4.694 -0.3664 -0.2914 -0.1578
11205W        W26674  10.809  17.330  14.797 -0.0637 -0.1351  0.2131
11206W        W26675   1.938   9.664  15.348  0.3264 -0.0685  0.0659
11207W        W26676  16.976  17.396  12.783  0.1839 -0.0236  0.1230
11208W        W26677  14.804  14.357   5.210 -0.1532  0.0590 -0.1962
11209W        W26678  17.581   5.809  11.812  0.0292 -0.0187  0.1399
11210W        W26679   3.879  10.879   4.254  0.0414 -0.0356 -0.0229
11211W        W26680  15.709   3.245  15.014 -0.0816 -0.3200 -0.0477
11212W        W26681  11.390   0.681  16.516 -0.0444 -0.0086  0.1614
11213W        W26682  11.480   0.602   3.902  0.0572 -0.0502  0.0695
11214W        W26683  13.480   2.046  16.542 -0.0147 -0.1124  0.0565
11215W        W26684   5.163   9.457   2.776  0.0223 -0.1637  0.2115
11216W        W26685   8.725  17.316   3.066 -0.3996  0.0526 -0.3193
11217W        W26686  10.316  10.029   5.514  0.0551 -0.1448  0.3380
11218W        W26687   6.678   8.363  14.130 -0.0810  0.1316 -0.1970
11219W        W26688  11.726   6.140   4.598 -0.2167  0.0614 -0.1925
11220W        W26689   4.599   1.270  12.945  0.3994  0.0449  0.0479
11221W        W26690  13.213  13.238   1.860  0.2617 -0.3034 -0.2833
11222W        W26691   9.166   6.976   3.589 -0.0084  0.2539 -0.2642
11223W        W26692   5.470   2.981   0.837 -0.1849 -0.1052 -0.1485
11224W        W26693   7.779   1.702   5.304 -0.0993  0.1282  0.0658
11225W        W26694   2.422   7.330  14.787  0.0197  0.1857  0.0890
11226W        W26695  13.150   8.210  13.910 -0.1040  0.3778  0.2979
11227W        W26696  12.146  11.381   2.342 -0.0334  0.1477  0.3761
11228W        W26697  13.839   0.395  14.158 -0.0632 -0.1206  0.0325
11229W        W26698   9.249   6.497   4.167  0.1299  0.3546  0.3753
11230W        W26699   9.592   7.800   0.176  0.3786 -0.3476 -0.1096
11231W        W26700   5.135   3.467  15.081 -0.1220  0.0539 -0.0354
11232W        W26701  15.658  13.582   4.853  0.0725  0.2079 -0.0104
11233W        W26702   6.836   5.342  11.549 -0.1114 -0.0159 -0.2323
11234W        W26703   5.075  17.484   3.132  0.0973 -0.0280 -0.0327
11235W        W26704  13.485  10.836  12.324 -0.0439  0.0423 -0.0243
11236W        W26705   4.074  13.960   3.280  0.2044 -0.3276 -0.1251
11237W        W26706   8.986   7.814  11.084 -0.0090 -0.2335  0.3133
11238W        W26707  14.273  14.742   4.443 -0.1646 -0.0017  0.2195
11239W        W26708   7.897  14.439  10.764 -0.1082  0.2126 -0.4457
11240W        W26709   6.603   6.142   1.074 -0.0120  0.1175  0.0555
11241W        W26710  16.281   3.409  12.055 -0.0215  0.1250 -0.1251
11242W        W26711  12.334   1.167  12.721 -0.0676  0.1927 -0.1155
11243W        W26712   6.565   0.902  11.868  0.0342 -0.1022  0.0272
11244W        W26713  12.400  17.386  16.376 -0.0302 -0.1702  0.1582
11245W        W26714   6.083  12.628   1.172 -0.0650  0.1628 -0.2934
11246W        W26715  15.722  14.117   3.879 -0.0693 -0.1173  0.3561
11247W        W26716   4.847  14.081   1.688  0.3201  0.0925  0.0948
11248W        W26717  15.870   4.200   0.568 -0.0360  0.3019 -0.1760
11249W        W26718   5.944   1.594  14.156 -0.0359 -0.0106 -0.1210
11250W        W26719   9.850   3.142  12.648  0.1731 -0.0795 -0.0889
11251W        W26720  17.116  12.087   5.479 -0.0185 -0.2655  0.1138
11252W        W26721   6.043  13.771  12.428  0.3674  0.2938  0.0998
11253W        W26722  11.927  13.769   2.008  0.3570  0.2546 -0.0311
11254W        W26723   5.352  13.851   4.624 -0.2814 -0.1662  0.0781
11255W        W26724   7.752   3.384  15.254  0.2294  0.0712  0.0769
11256W        W26725   1.240  10.758   3.787 -0.0600  0.1634  0.3628
11257W        W26726   0.258  11.610  13.096 -0.1105  0.0396  0.6298
11258W        W26727  11.741  11.754  11.217 -0.0792  0.2088  0.3396
11259W        W26728   9.847   2.470   1.179  0.0492 -0.2877  0.1488
11260W        W26729   5.777   2.850  12.839 -0.3672  0.0409  0.3020
11261W        W26730   5.747  11.751   1.768  0.1583  0.1564 -0.0651
11262W        W26731   7.317  16.815   3.963  0.0358  0.0987 -0.1292
11263W        W26732  15.162  16.327  11.040 -0.0210 -0.1486 -0.1577
11264W        W26733  16.797   2.132  13.316  0.2994  0.0052  0.2337
11265W        W26734   9.046  10.595   3.949 -0.1001  0.0370 -0.2050
11266W        W26735   7.244  14.408  11.217 -0.0819 -0.0311  0.0918
11267W        W26736   6.869   4.077  12.738 -0.0539  0.2531  0.4798
11268W        W26737   6.493  13.959   2.629  0.3447 -0.0591 -0.0529
11269W        W26738   1.563  14.135  12.099 -0.2089 -0.0188 -0.0331
11270W        W26739  13.071  16.848  12.987  0.4164 -0.0546  0.3263
11271W        W26740  11.558   4.954   2.596  0.3799 -0.0547 -0.0661
11272W        W26741  11.711   8.508  12.272  0.0986  0.1049  0.3630
11273W        W26742   8.237  12.503  13.354 -0.0006  0.0353  0.3156
11274W        W26743   4.288   6.163  13.625  0.3461 -0.0306 -0.1879
11275W        W26744  12.074   1.672  11.798  0.1035 -0.1228 -0.2530
11276W        W26745   1.626  16.918  14.442  0.2259 -0.1405  0.2040
11277W        W26746   6.484  10.774   3.076  0.1191 -0.2401 -0.1435
11278W        W26747   3.636  13.307  13.662  0.1190  0.1810 -0.2352
11279W        W26748   5.058   7.385  14.456 -0.0973  0.1376 -0.2320
11280W        W26749  10.788   4.988  14.368  0.1055  0.0010 -0.0191
11281W        W26750   2.990   4.507   0.096 -0.2162 -0.3877 -0.0480
11282W        W26751   4.458  12.067   2.820 -0.0301 -0.1230 -0.0014
11283W        W26752   3.799  10.798  16.387 -0.0842  0.0790  0.0094
11284W        W26753   6.363   6.514   0.809  0.4009 -0.3564 -0.1554
11285W        W26754   5.066   9.552   4.798  0.0821  0.0920  0.2494
11286W        W26755   4.142   2.578   2.917  0.0250  0.2579  0.1058
11287W        W26756  13.930   0.174  16.390 -0.0028  0.4138  0.0797
11288W        W26757   8.694  14.866  12.690  0.1271  0.3674  0.3367
11289W        W26758   7.890   3.801   2.399 -0.0066 -0.3330  0.0065
11290W        W26759   9.421  10.032  14.015  0.3273 -0.3187 -0.1711
11291W        W26760  16.060  12.032   5.503 -0.0584  0.2693 -0.2702
11292W        W26761  12.626  13.072  14.029 -0.3280  0.1379  0.1152
11293W        W26762   5.512  16.184   0.554 -0.4145  0.1065 -0.1150
11294W        W26763  14.386   7.693  13.726  0.3401  0.1768  0.2652
11295W        W26764   8.963   8.292   0.700 -0.3993  0.1072  0.0499
11296W        W26765   3.254   9.461   4.082  0.0328 -0.2366  0.1085
11297W        W26766  12.880   4.260   3.218  0.2331  0.0625 -0.2155
11298W        W26767   6.204  17.785   4.276  0.2051 -0.0896  0.1182
11299W        W26768   9.082   2.200  15.499 -0.2152 -0.3235  0.1881
11300W        W26769   2.726   0.121  11.344 -0.1153  0.0194  0.1135
11301W        W26770  16.358   6.279   1.241  0.0167 -0.2650  0.3696
11302W        W26771  16.960   0.349  11.685 -0.0605 -0.2426 -0.0375
11303W        W26772  12.174   7.097  13.307 -0.3982  0.2008  0.2196
11304W        W26773  15.127  11.951   5.613 -0.1072  0.1941  0.0088
11305W        W26774   1.680   2.227  10.678 -0.1162 -0.2671  0.0298
11306W        W26775   4.805  10.032  14.153  0.0311 -0.0755 -0.0293
11307W        W26776   9.027   4.173  12.446 -0.0375 -0.4262 -0.1450
11308W        W26777  10.022   0.461   4.435  0.3061  0.0672  0.0009
11309W        W26778   8.724   4.135   1.381 -0.1894  0.1401  0.0850
11310W        W26779   8.833   8.732  16.455 -0.1253  0.1219 -0.2626
11311W        W26780  15.704   2.414  13.525  0.0929 -0.1221  0.1025
11312W        W26781   8.686   3.970   3.649 -0.0694 -0.0864  0.1529
11313W        W26782   4.028   7.805   1.915 -0.2619  0.1903  0.1540
11314W        W26783  10.422   6.987  15.775 -0.3131 -0.1637  0.0807
11315W        W26784   5.700  11.037   2.774  0.0066 -0.4344 -0.0468
11316W        W26785   8.559   6.284  14.732  0.1262 -0.0246  0.1291
11317W        W26786   7.718  11.453  15.860  0.3472  0.0324 -0.1651
11318W        W26787   0.523  10.320   3.117 -0.0993  0.2195 -0.0116
11319W        W26788  15.547   2.379   2.881 -0.0500 -0.0711  0.3322
11320W        W26789  10.874  11.918  13.993 -0.1697 -0.0481 -0.1231
11321W        W26790  17.442  14.753  15.928  0.2446  0.2085 -0.1139
11322W        W26791  15.229  11.140  12.875 -0.2407  0.0636 -0.1079
11323W        W26792  12.538   4.718   1.416  0.1284  0.0833 -0.2020
11324W        W26793  11.017  15.661   4.783 -0.3252  0.2561 -0.2722
11325W        W26794   8.541  17.658  13.918 -0.0887  0.0002 -0.1033
11326W        W26795  15.568   8.770  11.651 -0.2569 -0.1225 -0.0241
11327W        W26796   1.529   8.237  14.308 -0.1114 -0.1020  0.3278
11328W        W26797   6.967  13.341  14.512  0.1163  0.1643 -0.3669
11329W        W26798   9.539   1.922  16.011  0.1300  0.3359  0.0240
11330W        W26799   7.746   4.867   5.449 -0.0532  0.3650 -0.1400
11331W        W26800  16.854  15.475  11.900  0.3398 -0.0398 -0.4163
11332W        W26801   3.710   7.091  14.402  0.0520  0.0806  0.1284
11333W        W26802  14.285  12.555  12.219  0.1010 -0.1085 -0.1055
11334W        W26803  13.445   7.621  10.876  0.1848  0.1265 -0.1765
11335W        W26804   9.525   7.288  15.668  0.1114  0.0550 -0.1316
11336W        W26805   5.123   4.654   0.668 -0.0367 -0.1252  0.0769
11337W        W26806   2.437   5.848   2.988  0.2236  0.1689  0.1581
11338W        W26807   0.895   3.277   4.772  0.3397 -0.0140  0.0396
11339W        W26808  17.176  16.182  14.915  0.0905  0.1703  0.1913
11340W        W26809   7.656   2.586   0.891  0.0123 -0.1657  0.0030
11341W        W26810  14.601   7.681   4.674 -0.0196 -0.0128 -0.0408
11342W        W26811   3.311  11.356   2.929 -0.1751 -0.1323 -0.0781
11343W        W26812   2.485   8.586  14.345 -0.1395  0.2145 -0.1124
11344W        W26813  13.057   3.227   0.324 -0.1005 -0.1531 -0.3495
11345W        W26814   6.042   5.648  14.040 -0.0411  0.0186 -0.0190
11346W        W26815  11.822   0.338  12.131  0.0572  0.1776  0.1381
11347W        W26816   9.161   9.204  11.576  0.1686 -0.3079 -0.1409
11348W        W26817   9.329   7.327   4.040  0.0196  0.1308  0.0082
11349W        W26818   8.856   8.428   4.381 -0.1474 -0.2878 -0.1185
11350W        W26819   5.798   7.449  13.541  0.0991  0.1116 -0.3407
11351W        W26820   0.491   8.337   3.484 -0.2297  0.0245 -0.0618
11352W        W26821   1.172   5.661  11.030 -0.2800 -0.1145 -0.1509
11353W        W26822  13.194   7.250  15.983  0.1481 -0.0701  0.3660
11354W        W26823  16.605   0.206  12.439 -0.0720  0.1666  0.0428
11355W        W26824  15.383   2.945   0.373  0.0117  0.1514 -0.0394
11356W        W26825   6.183   2.438   4.548  0.1140  0.1232  0.0146
11357W        W26826   2.078  17.841   2.338 -0.2364  0.0461  0.0306
11358W        W26827  15.347  10.343  14.648 -0.0719  0.1725 -0.3533
11359W        W26828   7.116   2.731   6.323  0.1396 -0.1795  0.1576
11360W        W26829   1.398   5.045  13.690 -0.0416  0.4215  0.0269
11361W        W26830   5.436  12.847  14.074 -0.1746 -0.1407  0.3093
11362W        W26831   1.935  11.020  12.210  0.0783 -0.0762 -0.0897
11363W        W26832   3.889  14.508   5.655  0.1241 -0.1002 -0.1263
11364W        W26833   2.342  17.083  16.083 -0.0932 -0.0220 -0.2287
11365W        W26834  11.947  14.373  11.873 -0.1677  0.3193  0.1882
11366W        W26835  14.855   7.989  12.027  0.1099  0.0400  0.0283
11367W        W26836  13.415  12.572  14.901  0.4796 -0.0846 -0.1516
11368W        W26837  17.256  17.561   5.692  0.0720  0.3442  0.1661
11369W        W26838  12.754   9.163   2.240  0.2185 -0.0388 -0.2231
11370W        W26839  13.450  11.996  12.695 -0.2693 -0.2056  0.0498
11371W        W26840   3.440  14.557   0.948 -0.0837 -0.1390 -0.4005
11372W        W26841  12.466  13.096   3.223  0.1728  0.1484  0.0658
11373W        W26842   6.264  11.251   4.449  0.1990 -0.0539 -0.0220
11374W        W26843  10.951   5.609   2.991 -0.3884  0.4083 -0.1864
11375W        W26844  12.605   8.723   4.332 -0.2805 -0.0910  0.1861
11376W        W26845   2.564   5.653  11.289  0.0659  0.1226  0.3094
11377W        W26846  11.533  17.293   4.261 -0.0818  0.0560 -0.0803
11378W        W26847  16.487   8.664  14.655  0.0806  0.1762 -0.2343
11379W        W26848   9.530  14.445  15.200 -0.4856 -0.0856  0.1552
11380W        W26849   7.554  12.564  12.738 -0.0888 -0.1062  0.0406
11381W        W26850  17.107   0.689   1.522  0.1292 -0.2174 -0.2023
11382W        W26851  11.692   1.041  13.131 -0.1378  0.2316 -0.1263
11383W        W26852   6.341  15.810   2.205 -0.4474  0.0213  0.1338
11384W        W26853   3.413   7.024   2.327  0.0933  0.1113 -0.1846
11385W        W26854   5.870   5.772  16.063 -0.1139 -0.0625  0.0025
11386W        W26855   5.585   3.213   4.807  0.0506  0.0346  0.1984
11387W        W26856  15.644   8.676   4.992  0.1094  0.2029  0.0749
11388W        W26857  13.315  16.025  13.765 -0.3608 -0.2283  0.0081
11389W        W26858  17.529   8.422  12.998  0.1008 -0.1186  0.2932
11390W        W26859  14.227  14.775  14.185  0.1933 -0.0286  0.1140
11391W        W26860  17.911  14.897  13.337  0.1263 -0.0646  0.1087
11392W        W26861   5.898  12.022   4.950 -0.1070 -0.0946 -0.3149
11393W        W26862   9.208  15.465  13.190 -0.1067  0.1284  0.0547
11394W        W26863  10.468   5.691   1.088 -0.0861 -0.3026 -0.0533
11395W        W26864   0.805  10.112  11.368 -0.1927  0.0722  0.1581
11396W        W26865   3.350  13.913  16.497  0.0079  0.1107  0.0907
11397W        W26866  11.885   4.050  14.446  0.0539  0.2103  0.1366
11398W        W26867   9.370  17.120  12.420  0.0671 -0.1490 -0.0278
11399W        W26868   1.922   5.171   1.529 -0.0362 -0.3023 -0.0145
11400W        W26869  16.654   2.497   0.896  0.0811 -0.0427  0.2404
11401W        W26870  11.682   8.468  13.654 -0.0834 -0.3891  0.2022
11402W        W26871  16.712  11.940  15.849 -0.0335  0.3855 -0.2206
11403W        W26872  16.720   6.617   3.557  0.2787  0.1705  0.2220
11404W        W26873  14.105  10.165  11.716 -0.2129 -0.1827  0.0013
11405W        W26874  13.098   6.270   2.646  0.2189  0.2613  0.0221
11406W        W26875   9.268  10.916  14.856 -0.1472 -0.0157 -0.2415
11407W        W26876  13.838   0.016   5.910  0.0878 -0.0270 -0.0397
11408W        W26877   4.586   4.655  16.459 -0.0519  0.0516 -0.1441
11409W        W26878   6.182   3.500   3.108  0.1882  0.3105 -0.0359
11410W        W26879   6.169  14.730   2.057 -0.1064 -0.1485 -0.1237
11411W        W26880  14.129  12.659  14.218  0.0040  0.1882 -0.4292
11412W        W26881   3.258   3.397   3.894  0.0634 -0.3591 -0.2925
11413W        W26882   6.424  15.489   5.878  0.0851 -0.4158  0.2216
11414W        W26883   7.634   4.282   1.314 -0.1708 -0.1416 -0.2684
11415W        W26884  15.205  13.524   1.018  0.2708 -0.1858 -0.1722
11416W        W26885   2.781   9.626   2.429 -0.1014  0.0179  0.0906
11417W        W26886   9.917   4.036   4.154  0.2311  0.0596  0.4191
11418W        W26887   5.367  17.004   5.462  0.0477  0.0748  0.0743
11419W        W26888   3.510   8.356  14.308 -0.0492 -0.0974 -0.2620
11420W        W26889   3.338  16.599  13.665 -0.0957 -0.1957  0.2676
11421W        W26890   6.033   7.784  16.113 -0.1106  0.0905  0.1447
11422W        W26891   0.140   8.093  13.799 -0.0943 -0.0942 -0.0555
11423W        W26892  13.391   9.465  15.746  0.0404  0.1494  0.0265
11424W        W26893   9.985  15.380   3.220  0.1657  0.0630 -0.0576
11425W        W26894   6.821   5.139   1.055  0.0627 -0.0295  0.0150
11426W        W26895   1.278  12.583  14.621  0.0504 -0.0970 -0.0928
11427W        W26896  16.529   4.027  13.602  0.1245 -0.2676  0.4789
11428W        W26897   6.771  16.467   2.014  0.0675  0.1913  0.0986
11429W        W26898  16.196   1.179  12.243 -0.0256  0.4397 -0.3159
11430W        W26899  11.585   5.482  12.713  0.0866  0.0553 -0.2208
11431W        W26900   9.717  13.793  12.645  0.1114 -0.1177  0.0305
11432W        W26901  10.337  17.360  12.511 -0.2227  0.1491  0.0187
11433W        W26902  11.511  11.017  15.148  0.1605  0.1757 -0.1962
11434W        W26903  11.243   8.252  14.929  0.0524 -0.2321  0.0403
11435W        W26904  11.709   2.284   4.687  0.0230 -0.0162  0.2317
11436W        W26905  17.336   3.849   3.832  0.0087 -0.2311  0.1448
11437W        W26906  15.878   1.927  13.416  0.2010 -0.0825  0.0747
11438W        W26907  12.079  10.435  11.101  0.2494  0.0181 -0.0674
11439W        W26908  16.933   0.799   6.436 -0.3803 -0.2629 -0.1730
11440W        W26909  11.877   6.160  13.696 -0.2007 -0.2426  0.0727
11441W        W26910  15.189   2.917   5.204 -0.2531  0.0349  0.3161
11442W        W26911   5.901  16.385  14.540 -0.1696  0.1553  0.2029
11443W        W26912   1.130  11.582  11.161  0.2798  0.0288 -0.2257
11444W        W26913   6.730   0.236  15.978 -0.0148 -0.2974  0.1334
11445W        W26914  12.515   9.985   0.330  0.0368 -0.0210 -0.0635
11446W        W26915   2.394  14.156  16.065  0.1759 -0.0933  0.1888
11447W        W26916  10.842  17.691   5.179  0.1343  0.2645 -0.2602
11448W        W26917   3.556  12.124   2.573  0.1841  0.1487 -0.0043
11449W        W26918  10.252  17.000   2.289  0.0852 -0.2884  0.0472
11450W        W26919  15.050   0.466   1.075  0.0726  0.2424 -0.0413
11451W        W26920   3.732   9.627   1.056 -0.2450 -0.0445  0.2183
11452W        W26921   4.476   1.408   1.786 -0.0441 -0.2340  0.0557
11453W        W26922  16.903  12.744   4.611 -0.3102  0.0010 -0.0879
11454W        W26923   9.785  16.735   4.041 -0.2787 -0.0247  0.0654
11455W        W26924   6.634  14.278  11.734  0.0463  0.0170 -0.1176
11456W        W26925   5.429   8.564  12.217  0.0961 -0.2846 -0.0481
11457W        W26926   9.284  17.153   1.956 -0.0896  0.0290  0.1194
11458W        W26927   2.937   0.101  13.703 -0.1885  0.1451  0.1679
11459W        W26928  14.921  14.968  14.066  0.2575  0.4115 -0.0699
11460W        W26929   3.121  11.623   3.824  0.1214  0.0471 -0.0548
11461W        W26930  14.925   1.031   1.651  0.0223 -0.0957  0.0788
11462W        W26931   8.443  11.958   4.755  0.1832 -0.0118 -0.0363
11463W        W26932   7.641   2.599   2.023 -0.0314  0.0186  0.0957
11464W        W26933   5.229   7.212  12.793 -0.3100  0.0883 -0.0390
11465W        W26934   0.334  16.889   6.069 -0.0047 -0.2715  0.0764
11466W        W26935   6.687   9.081  15.008  0.3259  0.2818 -0.0519
11467W        W26936   7.816   1.714   4.728 -0.0802  0.0132  0.0831
11468W        W26937  17.837   3.386   2.676 -0.1823 -0.0728  0.0578
11469W        W26938   9.316   9.180   4.899  0.1705  0.1598  0.0633
11470W        W26939   2.717   7.761   2.861  0.3151 -0.0825 -0.0580
11471W        W26940   3.059  16.035   2.306 -0.0115 -0.2003  0.0008
11472W        W26941   5.570  12.244   4.184  0.0418  0.5017 -0.1359
11473W        W26942   1.818   6.826  10.519 -0.3842  0.2445  0.3423
11474W        W26943  17.626  13.954   2.418 -0.0677 -0.0936  0.1553
11475W        W26944  12.353   1.314   2.778  0.0482  0.0366 -0.1099
11476W        W26945  17.587  15.369  13.178 -0.0016  0.1398 -0.0434
11477W        W26946   5.032  14.412   4.528  0.2313  0.1245  0.0284
11478W        W26947   1.075   7.516  12.789  0.0916  0.0569 -0.0055
11479W        W26948   5.848   0.500   2.762 -0.1581  0.2105  0.1496
11480W        W26949   7.304  12.891   4.449  0.1857 -0.0984 -0.1891
11481W        W26950   7.975   6.329   4.700  0.2784 -0.0160  0.3232
11482W        W26951  14.979  11.027   5.275 -0.1835 -0.1783  0.0411
11483W        W26952  10.715  10.063   4.186  0.0452  0.5077  0.1687
11484W        W26953   1.706   8.056   3.136 -0.1249  0.2711  0.1536
11485W        W26954   9.431  13.069   4.655 -0.2868  0.1017  0.3233
11486W        W26955  12.294   1.782   0.540  0.0473  0.1039 -0.0805
11487W        W26956  17.313  16.734  12.039  0.0593  0.0004  0.2994
11488W        W26957   4.274   6.949   3.910  0.1219  0.1030  0.1773
11489W        W26958  10.657  13.310  13.325  0.4306 -0.1260 -0.3607
11490W        W26959  15.361  15.287   1.243  0.2914 -0.5486  0.3054
11491W        W26960  11.934  10.844   3.101  0.2596  0.2719 -0.4356
11492W        W26961  16.792   5.917  16.609 -0.1508  0.3689  0.1414
11493W        W26962  17.373   9.122  13.520  0.2402  0.3162  0.1791
11494W        W26963  17.729   1.561  14.868  0.0724  0.0624 -0.0367
11495W        W26964   3.278  10.755  12.948  0.0783  0.0570  0.2134
11496W        W26965  14.013  15.237  12.457  0.1048 -0.2212  0.3576
11497W        W26966   6.798  13.740  12.624  0.3290 -0.0425  0.0509
11498W        W26967  13.151  13.429   5.435 -0.3578 -0.0634  0.0873
11499W        W26968  16.737  10.698  14.263  0.0838  0.1417 -0.0489
11500W        W26969   2.014   7.093   3.716  0.0788 -0.2962 -0.0352
11501W        W26970   6.400   3.487  15.569 -0.0467  0.1644  0.0947
11502W        W26971   9.223  15.812  12.327  0.2647  0.4774 -0.0696
11503W        W26972   1.508   7.949   9.603 -0.2137 -0.1468  0.1411
11504W        W26973  14.244   2.580   3.883 -0.0813  0.1096 -0.1838
11505W        W26974   6.392   6.226   2.595  0.3226 -0.1633  0.3130
11506W        W26975   0.887   8.441   0.907  0.0087  0.1601 -0.0169
11507W        W26976   4.543   5.296   0.872  0.0292 -0.1412 -0.0321
11508W        W26977  12.190   0.188   4.689 -0.1404  0.0417 -0.0379
11509W        W26978  17.398  12.778  12.669  0.0678  0.0248 -0.0056
11510W        W26979   9.479   8.051  14.615 -0.0649 -0.1698 -0.3560
11511W        W26980  10.236  15.825   1.173 -0.0882  0.1490 -0.0481
11512W        W26981   8.939  17.510  14.189  0.1665  0.0126 -0.2023
11513W        W26982   9.233   8.126  16.505 -0.0017  0.3363  0.1303
11514W        W26983   8.559   2.337   4.497  0.1031 -0.1957  0.0847
11515W        W26984  12.807   8.417  13.046  0.1714  0.1857 -0.3018
11516W        W26985   2.613   6.670  10.889  0.1751  0.0067  0.2148
11517W        W26986  13.289   5.581   0.517  0.0365 -0.0931 -0.0553
11518W        W26987   2.655   8.158   4.455 -0.2698 -0.1740  0.0691
11519W        W26988   9.433  11.493   2.148 -0.2619  0.1117  0.0083
11520W        W26989  10.766   1.660   4.936 -0.0878  0.1056 -0.1161
11521W        W26990  10.784  17.325   5.631 -0.3193 -0.0747  0.0053
11522W        W26991  11.680  15.379  14.122 -0.0108 -0.2764  0.0654
11523W        W26992   7.612   1.672  15.477 -0.0837 -0.0036  0.3359
11524W        W26993   5.206  14.944   5.424  0.1841 -0.0039 -0.3391
11525W        W26994   2.227   9.589   2.689 -0.2166 -0.1025 -0.0559
11526W        W26995  12.618   9.369  16.176  0.1030 -0.1105  0.0434
11527W        W26996  16.975   6.874  16.348 -0.0178 -0.0403  0.0338
11528W        W26997  13.745  13.870   6.127  0.1761  0.1871  0.1387
11529W        W26998   0.390   0.749   4.632 -0.2070 -0.0934  0.0430
11530W        W26999  10.284   5.338   4.506  0.1006  0.0803  0.5522
11531W        W27000  16.307   4.831   0.310 -0.0305 -0.0240  0.0724
11532W        W27001   4.278  15.780  16.569 -0.1204 -0.2414  0.1550
11533W        W27002  16.637  17.196   2.150 -0.1758 -0.1205 -0.0273
11534W        W27003   8.580  10.415   4.912 -0.1474  0.0135  0.0198
11535W        W27004  10.429   6.023  14.750 -0.1095 -0.2180  0.0190
11536W        W27005   3.438   9.106   3.233 -0.2040  0.0673 -0.3130
11537W        W27006   7.013   9.082   0.860  0.0680  0.0341 -0.1765
11538W        W27007   8.584   6.047  11.430  0.4180 -0.2106  0.0590
11539W        W27008  10.744   8.525   1.123  0.1126  0.0423 -0.0605
11540W        W27009  15.568   6.592  15.314  0.0122  0.1857 -0.1313
11541W        W27010  17.381   9.550  14.707  0.0637  0.2815 -0.0404
11542W        W27011  12.081   9.841  13.177  0.0085  0.0425  0.0127
11543W        W27012  13.768   5.719  16.519 -0.0077  0.2588 -0.1849
11544W        W27013   5.546  17.209   3.284  0.0247 -0.3905 -0.0574
11545W        W27014  15.494  11.670   1.457 -0.4115 -0.1739  0.2044
11546W        W27015  16.302   5.914  12.150  0.2792 -0.2901 -0.0172
11547W        W27016   1.713   1.021  16.602 -0.2544 -0.0047 -0.1986
11548W        W27017  12.275  11.656  15.152 -0.3156  0.1980 -0.2193
11549W        W27018   8.940  13.001   5.360 -0.0738  0.1435  0.0685
11550W        W27019   3.543   2.358  11.758 -0.3432  0.2187 -0.2760
11551W        W27020   0.336  13.497  16.037  0.1439 -0.0486 -0.0996
11552W        W27021  17.867   0.977  16.475 -0.2916  0.0125 -0.1783
11553W        W27022   6.358   7.440   2.559  0.0994  0.0673  0.1400
11554W        W27023   9.670  17.247   1.091 -0.0169  0.4406  0.1945
11555W        W27024   7.935   4.327   4.291 -0.0334  0.2621 -0.5971
11556W        W27025  17.434   1.664   0.464  0.2885  0.0374 -0.1519
11557W        W27026  11.847   0.691   5.526  0.0981 -0.0213 -0.0417
11558W        W27027  11.705  17.731   4.037  0.0286 -0.1811 -0.1322
11559W        W27028   8.157   0.108  16.330 -0.0911  0.0485  0.1352
11560W        W27029   5.415   7.395  13.969  0.0473 -0.0269 -0.2372
11561W        W27030   2.163   1.934   2.726 -0.0679 -0.1514 -0.0139
11562W        W27031  13.207   2.943  12.212 -0.1408  0.1246  0.0086
11563W        W27032   4.819   8.825  13.268 -0.0694 -0.1128 -0.2222
11564W        W27033   8.663  12.692  13.230  0.2109  0.0009 -0.0315
11565W        W27034  10.919   8.068   1.876  0.1315  0.1623  0.0366
11566W        W27035   7.126  14.671   3.924 -0.2531 -0.0528 -0.2134
11567W        W27036   0.939   8.490   4.707  0.0992 -0.0998 -0.0804
11568W        W27037   3.581  11.493  15.165 -0.0867  0.0269  0.0916
11569W        W27038   7.901   4.041   5.848  0.2827  0.1673  0.0979
11570W        W27039  15.770   7.398   3.849  0.1535 -0.1310 -0.3007
11571W        W27040   2.966  14.809   2.661  0.0597 -0.1719 -0.2436
11572W        W27041   5.077   7.118  10.739 -0.1007  0.2189 -0.1490
11573W        W27042   0.443   1.251   1.516 -0.2045 -0.3567 -0.0218
11574W        W27043   5.083  10.184  13.756  0.0408  0.2162 -0.1229
11575W        W27044   5.162   5.551   4.199  0.1473  0.0208 -0.3265
11576W        W27045   0.364   2.587   2.506  0.0812 -0.0245  0.0397
11577W        W27046  16.119  10.949   1.693  0.0845 -0.2070  0.0154
11578W        W27047   4.313   2.698  12.741 -0.0460 -0.1939  0.0933
11579W        W27048   4.290  16.034   0.429 -0.0841 -0.3055  0.1642
11580W        W27049  17.483   6.666   1.960  0.0366 -0.0464  0.2439
11581W        W27050  14.575  15.393  13.460  0.1074  0.4457 -0.1396
11582W        W27051   2.705   7.617  14.496  0.0722 -0.1332  0.1455
11583W        W27052  14.098   2.632   2.760 -0.1126  0.0704 -0.3577
11584W        W27053  17.973   5.374  14.139 -0.2098  0.3674  0.2123
11585W        W27054   2.182   7.225  16.174 -0.1291 -0.0857  0.0127
11586W        W27055  11.957  11.457  14.804 -0.0280  0.4983  0.0755
11587W        W27056   3.467  17.080   0.233  0.2250 -0.3556  0.1802
11588W        W27057   1.378  11.688  15.974  0.1117  0.2239  0.0349
11589W        W27058  17.423   3.092  15.251  0.1771  0.2635 -0.0794
11590W        W27059  10.134   7.901  13.551 -0.0602 -0.3804 -0.1413
11591W        W27060   4.500   4.190   4.311  0.1862 -0.1803 -0.2557
11592W        W27061  11.900   4.907  15.536 -0.1950  0.0849  0.1365
11593W        W27062   5.440   0.875   0.068  0.0256  0.0068 -0.0980
11594W        W27063   9.315  10.882   3.084 -0.1824 -0.0791 -0.0180
11595W        W27064   7.064  15.937  16.218  0.0158 -0.1802  0.2510
11596W        W27065   7.791   7.276   3.387  0.1467  0.1718 -0.0663
11597W        W27066  13.661  12.270  11.413 -0.1185 -0.3596  0.1136
11598W        W27067   2.723   6.158  15.503 -0.0204  0.1439  0.3149
11599W        W27068  13.932   9.599   2.180  0.1514  0.3022  0.1833
11600W        W27069  16.730   0.323  16.476 -0.0116 -0.1369 -0.0267
11601W        W27070   0.643  15.274   0.500 -0.1423 -0.1586  0.0142
11602W        W27071   8.702   0.703   2.527 -0.0610 -0.0217  0.0993
11603W        W27072  11.545   3.335   5.811 -0.1326 -0.3673  0.0035
11604W        W27073   0.612  16.626  13.414  0.1381  0.1255 -0.0774
11605W        W27074   6.349  12.889  10.141 -0.0495 -0.0537  0.4857
11606W        W27075   7.039  10.606   3.703  0.0034 -0.0646  0.3375
11607W        W27076   6.054  15.636  13.301 -0.0723 -0.0505 -0.3171
11608W        W27077  12.774   6.014  13.191 -0.1422  0.1964  0.1938
11609W        W27078  11.093  15.454   5.798  0.0359 -0.0376 -0.0679
11610W        W27079  14.857   2.980  16.154 -0.1008 -0.2476  0.1667
11611W        W27080   3.878   9.071  14.930 -0.2356 -0.1029  0.3453
11612W        W27081  11.398  14.917   2.067 -0.3747  0.0862 -0.2286
11613W        W27082  16.083   6.202  12.660  0.1989 -0.0446  0.1935
11614W        W27083  12.106   3.220   3.730 -0.1634  0.0139  0.2499
11615W        W27084   8.195   2.684   3.729  0.0292 -0.1364  0.0575
11616W        W27085  17.649  16.399  13.441 -0.2561  0.1660  0.0102
11617W        W27086  17.204  10.887   2.383 -0.3855  0.0181  0.2089
11618W        W27087   4.212   6.798  15.202 -0.0511 -0.2276  0.0333
11619W        W27088  11.049  15.376   5.242 -0.1758  0.0886 -0.0144
11620W        W27089   3.616   4.415  15.114 -0.2056 -0.0171 -0.1003
11621W        W27090   9.603  13.557  14.281  0.1706 -0.1512  0.1339
11622W        W27091   5.613   0.885  12.179 -0.1367 -0.4574  0.1182
11623W        W27092   2.043   6.625  15.580 -0.1512 -0.0961  0.1537
11624W        W27093   0.456  10.283  13.308 -0.2517 -0.1215 -0.2674
11625W        W27094   5.568  17.838  12.266 -0.1230  0.5048  0.0924
11626W        W27095  10.256   4.583   1.986  0.2623 -0.1727 -0.0789
11627W        W27096   7.209   8.771  15.661  0.3360  0.2451  0.0287
11628W        W27097  16.980   7.316   3.372 -0.1689 -0.1312 -0.2704
11629W        W27098   9.301   5.871  14.881 -0.1085  0.0936  0.1992
11630W        W27099   4.099   5.581  13.012 -0.0193  0.0521  0.2107
11631W        W27100   2.539   6.893  13.691 -0.0524 -0.3264  0.2752
11632W        W27101   2.610  12.270   1.643 -0.1555  0.0979 -0.0495
11633W        W27102   6.881   7.168  11.843  0.0776  0.1440  0.0780
11634W        W27103  15.895   6.947   3.801 -0.1777  0.0272 -0.0677
11635W        W27104   8.775   3.354   0.731 -0.0875 -0.0140 -0.2499
11636W        W27105  17.346  13.726   4.529 -0.3468  0.2872  0.2461
11637W        W27106   2.589   1.673   2.646  0.0664 -0.1046 -0.0014
11638W        W27107   9.745   6.707  10.360  0.2570 -0.1689 -0.3320
11639W        W27108  10.787   2.281  14.063 -0.3236 -0.0214  0.1213
11640W        W27109  11.468  16.559  14.232 -0.2349  0.0593  0.0592
11641W        W27110   7.803   7.907   6.209  0.0900  0.0083 -0.0071
11642W        W27111   7.463   0.038   5.786  0.1153 -0.1101 -0.0601
11643W        W27112   5.368   3.592  11.591 -0.3108 -0.1356  0.0723
11644W        W27113  16.207  15.027  15.835  0.0243  0.4188  0.1157
11645W        W27114   6.842  15.439  14.949 -0.0749  0.4520  0.0470
11646W        W27115   6.566   1.294  14.918  0.1665  0.0346 -0.0782
11647W        W27116  12.971  13.493  15.003 -0.0002 -0.0713  0.2311
11648W        W27117  12.196  10.726  12.822  0.1008  0.2986 -0.1196
11649W        W27118   5.744   9.764   2.073 -0.0217 -0.1380 -0.0234
11650W        W27119  11.426  16.814  13.732  0.4011 -0.1301 -0.1182
11651W        W27120   1.300  12.427   5.387  0.1263  0.0609  0.3086
11652W        W27121   8.144  17.170   1.172 -0.1958 -0.1649 -0.0580
11653W        W27122   4.053   0.884  13.762 -0.2802 -0.3821  0.2806
11654W        W27123  14.617   6.506   2.248 -0.0935 -0.0066  0.2431
11655W        W27124   9.318   4.145   0.830  0.2132 -0.2786 -0.3964
11656W        W27125   4.929  16.672   4.880  0.0898 -0.0931 -0.0909
11657W        W27126  11.199  13.621   3.132 -0.1657  0.2521 -0.0861
11658W        W27127   4.501   5.573  16.190 -0.2245 -0.0257 -0.1230
11659W        W27128   3.827   5.178   4.047 -0.1614 -0.1214 -0.0716
11660W        W27129   5.262  11.564   5.886  0.0401 -0.0250 -0.1297
11661W        W27130  11.726   4.932  13.423  0.0201 -0.2857  0.0949
11662W        W27131  11.169  15.333   0.011 -0.1180  0.2335 -0.2118
11663W        W27132   9.273  15.085  16.158 -0.2639 -0.0337  0.0399
11664W        W27133  14.425   6.660  13.350 -0.0196 -0.1259 -0.1363
11665W        W27134  17.522   3.401  14.843  0.0414  0.1239  0.3281
11666W        W27135  10.572   2.416   1.952  0.2722 -0.0022  0.1764
11667W        W27136   2.997   3.717   3.642  0.2876 -0.2254 -0.4046
11668W        W27137   1.869  13.083  13.952  0.2602  0.1037  0.1424
11669W        W27138  10.173  13.816   4.001  0.2958  0.1364 -0.0651
11670W        W27139   4.088   1.667  14.602  0.0599  0.0173 -0.0834
11671W        W27140   5.205   2.321  13.074 -0.0272 -0.2784  0.2090
11672W        W27141  11.679   7.297  12.372  0.1692  0.0687  0.1075
11673W        W27142  13.075   8.870  11.014 -0.2638  0.3256  0.0879
11674W        W27143  13.406   3.039   1.637 -0.0600  0.3882 -0.0205
11675W        W27144  14.979  13.125   4.317 -0.0218 -0.0895 -0.0226
11676W        W27145  16.884  12.400  13.171  0.1764  0.1796 -0.0475
11677W        W27146   6.196  17.250  14.479 -0.1353 -0.1248 -0.2056
11678W        W27147   9.088   8.159  11.850  0.1726 -0.0506 -0.3118
11679W        W27148   2.596   4.080   2.143  0.3979 -0.0379  0.0833
11680W        W27149   4.429   2.278  15.080  0.1807 -0.4682 -0.1074
11681W        W27150  11.700  10.019  12.186  0.0116 -0.3992  0.0945
11682W        W27151   8.401  15.123   1.095 -0.1701  0.5660  0.0611
11683W        W27152   5.643  13.785  14.648 -0.1189  0.1252  0.5966
11684W        W27153   8.828  17.003  11.840  0.0205  0.0051 -0.0896
11685W        W27154   5.436   6.636   0.754 -0.3599  0.0307 -0.0748
11686W        W27155  12.457  16.560  16.278  0.2714  0.1545 -0.0919
11687W        W27156   1.568  10.815   5.253  0.0408 -0.0198 -0.1876
11688W        W27157  12.168   1.807   3.757 -0.0713 -0.0360  0.2268
11689W        W27158   7.451  14.204  13.940  0.0275 -0.2633  0.2537
11690W        W27159  11.757   6.247   2.425  0.2131  0.3221 -0.0488
11691W        W27160   6.462   9.373  12.549  0.0710 -0.0292  0.0633
11692W        W27161  16.766  10.263   1.905 -0.1012 -0.0913 -0.0599
11693W        W27162  16.103  13.708   1.448  0.2417  0.4277 -0.0426
11694W        W27163  13.722   0.098   6.827 -0.0305 -0.2296 -0.2729
11695W        W27164  12.124   8.809   1.576  0.1567  0.1574 -0.3319
11696W        W27165  14.799   9.359  11.834 -0.1224 -0.0949 -0.1441
11697W        W27166   0.378   4.473   0.365 -0.1013  0.1014  0.0730
11698W        W27167  10.551  11.006   0.648  0.0630  0.0539  0.0024
11699W        W27168  11.066   6.144  16.610 -0.1360  0.4075 -0.0453
11700W        W27169  12.753   0.551  15.834  0.0665  0.2043  0.2668
11701W        W27170  17.661   9.042  15.019 -0.2895  0.0442  0.2794
11702W        W27171  13.369   8.964   0.270  0.3787  0.0807 -0.0716
11703W        W27172   3.128   4.444  12.226  0.2037  0.0100  0.3801
11704W        W27173  16.054   0.792   1.490  0.1122 -0.1817 -0.3557
11705W        W27174   1.054   5.192   2.650  0.1322 -0.1063  0.3032
11706W        W27175   0.650   1.923  15.117 -0.1605  0.2328 -0.0747
11707W        W27176  13.640   2.907   2.905 -0.0308  0.2305 -0.1351
11708W        W27177   8.649  14.233   5.534 -0.3936 -0.1632  0.0980
11709W        W27178  12.861  15.983   4.712 -0.0922  0.1737  0.3347
11710W        W27179   3.696  15.554   5.938 -0.5118 -0.0134  0.0846
11711W        W27180  17.674  11.011   9.960 -0.1204 -0.2527  0.0761
11712W        W27181   3.486  14.693   2.279  0.2162  0.1586 -0.2134
11713W        W27182   7.880  15.320  12.236  0.1434 -0.1211 -0.0322
11714W        W27183  17.262   0.474  13.177  0.0974  0.0277  0.0587
11715W        W27184   9.598   9.328  10.751  0.0697  0.1675 -0.0832
11716W        W27185   5.018  15.593  14.536 -0.0389  0.1466 -0.0911
11717W        W27186  13.874   8.140  14.509 -0.2475 -0.1868  0.0004
11718W        W27187  10.099   3.965  12.138  0.4737 -0.0139 -0.0635
11719W        W27188   0.333   5.218   1.632 -0.2766 -0.3904 -0.0443
11720W        W27189  16.041   1.388  11.096  0.1199 -0.0365 -0.0466
11721W        W27190   8.639  17.809  16.608 -0.0596  0.1623 -0.4025
11722W        W27191   3.211  12.993   5.999  0.0170 -0.1362  0.2026
11723W        W27192  10.559   9.089   2.891 -0.5552  0.1742  0.0472
11724W        W27193  14.779  11.313   5.634 -0.0188 -0.2455 -0.0400
11725W        W27194   4.729   1.290   0.794  0.2090 -0.4161 -0.0017
11726W        W27195   7.884   6.068  15.586  0.0004 -0.0602  0.1169
11727W        W27196  16.351  11.719   2.507 -0.1734 -0.0223 -0.0928
11728W        W27197  14.160  17.100   0.596  0.0076  0.2333 -0.0417
11729W        W27198  13.946  11.702   3.640 -0.0879  0.0577  0.3536
11730W        W27199  14.447   9.049   5.219 -0.0526 -0.1407  0.0850
11731W        W27200  17.219   7.627   4.898  0.2872  0.0953 -0.2232
11732W        W27201  11.923  10.481   3.456  0.0049  0.1853 -0.0844
11733W        W27202  11.997  11.488  13.439 -0.1443  0.1853  0.0970
11734W        W27203  16.874   0.067  14.330  0.0500  0.0652 -0.1791
11735W        W27204   3.645   0.439   1.882  0.0915 -0.3481  0.5269
11736W        W27205  10.194   2.133   6.508 -0.3259  0.1088 -0.0423
11737W        W27206  17.607   4.760  11.029 -0.1549  0.0679 -0.1934
11738W        W27207   1.605   2.945  15.004  0.0726 -0.0973  0.2779
11739W        W27208   1.274   3.396  12.174  0.0414  0.2342  0.0443
11740W        W27209  15.427   5.332   1.048 -0.0268  0.2115  0.3356
11741W        W27210   0.172   9.576  10.551  0.1836  0.2503 -0.2288
11742W        W27211  17.311  10.886  16.367  0.1915 -0.0777  0.0501
11743W        W27212  10.748   9.888   0.940  0.1250 -0.0636  0.1110
11744W        W27213  11.884   8.975   1.110  0.0884 -0.2547 -0.1185
11745W        W27214   4.753   3.020  14.329 -0.1687  0.4568 -0.3946
11746W        W27215   1.728  15.488   5.484 -0.1197 -0.3240  0.0073
11747W        W27216  14.411   7.210  13.707 -0.0039  0.2636 -0.1477
11748W        W27217   1.032   9.563  15.800 -0.2041  0.0554  0.0695
11749W        W27218   8.629   9.535  14.265 -0.0365  0.1305  0.0397
11750W        W27219   1.441  13.668   2.709  0.1353  0.0624  0.1589
11751W        W27220   3.946  10.441  12.592 -0.2444 -0.3025  0.0631
11752W        W27221   6.371   4.151  12.489  0.0616 -0.0824 -0.5196
11753W        W27222   8.256  14.434   3.868 -0.0302 -0.1042  0.0780
11754W        W27223   3.904   3.434  13.884  0.1778  0.2864  0.1848
11755W        W27224   4.817  17.243  13.732 -0.0989  0.1943  0.0635
11756W        W27225  10.584  11.870  13.027  0.0506 -0.0544  0.3122
11757W        W27226  12.430   6.374  11.764  0.4286 -0.2649 -0.1343
11758W        W27227   4.325   6.221   2.008 -0.0225  0.0913 -0.1398
11759W        W27228  11.081   4.379   3.008  0.2030  0.0916  0.4179
11760W        W27229   1.884   9.384   0.376 -0.1307  0.1974 -0.0328
11761W        W27230   3.269   5.064  15.667 -0.2550  0.3459 -0.2749
11762W        W27231  14.904   5.117   5.879 -0.0891  0.3432 -0.1261
11763W        W27232   3.875  12.378   5.753 -0.1995  0.0745  0.0645
11764W        W27233   5.313   7.327   1.618 -0.0131  0.4464  0.0507
11765W        W27234  17.989  16.515   0.805  0.0663 -0.0706  0.1646
11766W        W27235  14.078   1.477   4.429 -0.1627  0.0120 -0.0362
11767W        W27236  13.214  10.044   0.899 -0.0762  0.0046 -0.0032
11768W        W27237  15.608   3.272   5.055 -0.2392  0.2739  0.4559
11769W        W27238   5.600   9.235  13.521 -0.0786 -0.2644 -0.0951
11770W        W27239   0.528   2.497   1.072 -0.0098 -0.0769  0.1682
11771W        W27240   2.598  14.512   0.486  0.0075 -0.1246 -0.0351
11772W        W27241   1.265   9.116  16.521  0.1269  0.2023  0.3159
11773W        W27242   3.412  17.316   3.636  0.1065  0.0440 -0.3155
11774W        W27243  10.258  15.233  12.978  0.1455  0.0712  0.0062
11775W        W27244  16.874  15.149   0.781  0.0592 -0.2094 -0.0231
11776W        W27245  11.134   7.127  16.496  0.1559  0.0199 -0.2190
11777W        W27246   5.787  12.841  13.450  0.2103  0.0236  0.1406
11778W        W27247  14.915   5.571  12.744 -0.0455  0.1688 -0.2624
11779W        W27248  17.691  14.466   2.315  0.1634  0.0256  0.2328
11780W        W27249   7.224  11.927   3.739 -0.0817 -0.2149  0.0545
11781W        W27250  17.271   1.658  14.795  0.1133 -0.0526 -0.0234
11782W        W27251   7.364   0.808   5.421 -0.0415 -0.0446  0.0023
11783W        W27252   4.029   6.289  12.638 -0.1589 -0.2968 -0.0103
11784W        W27253  12.846   5.194  15.739 -0.1844 -0.0193  0.3093
11785W        W27254  16.780   1.502  14.667 -0.3060  0.3189 -0.1701
11786W        W27255  15.660  10.035  12.802  0.6110 -0.0216 -0.0039
11787W        W27256  14.439   8.173  16.149  0.2897 -0.1549 -0.2732
11788W        W27257   6.495   3.684  12.474  0.0428 -0.1095 -0.0414
11789W        W27258   0.078  11.144  12.955  0.0270  0.0723 -0.1433
11790W        W27259  10.245  15.400  12.500 -0.1288  0.0548  0.0354
11791W        W27260  12.248  11.263   0.017 -0.0594 -0.1574  0.1469
11792W        W27261   4.358   6.981  16.536 -0.1935 -0.2771  0.1892
11793W        W27262  12.906  17.353   3.612  0.1516  0.0943  0.3005
11794W        W27263   7.944  16.261   6.235  0.1977  0.2226  0.1070
11795W        W27264   5.686  16.018   1.023 -0.2329 -0.2388  0.0792
11796W        W27265   8.197  10.759   2.642 -0.1862  0.3604 -0.1458
11797W        W27266   8.443   9.942   0.091 -0.1079 -0.0107 -0.2193
11798W        W27267   6.871  16.124  12.193  0.2520  0.1376  0.0366
11799W        W27268   0.542   3.893  12.453  0.1484 -0.1283  0.0092
11800W        W27269  14.754  12.297  12.142  0.1607 -0.0793 -0.0751
11801W        W27270   4.817  11.566   3.589 -0.1489  0.1359 -0.0571
11802W        W27271   3.963  16.172   3.019  0.0324 -0.1104 -0.0044
11803W        W27272  17.680   8.101   2.386 -0.0553 -0.1562  0.1945
11804W        W27273  16.929  12.341   2.235  0.0550  0.0143  0.1538
11805W        W27274   0.399   3.956   3.421 -0.0469  0.0235  0.0657
11806W        W27275   8.683  13.611  11.676 -0.2794  0.0146  0.2538
11807W        W27276   1.670   5.627  11.883 -0.1681 -0.2203 -0.1893
11808W        W27277   2.053  14.268  11.910 -0.2463 -0.0097 -0.1350
11809W        W27278  11.691  15.163  12.206  0.0820 -0.2913  0.1930
11810W        W27279   7.961  17.632  13.990 -0.2871 -0.3738  0.0970
11811W        W27280  16.193   6.718  13.687  0.2245  0.0719  0.0891
11812W        W27281   3.997   3.632  16.003 -0.0623 -0.0833  0.1272
11813W        W27282   6.035   9.052  13.230 -0.0183 -0.2179  0.2285
11814W        W27283   9.933   7.010  12.727 -0.0649  0.1329 -0.2912
11815W        W27284   4.227  16.317   4.322 -0.2712 -0.1610  0.0800
11816W        W27285   1.370   6.825  14.443 -0.2766 -0.1405 -0.2057
11817W        W27286  16.235   7.698  12.103  0.0537 -0.1779  0.3485
11818W        W27287   1.287   3.030   3.757 -0.0728  0.0018  0.3213
11819W        W27288   2.447  12.457  11.932 -0.0879  0.1122  0.1843
11820W        W27289  11.038   6.344  13.620 -0.0535  0.0242  0.1230
11821W        W27290  12.831  11.244  12.360 -0.0653  0.1536  0.0694
11822W        W27291  14.685   0.586  13.696 -0.1066 -0.2510  0.1033
11823W        W27292   5.595   7.392   4.006 -0.2006  0.0498  0.1068
11824W        W27293   6.753   4.927  14.075 -0.0284  0.1265  0.1403
11825W        W27294  10.026   1.671  12.864  0.0995 -0.0576  0.1911
11826W        W27295   3.693   4.218  10.394  0.0307 -0.0633 -0.0033
11827W        W27296   7.531  11.207  15.358 -0.2252  0.3239  0.0130
11828W        W27297   6.335   5.114  12.687 -0.1331 -0.2531  0.1094
11829W        W27298  15.387   7.994   3.263  0.0296 -0.3327 -0.1413
11830W        W27299   2.278  14.680  13.307  0.2321 -0.2471  0.0271
11831W        W27300  16.649   0.240  13.373  0.1123 -0.2928  0.1432
11832W        W27301   2.710   3.740  11.825  0.0568  0.1681  0.1585
11833W        W27302  11.226   9.418  15.882 -0.0354 -0.0514 -0.0123
11834W        W27303   4.907  11.585   5.559  0.2397 -0.0013  0.0447
11835W        W27304  11.391   6.586  11.818 -0.1092 -0.0420 -0.0930
11836W        W27305   9.011   0.863  14.843 -0.0311  0.1497 -0.1611
11837W        W27306  11.572  15.400   5.509 -0.0894  0.1571  0.1684
11838W        W27307   3.778   4.401  15.953 -0.0664 -0.3711  0.0551
11839W        W27308   1.790   7.553  16.227 -0.1768  0.0276 -0.2271
11840W        W27309   6.679   2.870  11.722  0.0674 -0.1263 -0.0572
11841W        W27310  14.466  14.465  14.494 -0.2595  0.2483 -0.0449
11842W        W27311   7.560   3.959  14.517  0.0335  0.2385  0.1986
11843W        W27312   1.016  11.082  11.837  0.1220 -0.2662  0.2733
11844W        W27313  14.314   4.702  11.205 -0.0800  0.2433  0.0792
11845W        W27314  10.121  16.824  12.548 -0.0244  0.1054  0.0239
11846W        W27315   5.692  17.357   5.156 -0.0896  0.1038 -0.1378
11847W        W27316   3.564   1.239   2.467 -0.0608  0.1502 -0.0354
11848W        W27317  17.340   4.750  15.373 -0.0285 -0.1077  0.1742
11849W        W27318   4.864   5.033  13.948  0.2352  0.1164  0.2510
11850W        W27319  12.895  11.022   2.357  0.0059 -0.2166 -0.2338
11851W        W27320  14.912  12.315   4.832  0.0745  0.0230 -0.0595
11852W        W27321  12.528  11.253   4.800 -0.1006 -0.0911 -0.1042
11853W        W27322   5.163   8.510   0.235  0.0199 -0.0539  0.3968
11854W        W27323  14.059   2.629   0.145  0.0794 -0.0451 -0.4049
11855W        W27324   2.142  13.801  15.717 -0.1081  0.2594 -0.0740
11856W        W27325   3.969  12.348   2.670 -0.1672 -0.3656 -0.0786
11857W        W27326   2.713  14.342   5.843  0.1111  0.1787  0.0162
11858W        W27327   2.569   1.452  16.065  0.0982  0.1712 -0.0772
11859W        W27328   3.838   1.058   5.953 -0.1749  0.0227  0.0602
11860W        W27329   9.340   3.027  14.842 -0.1059 -0.2937 -0.1025
11861W        W27330   6.602   6.075   0.583 -0.0545  0.0479 -0.1643
11862W        W27331   2.811   6.609   2.905 -0.1202 -0.2465  0.1195
11863W        W27332   8.783  16.484  12.866  0.0868  0.2074 -0.3662
11864W        W27333  11.068  14.547   5.538  0.1586 -0.1079 -0.0272
11865W        W27334  16.521  13.118   2.610  0.1232  0.3297 -0.1177
11866W        W27335  13.608   5.757   3.437 -0.0768 -0.1024 -0.1178
11867W        W27336   0.097  16.035   6.243  0.2236 -0.1174  0.3340
11868W        W27337  12.584  10.290   4.357 -0.0366  0.0110  0.1605
11869W        W27338  13.488   5.074   1.127  0.2967 -0.3137 -0.2785
11870W        W27339  14.903  17.031   5.710  0.0625 -0.1328 -0.0199
11871W        W27340   5.638   3.456  13.356 -0.1051  0.3931  0.2199
11872W        W27341  10.757   1.896  12.501  0.0084  0.0304  0.0961
11873W        W27342   0.462  17.522   5.247  0.0729 -0.3181 -0.1761
11874W        W27343  11.138  15.550  13.040 -0.1743  0.1241 -0.0689
11875W        W27344   1.742   9.829   0.506  0.2420 -0.3841  0.0051
11876W        W27345   2.722  15.935  15.165  0.0300  0.0368  0.2808
11877W        W27346   8.798   3.024  15.850 -0.0495 -0.1354 -0.2438
11878W        W27347   5.150  17.222  12.123  0.1986 -0.1066 -0.0201
11879W        W27348   9.738   6.486   2.655  0.0182  0.1497 -0.1099
11880W        W27349   5.200   8.453  10.305  0.0201 -0.2218  0.2837
11881W        W27350   7.342   6.134  15.790 -0.0241  0.0236 -0.0056
11882W        W27351  11.233  16.712   5.882  0.1251 -0.4122  0.1180
11883W        W27352   9.774  15.050  11.758 -0.0091  0.0776 -0.0728
11884W        W27353   9.375  13.260   2.274  0.0776 -0.0678  0.0058
11885W        W27354  11.948  13.451  14.045  0.2740  0.0072  0.0779
11886W        W27355  16.932   7.704   0.507  0.0101  0.0668  0.3103
11887W        W27356   0.638   2.722  14.913  0.1178  0.1179 -0.2119
11888W        W27357   4.974   6.119  15.435  0.1406  0.1157 -0.0313
11889W        W27358   8.873  10.603   0.264  0.1617 -0.0434 -0.0675
11890W        W27359  16.065   5.061   1.562 -0.1569  0.3155 -0.0077
11891W        W27360   8.403   0.786   6.347  0.0184 -0.2508  0.0020
11892W        W27361   6.035  12.600  16.296  0.0928  0.1426  0.0269
11893W        W27362   7.688  12.820   3.449 -0.1536 -0.1389 -0.3346
11894W        W27363   6.846  11.053   4.526 -0.0859 -0.0385 -0.0360
11895W        W27364  15.008   2.603  15.794 -0.2351  0.0038 -0.3391
11896W        W27365  12.058  12.447   6.206 -0.1118  0.0663  0.1563
11897W        W27366  14.397  14.272  16.263 -0.2100  0.1721  0.0560
11898W        W27367  10.722   7.547  14.458  0.1921 -0.2649 -0.1429
11899W        W27368   8.648   9.925   5.122  0.1016  0.2456 -0.1393
11900W        W27369  11.702   9.756  16.600  0.4493  0.1006 -0.0511
11901W        W27370  12.821   9.673  16.562 -0.1655 -0.1258  0.2144
11902W        W27371   4.488  15.422   5.248  0.0700 -0.0942  0.0416
11903W        W27372   8.186   1.706   1.516  0.0823  0.3148  0.0831
11904W        W27373   6.710  12.185  12.432 -0.0207 -0.0552 -0.1510
11905W        W27374   8.390  14.943  15.205  0.1004 -0.1219 -0.3442
11906W        W27375  13.292  11.373  15.052 -0.1816 -0.0768  0.2093
11907W        W27376   1.379  10.426   2.344 -0.0316 -0.0915  0.1553
11908W        W27377   1.962  14.179  12.444  0.3435  0.4859 -0.0611
11909W        W27378  12.186  17.335  13.403 -0.1067  0.2015  0.0013
11910W        W27379   9.087  13.443  15.260 -0.2748  0.0046  0.1581
11911W        W27380  16.747  10.451  11.520  0.4181 -0.0637  0.0156
11912W        W27381   5.146  15.469   2.834  0.1075 -0.0841  0.0146
11913W        W27382  14.191  12.903   0.821 -0.2219  0.1090  0.0841
11914W        W27383  10.383   0.911   4.575  0.0233 -0.0531 -0.2821
11915W        W27384  16.514   0.063   5.327  0.2355 -0.1477  0.3245
11916W        W27385  15.543  16.772  11.768 -0.2630  0.2317 -0.1680
11917W        W27386  12.400  15.057  15.225  0.0166  0.0120 -0.2161
11918W        W27387  10.030  17.003   4.452 -0.2091 -0.0014 -0.0471
11919W        W27388  15.450   7.905  16.319  0.1279  0.4164  0.1638
11920W        W27389   6.833   3.229  12.642  0.0771 -0.2140 -0.0399
11921W        W27390   3.929   2.883   5.208 -0.0902 -0.2735 -0.2219
11922W        W27391  15.756   0.134   0.111 -0.1463 -0.0239  0.0540
11923W        W27392   5.549   6.519   3.969  0.0050 -0.2572 -0.2764
11924W        W27393   4.400   8.259  12.277  0.3663 -0.1761  0.1407
11925W        W27394  11.714   3.787  12.146  0.4101 -0.0815  0.0172
11926W        W27395   5.925   1.283  15.521  0.0860 -0.0224 -0.0763
11927W        W27396   4.570   7.371   0.265 -0.0974  0.0010 -0.0145
11928W        W27397   9.197   2.799  12.670 -0.2860  0.0807 -0.0867
11929W        W27398  16.568  15.423  15.079  0.0740  0.0333 -0.0482
11930W        W27399  16.339   2.665  15.945 -0.0542  0.0057 -0.1062
11931W        W27400   2.426   5.356   1.619 -0.2198  0.0155 -0.2718
11932W        W27401   7.151   0.076   1.015  0.2687 -0.3142 -0.0812
11933W        W27402   4.033   2.161   1.272 -0.0401 -0.2543 -0.1567
11934W        W27403  13.697  16.857   2.265  0.0728 -0.2328  0.0841
11935W        W27404  12.885  13.431   4.444  0.0813 -0.1965 -0.1293
11936W        W27405   2.666   7.131   3.625 -0.2108 -0.2139  0.0838
11937W        W27406   9.037   4.211   1.849 -0.0262 -0.2513  0.0159
11938W        W27407   8.576   0.786  15.746  0.2013  0.0281 -0.0054
11939W        W27408   1.950   1.471   5.389 -0.1646  0.0411  0.0819
11940W        W27409  16.423  10.514   2.277  0.1457  0.4153 -0.1475
11941W        W27410   2.539   2.348  15.636 -0.1027 -0.0054 -0.2587
11942W        W27411  16.466   0.830   2.967  0.3855 -0.2561  0.0129
11943W        W27412  15.169  11.074   2.116 -0.0141  0.1316  0.0919
11944W        W27413  14.118   2.886   1.009  0.2350 -0.3731  0.2604
11945W        W27414   4.167  17.924   4.418  0.0139  0.2277  0.0864
11946W        W27415   4.913   1.024  11.652  0.0027  0.1642  0.1133
11947W        W27416   4.382   4.272   2.159  0.2744 -0.0196  0.2137
11948W        W27417  13.662  12.785   1.187  0.0301 -0.1149  0.3462
11949W        W27418  11.667   1.825  15.231 -0.0409 -0.2610  0.0872
11950W        W27419  14.293  12.412  11.314 -0.1552  0.2071 -0.0925
11951W        W27420  15.789  16.793  13.838  0.2894  0.1318 -0.0856
11952W        W27421   6.752   9.950   4.501 -0.2880 -0.2019 -0.3241
11953W        W27422   2.565   9.650  16.431 -0.3995 -0.0551  0.0367
11954W        W27423  11.071   8.249  12.971 -0.1486  0.5050  0.2117
11955W        W27424   6.868   8.338  11.331 -0.0315  0.0245 -0.0906
11956W        W27425   6.446   4.823   1.252  0.1114  0.1445  0.1362
11957W        W27426   6.273   9.364  13.544 -0.0247 -0.0379 -0.1330
11958W        W27427   9.544  12.355   5.092 -0.4052 -0.0872  0.1361
11959W        W27428   4.240  10.020   2.416  0.1130  0.0293  0.1181
11960W        W27429  11.189  11.838  16.064  0.1543 -0.0050  0.1586
11961W        W27430  14.731   0.931  14.390 -0.1494  0.1884  0.1150
11962W        W27431   3.801   3.322  13.043  0.1321  0.2370  0.0075
11963W        W27432   1.088   3.235   1.089  0.2202 -0.1413 -0.0919
11964W        W27433   0.230   5.773  12.579  0.0362  0.1269 -0.2914
11965W        W27434   2.403   9.810  15.195  0.0130  0.0468  0.2835
11966W        W27435  15.571   4.709   4.963  0.1507  0.0830 -0.0756
11967W        W27436  10.861   1.819  15.099 -0.1612 -0.1342 -0.0206
11968W        W27437  14.283  15.837  13.638  0.1078  0.2743 -0.1258
11969W        W27438   8.114  13.182  15.110 -0.1550 -0.0910 -0.2585
11970W        W27439  10.509  11.526  15.028 -0.2624 -0.2077  0.0049
11971W        W27440   7.028   1.977  11.392  0.1442 -0.1327 -0.0637
11972W        W27441   9.683  17.049  15.733 -0.2070  0.1790  0.1326
11973W        W27442  16.431   2.725   3.911  0.0680 -0.2505 -0.1332
11974W        W27443   9.773   1.865  11.632 -0.1529 -0.0618 -0.1000
11975W        W27444  16.488  17.042   0.938 -0.0691 -0.0757 -0.2030
11976W        W27445   4.603  11.993  14.795 -0.0224 -0.1907 -0.0755
11977W        W27446  13.850   9.647  16.601 -0.1754  0.1429 -0.0197
11978W        W27447   5.025   0.297   0.984  0.2252 -0.0701  0.1105
11979W        W27448   9.212   7.306  14.826  0.1543 -0.1919  0.0944
11980W        W27449   8.758  11.038   1.777 -0.2058  0.1798  0.0082
11981W        W27450   1.238  12.767  16.473 -0.3409 -0.2033 -0.0035
11982W        W27451  14.822  16.711   1.378 -0.2931  0.0796  0.1020
11983W        W27452   4.343  11.677   1.588 -0.1660 -0.0988 -0.2776
11984W        W27453  16.927  10.322  10.513 -0.0939  0.0522  0.4070
11985W        W27454  14.065  14.559  15.689 -0.1145  0.0897  0.0631
11986W        W27455  17.525   3.744  14.412  0.0373 -0.1144 -0.1573
11987W        W27456  13.625  13.455  12.501  0.1354  0.0067  0.0503
11988W        W27457  17.280   5.400  10.451  0.1638 -0.3300 -0.0028
11989W        W27458  14.796   0.300   5.460  0.1423 -0.0529 -0.2088
11990W        W27459  14.972   3.212  11.591 -0.1858  0.2411  0.4462
11991W        W27460   1.767   9.213  15.504  0.0108  0.0381 -0.0548
11992W        W27461   8.554   8.422  11.702 -0.0239 -0.0094  0.0311
11993W        W27462   2.688   0.420   5.241  0.0045  0.0906 -0.0053
11994W        W27463  17.724   2.105   5.860  0.1137  0.1156  0.0310
11995W        W27464  14.249  12.582   0.413  0.0591 -0.0276 -0.0309
11996W        W27465  12.623  16.553  12.693  0.0847  0.0355  0.0515
11997W        W27466   8.313   0.920  12.836 -0.1902  0.1391 -0.2174
11998W        W27467   8.136  12.196   2.204  0.1710  0.2930  0.1603
11999W        W27468  10.297  15.658  13.927  0.0029 -0.0846  0.1279
12000W        W27469  12.100   8.495   2.207 -0.1953  0.1479  0.0979
12001W        W27470   2.655  17.945  16.158 -0.1196  0.1962 -0.1649
12002W        W27471   5.586  12.604  16.464 -0.1549  0.2232  0.3249
12003W        W27472   6.420   1.562  13.981 -0.1299 -0.2266 -0.0186
12004W        W27473   1.952   2.198   2.359  0.4757 -0.0627 -0.1743
12005W        W27474   4.804   1.870   0.071 -0.1507  0.0575  0.0843
12006W        W27475  13.360   9.495  12.085  0.0024  0.0786 -0.1317
12007W        W27476  16.974   5.462   5.812  0.1208  0.1925 -0.4586
12008W        W27477   7.588   0.186   4.275  0.2944 -0.3293 -0.2535
12009W        W27478   1.409   6.996  11.720 -0.1175 -0.1324 -0.1242
12010W        W27479   6.835  13.136   2.076  0.0560  0.1688  0.2468
12011W        W27480   1.929   4.041   4.266  0.2644  0.0643  0.0595
12012W        W27481   1.427   4.365  11.918 -0.3102 -0.0290  0.0452
12013W        W27482  13.795   4.762  16.100 -0.2283 -0.0832  0.0031
12014W        W27483  15.473  13.683   2.702 -0.1581  0.1269  0.4125
12015W        W27484  14.556   5.473  13.984  0.0489 -0.2221  0.0215
12016W        W27485  15.551   5.975   1.758 -0.0153 -0.0696  0.1114
12017W        W27486  15.000   8.652   0.257 -0.0317  0.0687 -0.2346
12018W        W27487   9.045   8.240  10.790  0.1403  0.1485  0.0979
12019W        W27488   1.736  10.378  11.786 -0.2435  0.1949  0.0065
12020W        W27489   7.735  10.150   4.316 -0.2064  0.2989  0.0428
12021W        W27490   5.884   2.201   1.693  0.2014  0.0539  0.1679
12022W        W27491  10.264   5.948  15.603 -0.1259  0.2175 -0.3651
12023W        W27492  16.461  12.486  15.687  0.2542  0.1822 -0.1449
12024W        W27493   3.266   7.105  13.402 -0.2740 -0.0801  0.0284
12025W        W27494   4.107   9.012  15.379 -0.0635 -0.0310  0.1245
12026W        W27495  14.402  16.449   1.450 -0.0862  0.0344 -0.0650
12027W        W27496  16.300   1.429   3.457 -0.0711  0.0183 -0.0470
12028W        W27497   0.040  13.919  14.136  0.2719 -0.2413 -0.1397
12029W        W27498   3.654   0.264  14.158 -0.1527 -0.1582  0.3657
12030W        W27499   3.305  16.518   4.150  0.1122  0.1905 -0.1559
12031W        W27500   2.496   8.698  12.031  0.1189 -0.1388 -0.1776
12032W        W27501   5.680  14.130  12.112  0.2877 -0.3010  0.1652
12033W        W27502   2.535   2.586   3.070  0.1017 -0.1247 -0.2696
12034W        W27503   9.773   1.333   5.246  0.0598  0.4537 -0.1081
12035W        W27504  10.394   1.328   2.681  0.0937  0.1762  0.0617
12036W        W27505  17.200   0.867  11.646  0.2136  0.0174 -0.0369
12037W        W27506   2.433  17.767   2.785  0.1116 -0.0231 -0.1591
12038W        W27507  10.987   3.214  16.318 -0.0280 -0.0014  0.1385
12039W        W27508   7.264   2.825  11.530  0.2498  0.0249  0.1112
12040W        W27509  16.518   0.606  12.998  0.0647  0.0782 -0.1086
12041W        W27510   9.628   3.589   4.907  0.1382  0.1615  0.0138
12042W        W27511  13.576   2.135  11.197  0.0557  0.2394 -0.0977
12043W        W27512  11.447  14.374  15.683  0.2187  0.3725  0.0320
12044W        W27513   0.241   1.062  12.432  0.0102 -0.1014  0.0968
12045W        W27514  14.905   2.551   4.436 -0.2690 -0.1123 -0.0101
12046W        W27515   2.850   7.208   0.886  0.2338 -0.0842  0.1863
12047W        W27516  11.000   8.577  15.792  0.1371  0.0517  0.3141
12048W        W27517   7.443  13.961   3.633  0.3007 -0.2482 -0.0170
12049W        W27518  10.564   3.860  12.928 -0.0901 -0.1315 -0.0261
12050W        W27519   8.318  15.640   0.917 -0.1259  0.2971  0.0337
12051W        W27520   1.114  17.091  15.145  0.0358  0.1293  0.0215
12052W        W27521   2.222   8.809  12.463 -0.1479 -0.1096 -0.0362
12053W        W27522   3.768   3.064  13.470 -0.1064 -0.0030 -0.3836
12054W        W27523  13.150   4.402   4.292  0.0975  0.2407 -0.1629
12055W        W27524   6.484   0.033  16.395 -0.1352  0.0524 -0.0957
12056W        W27525   2.146   4.655   4.925  0.1210  0.0405 -0.0397
12057W        W27526   1.402   2.626  15.356 -0.1514  0.1114 -0.0918
12058W        W27527  17.342  14.779   1.611 -0.0402  0.0250 -0.2233
12059W        W27528   9.329   8.353   1.293  0.0054  0.1074  0.0164
12060W        W27529  13.945   9.722   4.815 -0.0580  0.0445  0.2051
12061W        W27530  15.074   2.401   2.651 -0.1065 -0.1153 -0.0275
12062W        W27531  16.914  14.792  13.815  0.1980  0.0263 -0.3171
12063W        W27532  10.599   8.801  13.884  0.0982  0.0540  0.0064
12064W        W27533  13.612  15.292   0.538 -0.3629 -0.1245  0.0486
12065W        W27534   6.525   7.980  12.045  0.2482 -0.3758  0.4712
12066W        W27535  16.402   8.730   4.775 -0.2473 -0.2857  0.1793
12067W        W27536   3.881   6.719  13.594 -0.0517  0.3267  0.0561
12068W        W27537   1.367   1.107   0.871 -0.0186  0.1760  0.2567
12069W        W27538   5.228  11.085   4.806  0.0448 -0.1270  0.0463
12070W        W27539   3.650   2.475  14.247  0.3780 -0.1633 -0.1908
12071W        W27540   3.280   1.730   6.294 -0.0823 -0.1032  0.0862
12072W        W27541   4.187   4.517   1.067 -0.0158  0.0364  0.1557
12073W        W27542   6.900   9.331  12.322 -0.2146  0.0293 -0.1358
12074W        W27543  11.119  10.937   1.759  0.0842  0.2303  0.0280
12075W        W27544  14.556   7.521  15.902 -0.2106  0.1973  0.2703
12076W        W27545  17.138  10.107   4.191  0.0424  0.2566 -0.2858
12077W        W27546  13.746  12.128  16.340  0.0241 -0.0772 -0.0477
12078W        W27547  13.996  13.344   3.379 -0.1651 -0.2173  0.1687
12079W        W27548   4.363   7.665  12.200  0.1268  0.0536  0.0473
12080W        W27549  11.339  12.800  13.244 -0.0017  0.1285  0.1551
12081W        W27550   0.076   8.643   1.541 -0.0679  0.2002  0.1870
12082W        W27551  13.459   3.081  11.112 -0.2637  0.2723  0.2497
12083W        W27552   5.152   7.124  16.297 -0.1125  0.0809  0.1614
12084W        W27553   3.147   1.829  14.935 -0.0001 -0.2002 -0.0603
12085W        W27554   8.600  16.954  12.759 -0.3631  0.1935 -0.0426
12086W        W27555   2.056   2.722  13.075 -0.1817 -0.0594 -0.1117
12087W        W27556  17.078  10.670  14.926  0.1076  0.1252  0.0241
12088W        W27557  16.133  15.238   3.407  0.3233 -0.1224  0.3398
12089W        W27558   3.221   1.961   4.277  0.0148  0.3047  0.2147
12090W        W27559  10.300   7.207   1.245  0.3812  0.1600  0.0974
12091W        W27560   6.767  15.582   0.977 -0.0170  0.0411 -0.0010
12092W        W27561  15.673   5.314  11.545  0.0446  0.0394 -0.0471
12093W        W27562   3.924  11.997  15.941  0.2976  0.0998 -0.0315
12094W        W27563   8.040  15.812  11.516  0.0563  0.0523 -0.0073
12095W        W27564   0.459  11.304  15.810 -0.0953 -0.0171 -0.1573
12096W        W27565   1.537   2.441  11.660 -0.1386  0.0026  0.1047
12097W        W27566  16.767  15.063   4.554 -0.1054 -0.1076 -0.3205
12098W        W27567   7.288   3.225  12.768  0.1204 -0.1801 -0.0876
12099W        W27568   4.551   3.037   3.404 -0.0436 -0.0621 -0.0402
12100W        W27569  17.338   8.937   2.896  0.2200 -0.2567  0.1003
12101W        W27570  15.993   5.504  10.311 -0.0135 -0.1122 -0.0831
12102W        W27571  14.371   8.881   0.041 -0.0894  0.1246  0.2422
12103W        W27572   4.356  13.927   1.500  0.0608 -0.0491  0.1173
12104W        W27573   6.382  13.251  11.288  0.0871 -0.0240 -0.0520
12105W        W27574   7.837  12.003   1.749  0.0297  0.0146  0.3697
12106W        W27575   8.361  15.312  11.505  0.1273 -0.0037 -0.0732
12107W        W27576   8.337   0.025   3.593 -0.0470 -0.0934 -0.0639
12108W        W27577  16.633  14.299  13.847 -0.2080  0.0657 -0.3074
12109W        W27578  11.640  16.148   1.956 -0.4700 -0.0756  0.1595
12110W        W27579   6.717  14.566  14.908 -0.2017  0.0517  0.0110
12111W        W27580  12.711  12.028   4.184  0.1042  0.2108  0.2603
12112W        W27581   0.291  11.737   4.829 -0.0560  0.3407  0.0427
12113W        W27582  17.832   8.371  13.451 -0.3366 -0.2341  0.2484
12114W        W27583  15.121  10.933   0.209  0.1490  0.0004  0.0160
12115W        W27584   7.438  17.802  16.151  0.1148 -0.0103  0.0227
12116W        W27585  14.318  12.306  14.676  0.0568  0.0555 -0.1028
12117W        W27586   8.947  10.608   2.012 -0.2162 -0.2345 -0.2726
12118W        W27587  12.538   1.861   5.199 -0.1837 -0.0589  0.0927
12119W        W27588  14.447   0.371  15.529 -0.0755  0.0887  0.2002
12120W        W27589   5.244   1.084   2.340  0.1378  0.1659  0.0370
12121W        W27590   0.619   8.742   3.902 -0.1070  0.0331 -0.2434
12122W        W27591  13.423   1.970  14.869  0.3198 -0.3752  0.2059
12123W        W27592   3.876   0.044   0.999 -0.0950 -0.2534  0.0286
12124W        W27593  15.309  13.842  14.910 -0.0645 -0.1284  0.3386
12125W        W27594  11.304   7.546   5.602 -0.2905  0.1425 -0.0554
12126W        W27595  17.928  10.992  13.407 -0.2730 -0.2410 -0.2448
12127W        W27596  13.329  14.243  13.262 -0.1721 -0.1696 -0.2571
12128W        W27597  13.488   0.083   1.448  0.0373  0.0865 -0.0231
12129W        W27598  17.952   3.570  15.706 -0.1692 -0.1304  0.0173
12130W        W27599  13.337  10.408  12.679  0.0905  0.0315 -0.0005
12131W        W27600   2.347  10.741  12.426  0.0988 -0.0413 -0.3722
12132W        W27601   5.748  13.071  16.181  0.1586  0.2335  0.0262
12133W        W27602   6.271  12.990  15.958  0.1711 -0.0467  0.0976
12134W        W27603   1.009   6.803   3.561  0.4660  0.0892 -0.1754
12135W        W27604   6.425  14.811   4.715 -0.1894  0.2628 -0.1335
12136W        W27605  13.130  15.946  13.311  0.2064 -0.0822  0.1632
12137W        W27606   6.865  15.388  16.247 -0.0910  0.0041 -0.0456
12138W        W27607  16.443  17.572  15.411  0.0441 -0.1740 -0.0500
12139W        W27608   9.850   9.684   6.172 -0.0075 -0.2511 -0.1351
12140W        W27609   7.633   5.636  15.275 -0.0074  0.0606  0.1001
12141W        W27610   2.902   7.601   0.162  0.0542 -0.1024 -0.0353
12142W        W27611   9.028   3.123  11.364  0.0823 -0.0561 -0.0855
12143W        W27612  15.154   9.973  15.025 -0.2845  0.2572 -0.2228
12144W        W27613   5.265  16.871   3.514 -0.1413  0.2788  0.1850
12145W        W27614  15.280  10.150   1.929 -0.0611  0.0085  0.0178
12146W        W27615   8.048   0.890  11.825 -0.1370 -0.1708  0.1115
12147W        W27616   8.442  14.634   0.971  0.2725  0.0518 -0.2634
12148W        W27617  15.763   1.304   5.297  0.1731 -0.1431  0.1328
12149W        W27618   3.290   5.287   1.667  0.3631  0.2532 -0.0988
12150W        W27619   0.165  11.896   0.199 -0.2108 -0.3448  0.1646
12151W        W27620   4.603   9.071  13.672 -0.0067  0.2400  0.0047
12152W        W27621   9.127   5.761  16.297  0.5094 -0.2171  0.0949
12153W        W27622  13.074  11.454  13.398 -0.2843 -0.2483  0.1101
12154W        W27623  13.157   5.378  12.831 -0.0537 -0.0756  0.0434
12155W        W27624   3.250   5.293   2.652  0.1799 -0.2077 -0.2542
12156W        W27625  13.842   4.237  14.320  0.1363 -0.1966  0.0050
12157W        W27626   2.563   5.163  10.934  0.0216 -0.2746  0.0176
12158W        W27627  14.259  14.488   1.614 -0.0558 -0.1825  0.0372
12159W        W27628   1.184  11.163   0.426 -0.0361  0.1359 -0.2403
12160W        W27629  11.618   0.944   5.961 -0.2684  0.0204  0.3001
12161W        W27630   3.611  17.787   1.357  0.0309  0.0521 -0.0839
12162W        W27631  17.797   5.897   3.634 -0.0865  0.0938 -0.5514
12163W        W27632  16.437   6.994   3.445 -0.0123  0.2168  0.1172
12164W        W27633  17.203  17.541   5.169 -0.0297  0.1541 -0.2857
12165W        W27634  15.796   0.228   3.008 -0.0642 -0.1035 -0.0544
12166W        W27635   1.612  11.356  12.604 -0.0457 -0.0720  0.1436
12167W        W27636  11.793   8.418  12.761 -0.1884  0.1946  0.3837
12168W        W27637   6.893   4.334   3.372  0.1936  0.0950 -0.0574
12169W        W27638   1.487   8.145   5.102 -0.1086 -0.1030  0.2777
12170W        W27639   1.006   6.376   5.179 -0.1446  0.0284 -0.2599
12171W        W27640  11.834  16.914  13.469 -0.3144  0.1322 -0.2856
12172W        W27641   1.839  15.804   6.868 -0.2247  0.1946 -0.1533
12173W        W27642   9.689  13.805   5.537  0.0160  0.1670  0.1026
12174W        W27643  17.117   5.079  12.760 -0.1309 -0.1185  0.0749
12175W        W27644  13.190  13.923   2.685 -0.2560 -0.0834 -0.0148
12176W        W27645   3.034   7.046   1.948  0.0629 -0.1330  0.2191
12177W        W27646   0.333   0.842   5.100 -0.0752  0.0154  0.2167
12178W        W27647   6.635  16.172  16.076  0.2468 -0.0452 -0.1384
12179W        W27648   0.206  15.035  13.767  0.0691 -0.1967  0.4247
12180W        W27649   0.932   1.596  13.584  0.0448 -0.1349  0.0351
12181W        W27650   6.263  16.384  15.772 -0.1982  0.2263  0.0777
12182W        W27651   6.345  15.281  15.557  0.1245  0.2585 -0.0432
12183W        W27652   3.523   7.497  13.231  0.0188 -0.2912 -0.1976
12184W        W27653   1.613   2.672   5.093 -0.1864 -0.0093 -0.1566
12185W        W27654   5.984   1.640  12.819  0.2417 -0.0446 -0.3099
12186W        W27655  10.891  11.481   3.840  0.3951  0.1112 -0.0993
12187W        W27656  16.636   3.185   5.149 -0.0364 -0.0183  0.2289
12188W        W27657  17.302  15.648  15.698  0.1349 -0.0163  0.2618
12189W        W27658  15.602   9.205  11.917 -0.1069 -0.2740  0.0380
12190W        W27659  16.672   4.804  11.463  0.0311 -0.1571  0.0297
12191W        W27660  10.923  17.004   3.130  0.0545 -0.2189 -0.2377
12192W        W27661   3.010   4.076   0.979  0.0169 -0.3109  0.0526
12193W        W27662  14.217  14.325  12.650  0.0379 -0.3247 -0.0363
12194W        W27663   0.165  12.715  11.226  0.2814 -0.0724 -0.0219
12195W        W27664   1.710  15.363  13.653 -0.1090  0.2860  0.1045
12196W        W27665   6.834   6.851   3.583  0.1420 -0.2430  0.0207
12197W        W27666   4.025  12.571   1.171 -0.3235  0.1883  0.1376
12198W        W27667  11.002   0.416   3.570 -0.0363 -0.1715  0.0341
12199W        W27668   9.221  17.825  12.710 -0.2400 -0.0005 -0.0378
12200W        W27669   9.573  11.630   4.926  0.1110  0.0346 -0.0216
12201W        W27670   3.434   2.303  15.212  0.0005  0.2551  0.1877
12202W        W27671  11.342   5.104  13.776  0.0904  0.3305 -0.1351
12203W        W27672   4.208   1.671  12.172 -0.2117 -0.1691  0.3354
12204W        W27673   6.590   6.104  10.976 -0.0531  0.1588  0.3157
12205W        W27674  16.279  16.968  13.758  0.0000  0.0457 -0.0792
12206W        W27675   9.528   5.577   2.238  0.0639 -0.0319 -0.1049
12207W        W27676  16.990  16.508  15.808  0.3604  0.0065  0.0557
12208W        W27677  17.768  17.078   0.102  0.1313 -0.1383 -0.1151
12209W        W27678  13.604  17.108   2.755 -0.1214 -0.2452  0.2265
12210W        W27679  17.459   1.658   1.604  0.0023  0.0064 -0.3226
12211W        W27680   7.852   8.554  15.215  0.0777 -0.3053  0.0771
12212W        W27681   8.597   0.438   4.634  0.0791 -0.0955 -0.0135
12213W        W27682  17.366   8.215  10.336  0.1598 -0.1844  0.4200
12214W        W27683  17.726   9.653   3.441 -0.0447  0.0164  0.3177
12215W        W27684  12.798  13.656   2.509  0.1333  0.0504  0.3329
12216W        W27685  14.818  11.485   4.698  0.1309 -0.3474  0.1907
12217W        W27686   7.068   7.617   1.838 -0.0181 -0.0294 -0.0735
12218W        W27687  11.620   1.759  15.789  0.1926 -0.0934  0.0470
12219W        W27688   2.535   5.356  14.672 -0.2764 -0.0236  0.1913
12220W        W27689   4.966  12.336  16.578 -0.1290 -0.1132 -0.0893
12221W        W27690   7.693   0.649  13.406 -0.2323 -0.0919  0.1855
12222W        W27691   6.879   1.657   0.890  0.0115 -0.2165  0.2644
12223W        W27692   6.679   4.207   2.243  0.0982  0.1135 -0.2905
12224W        W27693  13.329   1.342  12.243 -0.0358  0.1528 -0.0873
12225W        W27694  16.265   4.709  15.297 -0.0236 -0.1802  0.0847
12226W        W27695   6.248  12.944   2.124  0.0643  0.1279  0.1709
12227W        W27696  10.911  13.255  15.180 -0.1962  0.1095 -0.1600
12228W        W27697  14.788   1.194  16.064  0.1657 -0.2472 -0.0050
12229W        W27698   7.251   0.062   1.714  0.0919 -0.1216  0.1920
12230W        W27699   9.452   2.814  11.504  0.1530 -0.0813 -0.3445
12231W        W27700  13.108  11.799  14.783  0.0345  0.0004  0.0019
12232W        W27701  10.591  12.443   5.093  0.0641 -0.0007 -0.0501
12233W        W27702   6.088  13.953  14.299  0.1005  0.0470  0.0997
12234W        W27703   3.541   9.529  11.693 -0.3696 -0.4369  0.0363
12235W        W27704  15.178   8.435   4.466  0.0823 -0.0882 -0.0433
12236W        W27705   2.082  14.003   5.280 -0.1236 -0.1711  0.1639
12237W        W27706   4.039  10.347  13.875 -0.1934  0.2166  0.1565
12238W        W27707  11.801   6.525  14.069 -0.0405 -0.1557 -0.3513
12239W        W27708   4.753  13.725   4.953  0.1565 -0.3225  0.1119
12240W        W27709  15.920   7.798   1.707  0.2658  0.0541  0.3612
12241W        W27710   2.324  12.569   2.537  0.0501 -0.0603 -0.4616
12242W        W27711  12.105  12.366   2.108  0.2671  0.1376  0.3748
12243W        W27712   8.242  10.858   1.258 -0.0236  0.1849 -0.2089
12244W        W27713   4.218  11.496  11.734  0.0585 -0.2981 -0.1857
12245W        W27714   1.120   4.426  13.842 -0.1086  0.3249  0.0732
12246W        W27715   0.401   5.722  11.307 -0.0094  0.0889 -0.1229
12247W        W27716  12.168   9.554  16.164  0.1557 -0.1238 -0.4187
12248W        W27717  14.319   1.864  13.515  0.1534 -0.0435 -0.0655
12249W        W27718   1.354  17.382  14.420 -0.3688  0.2036  0.3113
12250W        W27719   7.788   9.285  12.248 -0.2414  0.0380  0.0634
12251W        W27720  10.025   3.299   4.725  0.0310  0.1698  0.0677
12252W        W27721  17.365   2.315  14.735 -0.2812  0.0653  0.0923
12253W        W27722  15.622   8.141   4.646  0.2576 -0.2645  0.0840
12254W        W27723   9.895   5.104   2.209  0.2105 -0.0151  0.2117
12255W        W27724  16.033   0.522   1.031  0.0469 -0.1806  0.3720
12256W        W27725  13.349   5.833  13.397 -0.1259  0.0848  0.0420
12257W        W27726   9.454  17.749   4.897  0.0773  0.0114  0.1235
12258W        W27727   6.030   3.682  12.590 -0.1144  0.1170 -0.0173
12259W        W27728   8.143  17.580   0.229  0.5204 -0.1114  0.2528
12260W        W27729  17.687  14.427   4.073  0.2806 -0.0575  0.0881
12261W        W27730   4.971   2.270  14.911  0.2472  0.0514 -0.0960
12262W        W27731   3.508   8.733  15.153  0.0307  0.1386 -0.2466
12263W        W27732  10.111   3.790   2.351 -0.0918  0.0748 -0.2929
12264W        W27733   6.225   1.751   2.087  0.0539  0.4706  0.0560
12265W        W27734  15.140  15.183   3.910 -0.1152  0.3069  0.1867
12266W        W27735   7.433   5.805   1.492  0.0108  0.0770  0.2624
12267W        W27736  11.648   8.517   5.664  0.0312 -0.2987 -0.0625
12268W        W27737  11.859  14.986   5.427 -0.0932  0.2022  0.1881
12269W        W27738   9.466   8.225  13.093  0.2507 -0.1633 -0.0247
12270W        W27739   3.985   8.413  14.165  0.0517  0.0206  0.0580
12271W        W27740  17.299   3.638  11.225  0.1269  0.1749  0.2347
12272W        W27741  17.400   4.742   2.094  0.0141  0.0067  0.2976
12273W        W27742   1.874  16.795   1.339  0.0402 -0.0045  0.0745
12274W        W27743   1.773  13.988   3.287 -0.0593  0.0386  0.1361
12275W        W27744  15.057  16.853   6.245  0.0036  0.1057  0.0116
12276W        W27745  12.431  12.596   0.298  0.1228 -0.0303 -0.0067
12277W        W27746  12.463  14.454   4.992  0.1487  0.3660 -0.0526
12278W        W27747   1.933   5.388   4.023 -0.1332 -0.0806  0.4327
12279W        W27748   4.081   3.870   5.872  0.0218 -0.2645 -0.1914
12280W        W27749  10.078  15.489   5.552 -0.1698 -0.0548 -0.0129
12281W        W27750   3.978  14.440   2.915  0.0672 -0.1954 -0.1537
12282W        W27751   3.992   6.924   1.659  0.0616  0.0206 -0.0226
12283W        W27752  15.167  13.441   2.290 -0.1441  0.1460 -0.0679
12284W        W27753   4.754  10.517  15.985  0.1844  0.0547  0.0059
12285W        W27754  10.216   8.002   0.792  0.3848 -0.0693 -0.2185
12286W        W27755  13.432  10.589  13.294 -0.0378 -0.2116 -0.0460
12287W        W27756  16.039   0.976   3.580 -0.0700 -0.1060 -0.0505
12288W        W27757  10.935  17.187   0.539 -0.0713 -0.0685 -0.3803
12289W        W27758   1.660   9.057   3.187  0.0454  0.0209  0.0030
12290W        W27759  13.057   9.388   3.033  0.2073 -0.0053 -0.2504
12291W        W27760   4.528   6.508   4.138  0.0449  0.0302  0.2039
12292W        W27761  10.597  13.828   4.289  0.1357  0.0613  0.0904
12293W        W27762  16.457   9.509  15.698  0.2449 -0.1409  0.0453
12294W        W27763   1.759   5.219  11.050 -0.2215  0.2600 -0.0357
12295W        W27764   8.531  14.863  10.661 -0.1670  0.1960 -0.2174
12296W        W27765  15.628  16.681   4.659  0.2324  0.0080 -0.2161
12297W        W27766  13.682   9.511  12.456  0.0209  0.1570 -0.2687
12298W        W27767   1.963  11.298  14.980  0.0087  0.1322 -0.0430
12299W        W27768   9.989   9.400   2.418 -0.0989 -0.3282  0.1697
12300W        W27769   1.715   0.520   6.460  0.1320 -0.0939  0.1231
12301W        W27770   2.821  14.829   3.308  0.1530  0.3273 -0.0405
12302W        W27771  14.290   4.820   4.773 -0.0097  0.1182 -0.1335
12303W        W27772  16.089  16.352   5.987  0.1026 -0.1588  0.1134
12304W        W27773   7.207   4.869   2.264 -0.0513  0.1306  0.0820
12305W        W27774   3.959   6.719  16.542  0.4546  0.2471  0.0260
12306W        W27775   2.176   9.781  14.369 -0.1894 -0.2097 -0.0933
12307W        W27776   7.600  10.221   0.668  0.0505  0.0111 -0.2106
12308W        W27777   7.001  14.046  10.957  0.1130 -0.2415  0.1628
12309W        W27778   5.476  12.229   1.834  0.1783  0.2761  0.3206
12310W        W27779   8.227  10.173  16.303 -0.1318 -0.1672 -0.2891
12311W        W27780  14.514   7.839  11.673  0.2121 -0.1805  0.1051
12312W        W27781  12.340  16.344   0.743 -0.1130 -0.2389 -0.2000
12313W        W27782   5.237   1.917  15.750 -0.1106  0.3071  0.1636
12314W        W27783   1.381  12.968   0.282 -0.0896  0.0921  0.0042
12315W        W27784   9.577  13.511  16.217  0.0586  0.1205  0.0340
12316W        W27785  12.047   3.994   2.378 -0.1150 -0.2337 -0.2756
12317W        W27786  17.404  12.160   5.009  0.1544 -0.0341  0.0025
12318W        W27787   2.618  17.581   2.312 -0.0187  0.1659  0.0793
12319W        W27788  17.773  10.619  15.671  0.3321  0.0893  0.1253
12320W        W27789   9.489   9.824  12.891 -0.0233 -0.0398 -0.0911
12321W        W27790   3.465   1.751   0.040  0.0303 -0.0412 -0.0174
12322W        W27791  17.511   4.413   5.480  0.0619 -0.2931  0.1339
12323W        W27792  14.223   2.099   2.289  0.3835 -0.0725  0.3726
12324W        W27793  15.350   9.541  12.284 -0.2824  0.0213 -0.0732
12325W        W27794   1.969  17.264  12.593  0.2723  0.2682 -0.2115
12326W        W27795   2.287  16.622  15.009  0.0575  0.2294  0.4362
12327W        W27796   4.701   1.827  14.714  0.0922  0.1952 -0.1478
12328W        W27797  17.343   7.122   3.810  0.1923  0.1159  0.0989
12329W        W27798   6.889  12.755  13.834 -0.0194  0.0126 -0.2620
12330W        W27799   2.054   9.685  12.827 -0.0337 -0.0846 -0.4124
12331W        W27800   8.623   7.249  14.766 -0.0943  0.3092  0.1520
12332W        W27801  11.807   0.704   2.545  0.0569 -0.0489 -0.0068
12333W        W27802  17.796  17.019   0.849 -0.1583  0.0467  0.0449
12334W        W27803   3.739   4.509  11.281 -0.1840 -0.0734  0.0621
12335W        W27804   6.382   1.900   6.101 -0.1640  0.1898 -0.2793
12336W        W27805  11.734   7.434  11.774  0.1471 -0.1062 -0.0939
12337W        W27806   0.514  14.301   5.368 -0.1198  0.0669  0.1711
12338W        W27807   0.425   3.922  14.109 -0.0783  0.2612  0.1424
12339W        W27808   2.863  16.869  13.709 -0.0795 -0.2409 -0.1933
12340W        W27809   9.802  16.905   6.541 -0.1540 -0.0440  0.2461
12341W        W27810  10.680   6.561  15.018 -0.2024 -0.8009  0.0609
12342W        W27811  13.690   0.644   0.985  0.1052  0.0282 -0.2888
12343W        W27812   9.140   7.419   5.340  0.0842  0.1313 -0.2531
12344W        W27813   7.459  16.395   4.325 -0.0862  0.0126  0.5029
12345W        W27814   1.608   2.730   4.235 -0.0570  0.3364 -0.0973
12346W        W27815   2.968  12.116   0.526  0.0626  0.2809  0.1909
12347W        W27816   0.695  12.418   4.473 -0.0579 -0.0912 -0.0099
12348W        W27817  17.806   4.655   5.770 -0.3418  0.0053 -0.0094
12349W        W27818  15.569  12.282   0.079  0.0417 -0.0195  0.2702
12350W        W27819  10.565  10.547   5.842  0.2285 -0.3029  0.2133
12351W        W27820   1.757   8.464   4.502 -0.0308  0.1299  0.0284
12352W        W27821  15.353   5.152   3.244 -0.3602  0.0423 -0.0276
12353W        W27822   8.119   7.237   5.241 -0.1113 -0.0408  0.1854
12354W        W27823   0.177  16.570  13.089  0.1040 -0.0636  0.1153
12355W        W27824   3.474   1.198   1.873 -0.0762  0.0911  0.0405
12356W        W27825   1.225   1.977   1.562 -0.0169 -0.0370 -0.0173
12357W        W27826   6.056   2.452  15.617 -0.2409  0.0772  0.1654
12358W        W27827  12.742   2.702   1.779 -0.4559 -0.2396  0.1384
12359W        W27828   1.527  10.241  15.863  0.2954 -0.0670  0.1493
12360W        W27829   4.814   9.484   3.183  0.0325 -0.1218 -0.2277
12361W        W27830   0.515  11.079  12.162  0.0309 -0.2087 -0.1257
12362W        W27831   6.040   7.962   2.244  0.0335  0.2217 -0.0792
12363W        W27832   8.423  13.376   2.704  0.2993  0.0234  0.3569
12364W        W27833   8.170  10.157   6.119  0.1907  0.1085  0.4078
12365W        W27834   5.842   1.183  16.019  0.3194 -0.1163  0.0519
12366W        W27835  17.139   8.073  12.857 -0.2954 -0.2447 -0.3518
12367W        W27836  15.413  15.530  14.965 -0.0846  0.1893 -0.0686
12368W        W27837  11.589  11.506  15.810  0.1265 -0.0087 -0.0506
12369W        W27838  17.969  12.922   0.436  0.0027 -0.2036 -0.1743
12370W        W27839  16.715   5.044   0.533  0.2790 -0.1941 -0.1516
12371W        W27840   8.143   8.298   2.395  0.0487 -0.0525  0.0370
12372W        W27841   9.393   4.373   5.193  0.0079 -0.2667  0.1423
12373W        W27842   5.330   3.672  14.348 -0.1220  0.2145  0.2857
12374W        W27843   4.230  12.683  12.456 -0.0413 -0.1102 -0.2701
12375W        W27844   6.610   1.233   3.191  0.1501  0.3048  0.2796
12376W        W27845  13.731  15.777   0.585 -0.0202  0.2326 -0.1297
12377W        W27846  14.493   2.803   1.350  0.1419 -0.1473  0.3783
12378W        W27847   3.105   6.640   3.325  0.0176  0.0202  0.0513
12379W        W27848  11.590  14.452  16.394  0.0156 -0.0511 -0.2046
12380W        W27849  10.867  10.473  12.483 -0.0353  0.1399  0.0704
12381W        W27850   3.798  16.605  13.555 -0.2505  0.0110  0.0844
12382W        W27851   2.914  13.095   6.447 -0.3148 -0.2491 -0.5407
12383W        W27852  14.962   7.206  14.919 -0.2202 -0.4111 -0.3271
12384W        W27853   8.056   7.001   0.124 -0.0976 -0.0225 -0.2519
12385W        W27854   8.223   3.720  12.772  0.0231  0.0152 -0.3443
12386W        W27855  13.586  10.589   3.145 -0.1631  0.1658  0.2373
12387W        W27856  17.685   6.850   4.031  0.0959  0.1047 -0.0362
12388W        W27857   1.834  13.438   0.647 -0.0675  0.2193  0.2860
12389W        W27858   3.472  15.095  14.578  0.0411 -0.1678  0.1543
12390W        W27859  17.022   3.674  13.149 -0.2540 -0.1258  0.1157
12391W        W27860  14.043   8.596   0.664  0.3177  0.1997  0.1412
12392W        W27861  17.828   2.634   2.328 -0.0654 -0.1639 -0.2471
12393W        W27862   1.684   5.613   1.682  0.0133 -0.0624 -0.2239
12394W        W27863   7.272   5.683   5.305 -0.1196 -0.1387 -0.1333
12395W        W27864  16.973   9.168   0.013  0.4714 -0.1880 -0.0448
12396W        W27865  15.682  14.362   4.374 -0.1495 -0.3464  0.0026
12397W        W27866   7.822   1.914   3.331  0.2621  0.3710 -0.1564
12398W        W27867  15.225  14.011   3.078  0.1578  0.0044 -0.0925
12399W        W27868  15.364  13.250   1.463 -0.0829 -0.2229 -0.0158
12400W        W27869   2.710  14.005  15.316 -0.1916  0.0966  0.1230
12401W        W27870   4.932  13.366  16.000 -0.3809 -0.4280  0.2369
12402W        W27871   1.614   5.769  14.528 -0.0091 -0.1346  0.2539
12403W        W27872   9.741   2.279   6.292 -0.0103 -0.1168 -0.0007
12404W        W27873   3.741  17.381   2.491  0.0657  0.0001 -0.1956
12405W        W27874   2.486  16.797  13.420  0.1109  0.3073  0.1070
12406W        W27875  11.658   0.815  16.096 -0.1048  0.2369 -0.0091
12407W        W27876   7.196   7.530   4.093  0.3604  0.1439  0.2257
12408W        W27877   9.683   8.691   3.215  0.0718  0.1047 -0.2997
12409W        W27878  16.952   8.521   0.586  0.0813 -0.0742  0.0960
12410W        W27879   3.943  13.968   1.745  0.0709  0.0302 -0.0405
12411W        W27880   2.313  12.251   3.634 -0.1205 -0.0958 -0.1702
12412W        W27881  16.053   3.402  12.551 -0.3702  0.1405  0.1233
12413W        W27882   1.587   5.616  11.271 -0.2506 -0.2763 -0.0903
12414W        W27883  11.115   7.534  14.808 -0.1020 -0.1437 -0.0868
12415W        W27884  15.590  12.967  13.817  0.0242 -0.2949 -0.0670
12416W        W27885  16.577  13.131   0.544  0.2008 -0.0286  0.1102
12417W        W27886   6.642  13.425   5.880  0.2836 -0.3159  0.2006
12418W        W27887   7.620   1.161   3.765  0.0206  0.2241 -0.1400
12419W        W27888  14.583   5.121  11.929  0.0929  0.0715  0.0930
12420W        W27889   1.012   2.368  14.938  0.1572 -0.0426 -0.2481
12421W        W27890  13.293   9.360  14.692 -0.0538 -0.3511 -0.3350
12422W        W27891  17.322  14.046   4.068  0.1348 -0.0526 -0.2659
12423W        W27892   3.692   8.760   3.724  0.0734 -0.0838 -0.0221
12424W        W27893  14.043  10.857  14.405 -0.0111 -0.0865 -0.1216
12425W        W27894  10.821   5.206  15.773  0.1130 -0.1518 -0.1599
12426W        W27895  15.503  14.979   2.957  0.1844  0.1770 -0.0681
12427W        W27896  16.394  16.987   5.001  0.0130 -0.3561 -0.4052
12428W        W27897   7.412   7.571   4.839  0.1821  0.1487  0.0409
12429W        W27898   7.841  12.493   1.091 -0.2663  0.1614 -0.1420
12430W        W27899   5.955   5.853  13.132 -0.1858  0.1434 -0.1047
12431W        W27900   5.240  17.104   0.103  0.1311  0.1048  0.2046
12432W        W27901   8.883  14.695  16.279 -0.0048 -0.0784 -0.0940
12433W        W27902   3.064  10.341  14.125  0.0350 -0.1005 -0.1721
12434W        W27903  10.378   9.367  11.887 -0.1318 -0.0161 -0.2102
12435W        W27904  15.940   6.346  14.053 -0.0492  0.1026  0.1218
12436W        W27905   2.005  14.131   2.352 -0.1144  0.0805 -0.0377
12437W        W27906   3.474   8.802   4.694  0.0196 -0.0489  0.0723
12438W        W27907   6.954  17.955  16.347  0.1380 -0.3776 -0.0587
12439W        W27908   3.899  11.189   1.987 -0.0224  0.0617 -0.2038
12440W        W27909   6.114   3.314   0.039  0.0043 -0.2006 -0.0705
12441W        W27910  13.141  10.137   0.060  0.1345 -0.2750  0.0518
12442W        W27911   9.867   4.778  11.659 -0.2522  0.0609 -0.0816
12443W        W27912  17.639  12.611   5.239  0.1268 -0.1938 -0.1041
12444W        W27913   9.277   3.258  15.630  0.1606  0.1690 -0.4350
12445W        W27914  14.290   3.955   4.497 -0.0822 -0.1178 -0.0804
12446W        W27915   9.924   1.159  14.459 -0.2681 -0.3711 -0.1739
12447W        W27916   1.110  15.257   3.457 -0.0384  0.3315 -0.1066
12448W        W27917   4.112  13.861  11.863  0.0365  0.0722 -0.1048
12449W        W27918   2.517   8.235  11.773  0.0107  0.0379  0.0583
12450W        W27919   7.384  10.544   2.743  0.1424 -0.0264 -0.1520
12451W        W27920   9.933  12.860  13.685 -0.1748 -0.0343 -0.0184
12452W        W27921   7.964  14.382   2.613  0.1721  0.2572 -0.3259
12453W        W27922   4.342   6.671  12.412  0.1953  0.0140 -0.1456
12454W        W27923   8.774   4.264   3.256 -0.0362  0.0479  0.0011
12455W        W27924   7.006   7.640  12.829 -0.0805 -0.0299 -0.0029
12456W        W27925   1.529  11.703   0.939 -0.1388  0.2400  0.0309
12457W        W27926  12.192   4.334  16.270 -0.0318  0.0161  0.2853
12458W        W27927   0.258  16.044   3.832  0.3446  0.1770 -0.2805
12459W        W27928   2.803   3.659   3.204  0.1350  0.1476  0.2970
12460W        W27929   9.586  11.458   4.448 -0.2660  0.2147  0.3389
12461W        W27930   5.906   3.264   0.514  0.2245  0.0370 -0.2111
12462W        W27931  10.870   3.380   3.486 -0.0058  0.2969  0.0829
12463W        W27932  17.810   4.699  15.056 -0.1602 -0.6215 -0.1364
12464W        W27933  13.391  15.478  14.524  0.0833 -0.1069  0.0199
12465W        W27934   6.385   2.601  15.955 -0.0078 -0.1879 -0.0780
12466W        W27935   3.428   4.785  16.059 -0.1532  0.1146 -0.0939
12467W        W27936   4.861   0.765   5.834 -0.2482  0.0963 -0.0830
12468W        W27937  14.628   9.211  12.932  0.0925 -0.0966  0.0281
12469W        W27938  14.442  11.130   0.385 -0.0908  0.5793 -0.0904
12470W        W27939   8.304   1.762   5.242 -0.0184  0.0119  0.1455
12471W        W27940  14.601  12.907  14.430 -0.0165  0.2559  0.2758
12472W        W27941   6.961  10.918  16.345  0.2959 -0.0705 -0.2740
12473W        W27942   6.200  13.589   3.494  0.0778 -0.3490  0.1609
12474W        W27943  17.715  13.951   4.843 -0.2302 -0.0728  0.1946
12475W        W27944  15.835  14.496  12.932 -0.1420 -0.0035  0.3001
12476W        W27945  12.517   7.602   4.017  0.1914 -0.1687 -0.0288
12477W        W27946   8.729  10.060   3.146 -0.1654 -0.3247 -0.0814
12478W        W27947   8.094   5.512  12.888 -0.0674  0.0603 -0.0330
12479W        W27948  14.472  15.083  16.234 -0.1428 -0.0425  0.2599
12480W        W27949   4.841   3.387  15.921 -0.0731  0.1803  0.0209
12481W        W27950   4.559   7.537   4.976 -0.0270  0.0327 -0.1887
12482W        W27951   5.000   0.446   3.020  0.0701  0.0049  0.2640
12483W        W27952  15.156   1.650   4.328  0.1851  0.1332 -0.5262
12484W        W27953  17.323   3.218   4.499 -0.2242 -0.3677 -0.1125
12485W        W27954   4.133  12.164  15.244  0.0865  0.0020  0.4539
12486W        W27955   6.809   9.477   3.028 -0.0976 -0.3892 -0.1299
12487W        W27956   5.973   5.966  12.156  0.0498 -0.2867 -0.1727
12488W        W27957  14.271   2.815   4.575  0.0440 -0.0723 -0.0754
12489W        W27958   0.704   9.080  15.759  0.1073 -0.2055 -0.0842
12490W        W27959   3.162   5.736   1.945 -0.1718 -0.0908  0.0013
12491W        W27960   4.154  10.677  13.499 -0.2492 -0.1982  0.0481
12492W        W27961   5.754   2.893  11.903  0.0467 -0.1646  0.2215
12493W        W27962   1.671  16.630   1.770  0.1527  0.0463  0.2159
12494W        W27963  17.281   6.706   4.390 -0.0201 -0.1728 -0.0579
12495W        W27964   7.015   9.891   1.674  0.1859  0.1460  0.0027
12496W        W27965  12.756  17.357  12.346  0.2348 -0.0506 -0.1458
12497W        W27966   9.207   8.924  15.052  0.4140 -0.1601 -0.1294
12498W        W27967  17.449   3.010   3.897  0.0837 -0.1609 -0.1398
12499W        W27968   9.737  12.412   1.881 -0.0594 -0.0570  0.3859
12500W        W27969   2.051  15.750   0.309 -0.1864  0.1568  0.2373
12501W        W27970  11.558   5.399  13.406  0.0671  0.3325  0.2241
12502W        W27971  16.943   0.553  12.625  0.0948 -0.1938 -0.0492
12503W        W27972  15.488  14.643  15.668 -0.1769  0.0020 -0.1287
12504W        W27973   0.549   5.001  13.258 -0.0549 -0.1467 -0.0654
12505W        W27974   5.262   6.146   3.802 -0.5123 -0.2101  0.0263
12506W        W27975  11.174   3.643   1.335 -0.0270  0.0667 -0.2025
12507W        W27976  15.377   8.989   3.982  0.2585  0.0830  0.4463
12508W        W27977  13.673  13.674   1.162  0.0078  0.1692  0.2202
12509W        W27978   6.908  11.702   0.178 -0.0764 -0.0305  0.1943
12510W        W27979  11.254   5.462  15.609  0.2120  0.3287 -0.2933
12511W        W27980  10.353  10.200  13.701 -0.2051  0.1640 -0.1005
12512W        W27981  16.845  11.657   1.717 -0.0381  0.0184 -0.0425
12513W        W27982   8.837  16.643   5.747 -0.0959  0.2400  0.0062
12514W        W27983  17.833  13.128   1.217  0.0016  0.0264  0.0945
12515W        W27984   4.704  10.319  13.351  0.2999 -0.0354 -0.4254
12516W        W27985   6.792   6.996  14.223 -0.2116 -0.0372  0.0104
12517W        W27986  13.380   3.314   2.071  0.2450  0.3652 -0.4836
12518W        W27987   1.384  13.967  14.305 -0.1272 -0.0727 -0.1685
12519W        W27988  14.850  14.615   5.917 -0.1086  0.0700  0.1746
12520W        W27989   0.115   1.958  10.535  0.0601 -0.0604  0.1158
12521W        W27990   0.094  11.961  16.274 -0.0793 -0.3173 -0.1596
12522W        W27991   4.116  10.165  16.390 -0.0243 -0.3430  0.0905
12523W        W27992  15.384   7.746   2.543  0.2467  0.0693  0.0498
12524W        W27993  12.544   9.775   2.989  0.0777 -0.1021  0.2216
12525W        W27994   7.312  16.535   5.826  0.0053 -0.1536 -0.1163
12526W        W27995   4.128  14.961   3.669  0.0840 -0.0519  0.1244
12527W        W27996  12.160  17.671  10.839  0.2439  0.0818  0.2472
12528W        W27997   1.413   3.819  14.935  0.4136 -0.2936 -0.0420
12529W        W27998   8.432   5.388   4.860  0.1139  0.5425 -0.0957
12530W        W27999  10.223   7.898   1.329  0.0909  0.0883 -0.0175
12531W        W28000   2.218   3.961   5.000  0.0560 -0.4302 -0.0548
12532W        W28001   2.234  13.960   1.715  0.2036 -0.4487 -0.0693
12533W        W28002  16.600   9.855  11.688 -0.0184  0.0683  0.1606
12534W        W28003   6.471   6.262   6.229  0.0658  0.3887  0.2127
12535W        W28004   0.073   3.745  11.863  0.3854  0.1035  0.2856
12536W        W28005   8.571  16.369  15.544 -0.3795 -0.0403  0.1562
12537W        W28006  14.618   8.294   2.834 -0.2533  0.1180 -0.0588
12538W        W28007   1.327  15.666   1.957 -0.1834  0.0390  0.0405
12539W        W28008   0.523   0.327   1.505 -0.0665 -0.2286 -0.0002
12540W        W28009   9.651   0.227   6.649 -0.2794 -0.0103  0.1724
12541W        W28010  11.308   7.375   3.744  0.0222  0.1839  0.1775
12542W        W28011  13.491   0.229  15.572 -0.1867  0.0592 -0.0942
12543W        W28012   5.730  16.526   1.223 -0.0510  0.0803 -0.4055
12544W        W28013  15.695  17.314   3.882 -0.3483  0.1473  0.0290
12545W        W28014  11.058   6.539  13.174 -0.1782  0.0257 -0.1689
12546W        W28015  13.332   4.221   2.809 -0.0116  0.1360 -0.0788
12547W        W28016   1.195   7.838   5.452 -0.1658  0.0342 -0.2440
12548W        W28017   1.219   2.301   2.886  0.3319 -0.2413 -0.4007
12549W        W28018  13.682   1.199   5.896  0.1503 -0.3805  0.0014
12550W        W28019  15.530   8.589  15.793 -0.1042  0.0157 -0.0639
12551W        W28020  10.402   0.502   2.754  0.1451  0.0777  0.0333
12552W        W28021  11.310   5.174   1.870  0.0004 -0.0749  0.1708
12553W        W28022  14.503   2.767  15.903  0.1832  0.2388  0.3266
12554W        W28023  16.701   3.734   2.935 -0.1980  0.0742  0.3834
12555W        W28024  14.752   4.712   1.137  0.1787  0.0645 -0.1275
12556W        W28025  11.811   8.408   0.979  0.1696  0.0267  0.0792
12557W        W28026  14.324   1.904   4.667  0.0629 -0.1907 -0.0341
12558W        W28027  10.675   6.498   1.321  0.1516 -0.0829 -0.1091
12559W        W28028  15.825   0.173  14.313  0.0450 -0.2806  0.0209
12560W        W28029  12.366   7.924  12.324 -0.2765  0.1251  0.2271
12561W        W28030  17.314   1.062   3.475  0.0583 -0.1336  0.1505
12562W        W28031  13.787   2.485   3.779 -0.0469 -0.0478  0.0118
12563W        W28032   6.455   7.185  11.567  0.0008  0.1183 -0.0922
12564W        W28033  12.343  17.831  11.589 -0.1403 -0.0253  0.2566
12565W        W28034  10.809  12.339  11.836 -0.2112 -0.0667  0.3355
12566W        W28035   5.881  16.547   2.655 -0.0746  0.0164  0.1151
12567W        W28036  11.028  16.798  14.131  0.0254 -0.5147 -0.1565
12568W        W28037  10.609  13.372   3.989  0.1402 -0.2004  0.1877
12569W        W28038   1.083   5.253   4.371  0.0049 -0.0858 -0.1847
12570W        W28039   5.487   5.376   4.849 -0.1092  0.1219  0.1573
12571W        W28040   9.320  11.232  12.039  0.2188  0.0771 -0.1721
12572W        W28041  16.836   2.039   6.390 -0.1610  0.4144 -0.0534
12573W        W28042  14.642  11.507   5.163  0.0943 -0.1884 -0.0549
12574W        W28043   7.536   5.012  14.768  0.0235  0.0378 -0.0816
12575W        W28044  16.161   0.969  12.687  0.1531  0.1951 -0.1017
12576W        W28045   5.491  16.672   5.843  0.0456 -0.1375  0.1566
12577W        W28046  15.378  13.477   4.417  0.0683  0.1442  0.0799
12578W        W28047  14.732   3.540  11.965 -0.0415  0.2651  0.1134
12579W        W28048  10.709   0.701   1.049  0.0184 -0.0066 -0.0040
12580W        W28049   9.707   6.379   4.537 -0.1178  0.1140  0.1919
12581W        W28050   5.673   4.803   6.135  0.0132  0.0662 -0.4138
12582W        W28051   0.114  10.117   0.576 -0.0603  0.2015 -0.1883
12583W        W28052   4.928   6.399   0.673  0.2873  0.0548 -0.2909
12584W        W28053  15.200  11.848   2.597  0.2823 -0.0859  0.2050
12585W        W28054   1.872   2.018   3.229 -0.0653 -0.0900 -0.0708
12586W        W28055  17.115  11.384  14.051  0.0927 -0.0656  0.1526
12587W        W28056   5.256   6.983   4.021  0.2053  0.2342 -0.0107
12588W        W28057   4.013  13.971   2.286 -0.0094 -0.0024 -0.1870
12589W        W28058  13.148   6.321   4.842  0.2844  0.1863 -0.0740
12590W        W28059   9.261  10.425  10.909 -0.2802 -0.0681  0.0019
12591W        W28060   5.132   7.492   2.478 -0.0551 -0.0249 -0.1546
12592W        W28061   0.258   9.418   2.211 -0.2311  0.2492 -0.0605
12593W        W28062  13.082   2.278   0.639  0.1237  0.2484  0.1324
12594W        W28063   9.106   1.639   4.841 -0.2559  0.0378 -0.1780
12595W        W28064   3.310   2.428   3.412 -0.2280 -0.1252  0.0103
12596W        W28065   3.392   7.034   3.535 -0.1388 -0.1815  0.1312
12597W        W28066   1.961  10.854   4.173 -0.2163  0.1455 -0.2283
12598W        W28067  13.687  13.323   2.062  0.0388  0.0117 -0.0832
12599W        W28068   6.906  11.250  12.478 -0.4098  0.0633 -0.2661
12600W        W28069  12.628  11.653   4.526 -0.1284 -0.1839 -0.0731
12601W        W28070  12.375   9.057  11.612  0.1763  0.1748  0.2338
12602W        W28071   7.462   4.150   6.121 -0.2013 -0.3013  0.0374
12603W        W28072  15.274  15.135   2.478 -0.0637  0.1555 -0.3194
12604W        W28073  13.763   0.459   5.629  0.1184  0.1160  0.0969
12605W        W28074   4.314   1.844  14.140 -0.2211  0.0207  0.1753
12606W        W28075  14.428  15.239  14.507  0.1128  0.1263  0.3270
12607W        W28076  14.100  13.418   2.498 -0.0668 -0.0654  0.2599
12608W        W28077  12.851   3.056   4.460 -0.0140 -0.0708 -0.1375
12609W        W28078  10.087  17.392   2.786  0.3212 -0.2372  0.0764
12610W        W28079   1.446   1.553  16.011 -0.4569 -0.1874 -0.2709
12611W        W28080   9.896   1.203   4.800  0.1567 -0.1385  0.2579
12612W        W28081   0.471  11.776   3.601 -0.2491 -0.2952 -0.0414
12613W        W28082  14.028   5.513   3.136  0.3959  0.0452  0.1203
12614W        W28083  15.059  12.563   4.427 -0.3356  0.0970 -0.0706
12615W        W28084   7.180  11.181   5.164  0.1179 -0.3398 -0.1526
12616W        W28085   0.838  11.422  12.120  0.0605  0.0115 -0.0377
12617W        W28086  16.603  13.998  13.074 -0.2076 -0.0364  0.4213
12618W        W28087  11.154  17.691  12.321 -0.3462  0.0723  0.4222
12619W        W28088  15.783  17.535   3.357 -0.1026 -0.0599 -0.0489
12620W        W28089  10.344  13.836  12.571 -0.1613 -0.2079 -0.2337
12621W        W28090   9.361  10.024   1.022 -0.3065 -0.3750 -0.0831
12622W        W28091   6.942  12.426  15.597  0.0130 -0.1089 -0.2457
12623W        W28092  14.584  16.006   1.642  0.0275 -0.0122 -0.0417
12624W        W28093   9.399   1.202  16.540 -0.0809  0.0569  0.0774
12625W        W28094   6.060   9.484   3.695 -0.0389  0.0995 -0.1911
12626W        W28095   5.738   4.586   5.182  0.2133 -0.0061 -0.0442
12627W        W28096   6.640  16.866   5.730 -0.1404  0.0392  0.1103
12628W        W28097  15.627   4.231   1.132  0.2369 -0.0426 -0.0664
12629W        W28098   4.278   0.094  14.970 -0.1652 -0.1747  0.3451
12630W        W28099   3.407  11.854  11.315 -0.2854  0.1101  0.2271
12631W        W28100  11.564   8.792   1.535  0.2445 -0.0760 -0.0746
12632W        W28101  16.635   7.199   5.007 -0.1328 -0.1050  0.0789
12633W        W28102   3.094  14.670  13.124  0.1072 -0.0940  0.0863
12634W        W28103   6.375   6.774   1.259  0.0440 -0.0537 -0.2102
12635W        W28104  15.459  13.821  12.925 -0.2118 -0.0111 -0.1179
12636W        W28105   2.680   0.516  13.804  0.1197  0.3096  0.1994
12637W        W28106   2.054   8.869  16.607  0.1650  0.2008 -0.0557
12638W        W28107   8.097  13.539  12.351  0.1325 -0.0709 -0.0960
12639W        W28108   6.180   4.165  16.405 -0.4646 -0.0024  0.0497
12640W        W28109   8.003   0.074  15.411  0.0625  0.2888 -0.1566
12641W        W28110   2.857  15.901  13.827 -0.1427 -0.1978  0.2022
12642W        W28111   3.831  14.538   0.388 -0.1832 -0.1510 -0.1739
12643W        W28112   9.372   6.499   2.240 -0.1917  0.1735 -0.1813
12644W        W28113   6.594   9.447   3.810 -0.3953  0.1581 -0.1223
12645W        W28114  12.543   1.434   6.626 -0.1919  0.1060  0.1512
12646W        W28115  17.544   5.459   2.240  0.0842  0.3861  0.1189
12647W        W28116   9.514  16.885   1.393  0.0517 -0.0976 -0.1153
12648W        W28117   9.849  13.835  16.613 -0.1218  0.0794 -0.0890
12649W        W28118   9.465   7.045  12.586 -0.2491 -0.0982 -0.0616
12650W        W28119   4.982   3.462  13.023 -0.1795 -0.1166  0.1950
12651W        W28120   9.818  17.496  14.915  0.1606  0.1597 -0.0518
12652W        W28121  15.136   7.184   2.665 -0.0772  0.0641  0.0019
12653W        W28122   7.358   6.202   5.382  0.0904  0.1293 -0.1006
12654W        W28123  16.018  15.751  12.316 -0.1517  0.1265  0.0236
12655W        W28124  16.761  15.580   1.606  0.0176  0.0320 -0.1274
12656W        W28125   7.361  14.425   2.158  0.1608  0.0149 -0.0676
12657W        W28126  14.466   1.377  15.724 -0.0637  0.0026  0.0764
12658W        W28127   8.974   2.750  11.724 -0.5071  0.1080 -0.0216
12659W        W28128   7.968  10.000  10.737 -0.0701 -0.0806  0.0269
12660W        W28129   3.475   0.952   5.542 -0.0076 -0.2533  0.0535
12661W        W28130  15.551   8.950   2.323  0.0060  0.1116  0.0342
12662W        W28131   2.824  14.435   0.967  0.0431 -0.2095 -0.0060
12663W        W28132  12.778   8.984   0.489 -0.3549  0.0994 -0.0320
12664W        W28133   0.996   0.782  16.189 -0.2000 -0.0706 -0.2929
12665W        W28134  10.523   4.051  13.849 -0.0013  0.1785 -0.1026
12666W        W28135  14.586  16.318   0.294 -0.1362 -0.3646 -0.0190
12667W        W28136   5.525  10.477  11.625  0.3058  0.1667 -0.2802
12668W        W28137   8.445   2.234   1.509 -0.2270 -0.1424 -0.0538
12669W        W28138   6.164   1.085   2.988 -0.2186  0.1417 -0.2419
12670W        W28139  13.522   1.555   2.519  0.1682  0.1093 -0.0465
12671W        W28140  10.023   6.071   0.662  0.1949  0.0724 -0.0084
12672W        W28141   6.269   4.042  12.058  0.1706 -0.2790  0.2110
12673W        W28142   9.798   7.435  11.674 -0.1490  0.0065 -0.0610
12674W        W28143  12.294  15.238   4.890 -0.0566  0.0032  0.1698
12675W        W28144   2.274  10.618   3.857  0.1789 -0.1751 -0.1401
12676W        W28145   8.190   2.921  12.391  0.2322  0.1176 -0.0167
12677W        W28146  15.567  10.078  13.309  0.1750 -0.1787  0.2233
12678W        W28147   5.788   5.970   3.749 -0.0500 -0.0030 -0.1330
12679W        W28148   1.274   0.521   3.187  0.1422  0.5229 -0.0895
12680W        W28149  12.688   1.425   5.245 -0.2254 -0.1113  0.2034
12681W        W28150  10.656  12.345   3.674 -0.1328 -0.1060 -0.1088
12682W        W28151   1.774  11.676  15.320  0.2016 -0.0175  0.0190
12683W        W28152   1.917  17.460  13.129 -0.0526  0.1073 -0.3912
12684W        W28153  16.166   8.863   4.390 -0.1770 -0.1913  0.3371
12685W        W28154  11.502  14.941  14.287  0.0106  0.0805  0.2392
12686W        W28155  11.471  13.914  13.703 -0.0048  0.0345 -0.1564
12687W        W28156   3.406  17.391  14.687 -0.4510  0.0252  0.3639
12688W        W28157   0.436  15.388   4.390  0.0019 -0.2971 -0.1362
12689W        W28158  16.168  11.045  11.394  0.1293 -0.1823 -0.3268
12690W        W28159   0.702  10.438  13.933 -0.1131  0.0874  0.1941
12691W        W28160  17.072   7.864  15.075 -0.0395  0.0871 -0.2173
12692W        W28161  11.282   7.427  16.138  0.3120 -0.0063 -0.1549
12693W        W28162   3.317   0.909   1.030 -0.1802  0.1992 -0.2332
12694W        W28163   2.564   2.247   1.082  0.1196  0.0195  0.3924
12695W        W28164  10.331  12.567   1.038 -0.1941 -0.5659 -0.3277
12696W        W28165   5.942   9.786  16.105 -0.2190  0.1054  0.1465
12697W        W28166   7.116   3.062  15.774  0.3081  0.3581 -0.0966
12698W        W28167  12.105  10.389  15.371  0.0520 -0.3690 -0.1684
12699W        W28168  15.695  13.014  16.605 -0.1109 -0.0437 -0.2667
12700W        W28169   1.866   6.617  12.790 -0.2150 -0.1969 -0.0850
12701W        W28170  14.731  16.897   6.637  0.0150 -0.1683 -0.4660
12702W        W28171  16.588   8.525   3.477  0.1059  0.1278  0.3517
12703W        W28172   8.172   0.758   2.551  0.0310 -0.0095  0.1583
12704W        W28173   6.256   2.494   0.145  0.2872  0.1463  0.1331
12705W        W28174   9.042   8.772   4.070  0.0091 -0.0934  0.0341
12706W        W28175   6.408  15.823  13.963  0.2848 -0.0527 -0.0738
12707W        W28176  13.523  16.970  14.087 -0.0703  0.0018 -0.1836
12708W        W28177  10.428  16.447  12.395  0.2056  0.1780  0.0259
12709W        W28178  16.430   2.411  16.441  0.1109 -0.1985  0.4158
12710W        W28179   0.075  15.512   4.760 -0.0836 -0.0096  0.2522
12711W        W28180   7.451   2.227   5.372  0.1240 -0.1260 -0.2479
12712W        W28181   2.703   9.674   3.053 -0.0484 -0.2170  0.2994
12713W        W28182   1.673  12.746   3.767 -0.0713  0.4492  0.2247
12714W        W28183   1.768  10.564  12.623  0.1177  0.0142  0.0135
12715W        W28184   1.201   9.887   0.410 -0.3492 -0.0363 -0.0609
12716W        W28185   7.106  13.209  13.973 -0.0702 -0.0896 -0.1816
12717W        W28186   4.681   7.357  16.384 -0.0634  0.3415  0.3725
12718W        W28187   1.722  10.248  14.248 -0.0941  0.0280  0.0494
12719W        W28188  17.013   7.185   0.667  0.1890  0.2543 -0.0759
12720W        W28189  14.558  11.143  11.565 -0.1697  0.1385  0.0383
12721W        W28190  13.773   3.180  14.647 -0.2374  0.1365 -0.1181
12722W        W28191  10.292  17.829   1.708  0.2156 -0.1401  0.3424
12723W        W28192  12.383  17.898  12.529 -0.3352 -0.1332 -0.1695
12724W        W28193   2.257   1.041   1.267  0.0802  0.1155  0.2882
12725W        W28194   8.465  15.346   3.618  0.2453 -0.0515  0.0160
12726W        W28195  15.191   1.541  11.230 -0.0494  0.3443  0.1990
12727W        W28196   3.898   5.380  16.587 -0.0376  0.0187  0.0375
12728W        W28197   0.587   7.792  14.620  0.0870  0.1762 -0.0175
12729W        W28198   2.619  15.080   0.922 -0.1123 -0.0203  0.0943
12730W        W28199  10.119   7.530  13.243 -0.0952  0.0981 -0.0165
12731W        W28200  16.729   5.429   2.378  0.2311  0.1753  0.1592
12732W        W28201  15.826   5.609  13.185 -0.2179  0.2659  0.1172
12733W        W28202   9.874   3.360   2.319  0.4779 -0.2315  0.0612
12734W        W28203  11.111  13.746  13.337  0.0277  0.0770  0.4380
12735W        W28204   7.415   9.547   5.537 -0.2157 -0.0658 -0.3040
12736W        W28205   6.063  12.152   2.009 -0.0288  0.2187  0.0068
12737W        W28206   8.825  17.246   6.448 -0.0630  0.0224  0.1801
12738W        W28207   4.594   5.548   4.154  0.0392  0.2220  0.1001
12739W        W28208  10.618  13.387  16.125  0.3100 -0.0053 -0.1098
12740W        W28209   7.363  15.399  15.041  0.0768 -0.0101 -0.0026
12741W        W28210  16.576   1.408   2.989 -0.2291  0.0593  0.1479
12742W        W28211   0.937   2.820  10.924 -0.0681  0.0532  0.3456
12743W        W28212   9.878   3.774  16.165  0.2242  0.2608 -0.0349
12744W        W28213   0.688   7.588   0.380  0.3464 -0.0904 -0.0176
12745W        W28214   3.602   3.045   3.396 -0.1899  0.2619  0.4179
12746W        W28215   1.857  13.516  14.194 -0.0346  0.1280  0.0548
12747W        W28216   0.899   2.107   3.265  0.0471 -0.0703  0.0453
12748W        W28217   1.107  10.782   3.160  0.2608  0.2128 -0.0777
12749W        W28218   9.487  12.860   1.370  0.2942  0.0574  0.1023
12750W        W28219   2.037  12.083   0.173  0.1756  0.0908 -0.1755
12751W        W28220   4.467   3.390  14.636  0.0805  0.2522 -0.1436
12752W        W28221   3.754   3.138  11.274  0.4381 -0.0782  0.2604
12753W        W28222   7.294   1.394   0.036  0.1613 -0.1526  0.0546
12754W        W28223   6.317   5.558  16.601  0.1282 -0.2276 -0.0779
12755W        W28224   2.260  16.491   3.852 -0.1564  0.1987 -0.1879
12756W        W28225   6.272  13.034  14.441 -0.0642  0.1317  0.1038
12757W        W28226   0.022  10.664   3.896  0.1340  0.3030 -0.0260
12758W        W28227  12.204  16.946   5.181 -0.1314  0.0767 -0.1992
12759W        W28228   2.135   6.839  14.878  0.2312 -0.2427 -0.1254
12760W        W28229   3.425   0.779   1.563  0.1099 -0.3273 -0.0980
12761W        W28230  11.189  12.175   0.916 -0.1198 -0.0267  0.3710
12762W        W28231   0.015  10.243   2.342 -0.1493 -0.2352 -0.1209
12763W        W28232   7.583   4.556   2.199 -0.1605  0.0687  0.1206
12764W        W28233   9.040   4.140  14.484 -0.1787  0.0033 -0.1347
12765W        W28234  10.621   4.148   0.034 -0.1705 -0.1495 -0.0982
12766W        W28235  14.382   7.606   3.133 -0.1760  0.0356 -0.4844
12767W        W28236  12.703  15.623  14.472  0.0973  0.1132  0.2299
12768W        W28237   8.852  17.121  13.293  0.2127  0.1883  0.5376
12769W        W28238   3.647   3.897   5.650  0.1463  0.2144  0.0564
12770W        W28239  16.434   6.923  16.160  0.0385  0.1855 -0.0185
12771W        W28240   4.512   5.994   1.556  0.2114  0.0537 -0.2475
12772W        W28241   2.127  10.117  14.005 -0.0768  0.0668  0.0063
12773W        W28242  17.555   0.990  12.200 -0.1172 -0.0632 -0.0564
12774W        W28243  15.451  14.815   0.531 -0.1703 -0.2857 -0.2547
12775W        W28244  10.057   5.774   4.322  0.0258  0.0789 -0.0951
12776W        W28245   0.802  12.743   3.350  0.0407 -0.3786 -0.3888
12777W        W28246   7.951  13.272  13.139  0.1200  0.2460  0.0725
12778W        W28247   5.234  15.485   4.134  0.2162 -0.0928 -0.1379
12779W        W28248   8.448   9.206   6.191 -0.0018 -0.2578  0.0958
12780W        W28249  16.212   6.511   0.152 -0.0260  0.1819  0.3463
12781W        W28250   7.998   9.109  11.389  0.0305  0.3662 -0.1033
12782W        W28251   1.849  17.038  12.190  0.1335  0.0746  0.1192
12783W        W28252   1.452  12.521   2.851  0.2700  0.0626 -0.0478
12784W        W28253  13.967   6.838   2.072 -0.0226  0.0257  0.0606
12785W        W28254   5.652  16.991   2.521  0.0888  0.2657 -0.2522
12786W        W28255  13.372  14.254   5.220  0.2520  0.3993  0.0171
12787W        W28256  10.189   0.863  11.010 -0.2172 -0.1895  0.2301
12788W        W28257   8.865   9.687   5.515 -0.0422 -0.1028 -0.0673
12789W        W28258   8.625   5.757  14.793  0.4210 -0.1256  0.0111
12790W        W28259   4.444   1.380  14.890  0.1509  0.1467 -0.0838
12791W        W28260   2.407   4.668  11.192 -0.0868 -0.0441  0.0304
12792W        W28261   3.998   3.874   0.451  0.1095  0.1794  0.0757
12793W        W28262   5.592   4.133   5.161  0.0701  0.1906  0.1358
12794W        W28263  11.768  13.358   2.809 -0.0255  0.0861 -0.2525
12795W        W28264  15.929   2.321  15.803  0.2468 -0.0781  0.1228
12796W        W28265   9.321   9.538  13.781  0.4657  0.2329  0.0314
12797W        W28266  13.839  16.778   3.291  0.3875  0.1025  0.1537
12798W        W28267  13.861   6.368  12.417  0.0755  0.2478  0.0107
12799W        W28268   6.066  14.476  12.880  0.1231  0.2315 -0.0548
12800W        W28269  14.158   1.595   1.838  0.0456 -0.1002  0.1754
12801W        W28270  17.790   1.417   6.472 -0.3153  0.3132 -0.1457
12802W        W28271   8.460   5.772   5.833 -0.1256 -0.1121  0.2524
12803W        W28272  10.097  17.999   6.027 -0.0160 -0.0718  0.4948
12804W        W28273   2.872  10.468   2.609  0.2495  0.0140  0.1405
12805W        W28274   4.176   2.654   2.157  0.0332  0.0216  0.1095
12806W        W28275   8.215   5.501   4.374 -0.1087 -0.1264 -0.1998
12807W        W28276  12.440   6.279   0.210 -0.0245  0.0806  0.0231
12808W        W28277   3.582   7.736  11.287 -0.1028 -0.0399  0.1893
12809W        W28278  13.275  17.708   0.124 -0.0990  0.0328  0.0252
12810W        W28279   7.045   9.864  13.592  0.0371 -0.1845  0.0666
12811W        W28280   5.946  14.989   0.676  0.1169  0.0317  0.3859
12812W        W28281   0.942   3.731   1.312 -0.1094  0.1269  0.0709
12813W        W28282   5.009   9.886   5.195 -0.0866  0.1496  0.0343
12814W        W28283  14.775  15.088   6.108  0.1524 -0.0504 -0.1926
12815W        W28284   7.010   8.309   6.364  0.1479 -0.0019  0.2328
12816W        W28285   8.952   1.237   4.621 -0.0502 -0.2299 -0.0192
12817W        W28286  10.134  16.979  14.121  0.0351 -0.4047 -0.0698
12818W        W28287  10.606   7.314   0.695 -0.0656  0.1334  0.2575
12819W        W28288   5.830   7.555  14.874 -0.0015  0.0548  0.0318
12820W        W28289   6.693   7.629  11.672  0.0412 -0.1026  0.1060
12821W        W28290  17.186   4.989  13.690 -0.2143 -0.0058  0.1696
12822W        W28291   7.832   1.025  11.405 -0.0245 -0.2921  0.0126
12823W        W28292   9.786   9.344   3.783 -0.0081 -0.2762  0.0817
12824W        W28293  12.014   3.297   5.610 -0.1075 -0.1590  0.0422
12825W        W28294  16.346   7.662  14.334  0.0271 -0.2553 -0.0864
12826W        W28295  17.894   7.052   1.670 -0.0140 -0.0628 -0.0026
12827W        W28296   9.061  11.406   1.790 -0.0045 -0.2229  0.1874
12828W        W28297  14.736  16.851   4.472  0.1604 -0.0016 -0.1966
12829W        W28298  16.613  13.851   4.866 -0.0842  0.1978 -0.1307
12830W        W28299   3.678   1.249  13.741 -0.2199  0.1241 -0.3178
12831W        W28300  14.273   2.550   5.690 -0.1723  0.0172  0.2179
12832W        W28301  13.089  15.517   4.805  0.0061  0.1227  0.1116
12833W        W28302  17.691   9.117   1.701 -0.4216 -0.2554  0.1301
12834W        W28303  13.747  14.412  13.516 -0.3762  0.2766 -0.4170
12835W        W28304  11.174  13.976   4.793 -0.0007 -0.0540  0.1011
12836W        W28305  17.534   6.651  10.510 -0.1188 -0.1679  0.0151
12837W        W28306  13.391   0.101  14.446 -0.3853 -0.0648 -0.0711
12838W        W28307  17.573   8.931  16.519 -0.0969 -0.0072 -0.1719
12839W        W28308  14.242   1.844  15.861  0.0871 -0.1264  0.0832
12840W        W28309   3.532  11.723  16.057  0.0936 -0.2462  0.3432
12841W        W28310  14.632  11.376  14.941  0.4364  0.1717 -0.2659
12842W        W28311   8.184  14.852   3.533 -0.1375 -0.4258  0.0378
12843W        W28312   6.019   0.201   6.402  0.1568  0.1660 -0.1082
12844W        W28313  12.561   2.566  15.964 -0.2003  0.1707  0.3708
12845W        W28314  14.740  14.399   4.214  0.1392  0.0010 -0.0449
12846W        W28315  11.048   1.946   6.978  0.0410 -0.2397 -0.1148
12847W        W28316   5.828  11.616  15.255 -0.0037  0.0950  0.1591
12848W        W28317   7.503  15.989   1.487 -0.0092  0.2433  0.0923
12849W        W28318  12.262   5.653  12.108 -0.1044  0.1099 -0.1347
12850W        W28319  14.989   6.324   0.504  0.2321 -0.2948  0.2158
12851W        W28320   7.851   2.952   3.979  0.1754  0.0380  0.1532
12852W        W28321   3.972   0.617  15.867  0.1753  0.2087 -0.0545
12853W        W28322   8.789   3.691  13.522  0.0046  0.0769  0.1460
12854W        W28323   3.177  15.165   2.178 -0.1587  0.2002 -0.0649
12855W        W28324   4.112  12.806  11.892 -0.0774 -0.0616  0.1398
12856W        W28325   2.090   7.912   2.198 -0.2249  0.2938  0.2802
12857W        W28326  14.797   7.349   1.894 -0.2067  0.0684  0.0214
12858W        W28327  11.513  17.934  14.434 -0.0037  0.2161 -0.0357
12859W        W28328  12.133   0.464  14.545  0.0465 -0.1571 -0.3978
12860W        W28329   1.343   2.146   3.429 -0.2501  0.1308 -0.0926
12861W        W28330  11.134   9.864   2.731  0.0401 -0.0815 -0.0153
12862W        W28331   9.429  11.918   4.004  0.1967  0.1271  0.1067
12863W        W28332   6.111  15.579  16.060 -0.0768 -0.0330 -0.3361
12864W        W28333   7.362   2.836   3.417  0.0596 -0.0072 -0.1196
12865W        W28334   2.655   8.254   2.648  0.0085 -0.4181  0.1219
12866W        W28335  13.251  12.549   0.521 -0.1750 -0.1229  0.0367
12867W        W28336  15.208  13.364  13.783 -0.3627 -0.0421 -0.0265
12868W        W28337   6.623   3.188   5.657  0.0821 -0.0758  0.2894
12869W        W28338  11.681  12.508   1.908 -0.1827 -0.0768  0.0618
12870W        W28339  16.495   3.742   0.182  0.2037  0.3022 -0.0956
12871W        W28340   1.134  15.388   0.577 -0.1650 -0.0317 -0.0846
12872W        W28341   1.796   8.511   0.528 -0.0221  0.0404  0.1734
12873W        W28342   5.485   0.612   3.832  0.2157  0.0138 -0.1490
12874W        W28343   3.489   2.271   0.280 -0.0092  0.3001  0.4170
12875W        W28344   8.065  14.545  11.277  0.0940  0.0432 -0.1890
12876W        W28345   1.710  15.931   3.047 -0.1578 -0.1025  0.0305
12877W        W28346  15.058  10.523  12.738 -0.1533  0.1910  0.0116
12878W        W28347   1.064  16.398   3.507  0.1609  0.0577  0.1734
12879W        W28348   1.365   1.171  12.993 -0.0781 -0.0859 -0.1431
12880W        W28349  12.038   0.439   0.347  0.1899  0.3246 -0.0738
12881W        W28350   2.402   6.774   3.859 -0.1565 -0.0987 -0.1096
12882W        W28351  14.458  12.965   2.600 -0.3971 -0.0098 -0.0554
12883W        W28352  12.416   3.113  14.296  0.1039  0.1768 -0.0597
12884W        W28353   8.450   5.717  10.540 -0.2128 -0.0158 -0.3652
12885W        W28354  11.960  17.461  16.090  0.1696  0.2079  0.1764
12886W        W28355  10.796  17.682  12.908  0.0861  0.2285 -0.0149
12887W        W28356   9.928  12.856   0.340 -0.0457 -0.0686  0.0579
12888W        W28357  14.538  15.865  15.749 -0.0519 -0.1389  0.0189
12889W        W28358   1.101   8.365   1.496 -0.0638 -0.2295  0.0551
12890W        W28359  12.661   1.783   4.441 -0.2611 -0.2007 -0.0576
12891W        W28360   5.494  12.634  12.242  0.0722 -0.3167  0.4357
12892W        W28361   6.397   6.248  13.094 -0.1433  0.1341  0.1124
12893W        W28362  12.798   8.665  11.453 -0.1709 -0.2332  0.0119
12894W        W28363  15.546   9.574   0.116 -0.1138  0.2036  0.1771
12895W        W28364  13.850   6.305  10.916 -0.1768 -0.1011  0.1400
12896W        W28365  12.523   3.242   2.564  0.2941  0.1669 -0.0024
12897W        W28366   7.336   7.562  13.243  0.1787  0.0163 -0.0407
12898W        W28367   2.998  13.561  15.184 -0.3769 -0.1326  0.0254
12899W        W28368  12.671  13.606  13.976 -0.0058 -0.1061  0.1926
12900W        W28369  16.633  10.531   0.879 -0.1508 -0.0311 -0.1363
12901W        W28370  14.433   0.745   5.752  0.0750 -0.3344 -0.1508
12902W        W28371   3.160   1.860   4.781 -0.1361 -0.0081  0.0276
12903W        W28372   7.438   3.289  16.538 -0.1631 -0.0394  0.1018
12904W        W28373  11.666   2.970   0.537  0.1134  0.0272  0.3426
12905W        W28374   2.453   6.769   2.608  0.0129  0.0157  0.0445
12906W        W28375   9.592   9.619  14.901  0.1994 -0.1676  0.0039
12907W        W28376   8.764   1.445   5.461 -0.1558  0.2894  0.1283
12908W        W28377  16.697  10.067  14.415  0.3204  0.0607  0.0156
12909W        W28378   5.576   6.512  11.346 -0.2187 -0.1818 -0.2540
12910W        W28379   0.488  16.074  16.038  0.1024 -0.2492 -0.1985
12911W        W28380   4.928  10.712  15.554 -0.1491  0.0249 -0.0667
12912W        W28381   8.536   4.698   3.535  0.4169  0.2895 -0.0450
12913W        W28382  10.181   2.414  14.821  0.2984  0.0405 -0.1698
12914W        W28383   7.675  15.964  12.436  0.2386  0.3892  0.1223
12915W        W28384   2.895   6.063  13.455  0.0271  0.0104  0.2664
12916W        W28385  14.397   4.683   1.533  0.3182  0.0233  0.5098
12917W        W28386  16.674   0.247   1.700  0.2146 -0.0161  0.2985
12918W        W28387   8.591   2.576  14.365  0.1365  0.0459  0.1452
12919W        W28388   8.213   8.674  15.620  0.1259  0.1018  0.1398
12920W        W28389   4.736  13.941   2.223  0.2342 -0.0582 -0.1173
12921W        W28390   9.113  14.554   5.455 -0.0634  0.0232 -0.1348
12922W        W28391   9.920  14.966   2.041 -0.0446  0.3361  0.0003
12923W        W28392   9.970   0.397  13.772 -0.2630 -0.0703 -0.1935
12924W        W28393  12.399   2.356   2.649  0.2855 -0.0567 -0.5631
12925W        W28394  17.928  13.542  11.436  0.0697 -0.1768 -0.0601
12926W        W28395  16.054   7.616  11.533 -0.2976  0.0838  0.0158
12927W        W28396   0.032  11.403   3.776  0.0854 -0.0295  0.1441
12928W        W28397   2.995   3.239  14.563  0.2408  0.0983 -0.0480
12929W        W28398  15.575   7.193  11.188  0.0335  0.0412 -0.2325
12930W        W28399  15.194   9.146   2.045  0.0252  0.1479  0.1890
12931W        W28400   5.484  15.216   0.561  0.5408  0.0755  0.2707
12932W        W28401   7.674  15.640   4.839  0.1490  0.0549 -0.0639
12933W        W28402   6.561  12.843   4.060  0.0646  0.0157  0.1683
12934W        W28403  16.647   8.065   1.345 -0.1261 -0.1106  0.1122
12935W        W28404   7.956   3.789  15.005 -0.2221  0.2106  0.2641
12936W        W28405   8.267   7.796  12.816  0.1075 -0.1145 -0.1550
12937W        W28406   8.661   0.754  12.426  0.0035  0.0936 -0.2732
12938W        W28407  15.047  16.115   0.221  0.0221 -0.0018 -0.1003
12939W        W28408   7.941  16.872  11.344  0.1497 -0.3002 -0.2604
12940W        W28409  16.412   7.679   1.836  0.1222 -0.3557  0.0033
12941W        W28410  16.034  10.425   4.534  0.0539  0.2611  0.0928
12942W        W28411  12.694   0.372  13.350  0.2313  0.0647 -0.2750
12943W        W28412   3.438   0.238  14.597  0.2083  0.1054 -0.1137
12944W        W28413   4.701   9.083  11.862 -0.1674 -0.0143  0.2969
12945W        W28414  16.884  12.128  16.311  0.1224 -0.2581  0.3409
12946W        W28415   7.260   4.230  16.470  0.0816  0.2457 -0.1213
12947W        W28416   8.709   7.752   3.013  0.2363 -0.1007  0.2204
12948W        W28417  17.427   6.221   4.264 -0.3335  0.1244  0.2097
12949W        W28418  15.176   0.662  13.735  0.2740 -0.0169  0.2655
12950W        W28419  12.754   4.658  15.712  0.2533  0.0666  0.2417
12951W        W28420   0.434  10.028   1.403 -0.0773 -0.0039 -0.0864
12952W        W28421  13.744   7.951   5.394  0.1291  0.2907  0.1707
12953W        W28422   0.753   9.791   1.054 -0.0471  0.2705  0.1681
12954W        W28423  12.559   8.120   4.090 -0.1437 -0.0745  0.0813
12955W        W28424  14.481  13.425   5.545  0.0198 -0.1798  0.0438
12956W        W28425   2.540  16.610  14.237 -0.1325 -0.1057 -0.0480
12957W        W28426  15.106   2.092   0.745 -0.0744  0.1267 -0.0144
12958W        W28427   4.298   6.537  16.153  0.2369 -0.0007 -0.1351
12959W        W28428   7.910  11.973  16.507 -0.1397 -0.1474 -0.3296
12960W        W28429   3.392  17.194  12.448  0.3298 -0.0969 -0.1310
12961W        W28430   6.080   6.539   4.256 -0.0199  0.0228 -0.2523
12962W        W28431  15.252   2.527  14.830  0.2242 -0.2424 -0.1907
12963W        W28432   0.412  14.527   1.424 -0.0713 -0.1093  0.0226
12964W        W28433   5.516   9.460   3.476  0.0629 -0.2292 -0.1310
12965W        W28434  14.694  16.990  11.801  0.0750  0.1983  0.0335
12966W        W28435   4.222   7.070  13.349 -0.2114 -0.2250  0.2937
12967W        W28436  13.191  12.268  14.014 -0.0047 -0.1061 -0.0658
12968W        W28437  11.941   4.463  11.594  0.0473  0.1447  0.1774
12969W        W28438   5.456   3.225  15.348  0.2052  0.1157  0.0482
12970W        W28439  16.874   3.338   4.341  0.3588 -0.4313 -0.0009
12971W        W28440   0.181  13.634   3.665 -0.1329  0.3063  0.1718
12972W        W28441  13.537  12.980  12.817  0.2126 -0.0726  0.1812
12973W        W28442  16.971  15.804  13.663 -0.1848 -0.0310 -0.0250
12974W        W28443  13.161   2.929   2.502  0.0839 -0.0395  0.2064
12975W        W28444  15.790  10.217   4.913  0.1192 -0.2258 -0.3636
12976W        W28445   8.847  16.416  13.380  0.3433  0.1991 -0.0884
12977W        W28446   6.468  15.906   2.666 -0.2584  0.1091  0.3111
12978W        W28447   9.507   4.517   3.538  0.3243 -0.2157  0.0147
12979W        W28448   1.608   7.875   2.643  0.2112  0.0715  0.3346
12980W        W28449   9.056  10.793  15.606 -0.3016 -0.0491  0.0724
12981W        W28450   2.022   9.278  11.429 -0.0598  0.0270  0.2890
12982W        W28451  13.216  11.401   3.974  0.0169  0.2268 -0.0445
12983W        W28452  15.431   7.377  13.217  0.2752 -0.4062  0.2601
12984W        W28453  10.762   4.508   2.218 -0.0458 -0.0641  0.3386
12985W        W28454   8.809  11.450  13.775 -0.1412  0.2126  0.0156
12986W        W28455   9.548  15.781  14.193 -0.1933  0.2242 -0.1254
12987W        W28456  11.612   0.021  13.903  0.2683  0.1354  0.2781
12988W        W28457   8.781  16.588   0.147 -0.4748 -0.1254 -0.0967
12989W        W28458  13.142  15.400   6.004 -0.3322  0.0228 -0.0254
12990W        W28459   3.890  13.185  12.754  0.1739 -0.0306  0.4032
12991W        W28460  11.877  14.943   1.174 -0.1337  0.3282  0.0097
12992W        W28461   5.886   4.210  13.963 -0.3189 -0.2165 -0.4561
12993W        W28462  16.787  17.978   4.351 -0.0963  0.0711 -0.1291
12994W        W28463  11.240  14.925  12.283 -0.0799 -0.1427 -0.3084
12995W        W28464  15.701   4.924   1.911  0.4099  0.0967  0.0012
12996W        W28465  15.753  12.981  16.003  0.0085 -0.2255  0.0283
12997W        W28466   8.053   5.247   5.252 -0.3881  0.2615  0.1900
12998W        W28467   5.713  15.386   5.291 -0.1146  0.3088 -0.2917
12999W        W28468   1.684   2.792  12.761  0.0009 -0.0641 -0.2578
13000W        W28469   5.493  10.066  13.421  0.3960 -0.1999 -0.1180
13001W        W28470   9.629  17.818  15.432 -0.1963 -0.0115  0.2597
13002W        W28471  13.307   1.362   2.908  0.0056  0.4502  0.1070
13003W        W28472  16.171   8.210   3.827  0.3128 -0.1493 -0.4167
13004W        W28473   9.632  12.933  13.289 -0.3026 -0.0296 -0.0849
13005W        W28474   9.679   9.117  16.276  0.0136  0.0179 -0.1637
13006W        W28475   9.536   6.902  11.630 -0.1877  0.0340  0.0509
13007W        W28476   4.978  16.183   0.383  0.0611 -0.0393  0.1974
13008W        W28477   0.109   1.557   4.482 -0.1589 -0.2247 -0.0326
13009W        W28478  12.077  15.906   1.258  0.0886  0.0685  0.3000
13010W        W28479  16.295  11.911  13.659 -0.2215  0.0685 -0.1500
13011W        W28480   4.913   0.457   6.445 -0.0901  0.0108  0.2817
13012W        W28481   7.894   0.860   3.363  0.1466 -0.1525 -0.0662
13013W        W28482  14.237   5.078  12.340 -0.2422  0.0790 -0.0415
13014W        W28483  16.781   1.709   3.387  0.2421 -0.1176  0.1336
13015W        W28484   6.124   0.598  12.170  0.1182  0.0737  0.3474
13016W        W28485   3.713  13.692  12.126  0.1574  0.0874  0.3682
13017W        W28486   6.551  15.270   0.433 -0.1910 -0.1254 -0.3880
13018W        W28487  10.443   2.048   3.777 -0.0121  0.3567  0.4126
13019W        W28488   5.898   6.560   1.444  0.3358 -0.0160  0.0457
13020W        W28489  17.489  13.338  15.386 -0.2801  0.0896  0.0217
13021W        W28490  10.270  17.872   4.948 -0.0635  0.1154 -0.1655
13022W        W28491  14.879   1.382  14.204 -0.3130  0.3198 -0.0606
13023W        W28492   5.727   2.113   0.369  0.1229  0.1334 -0.0443
13024W        W28493  16.878  13.473   0.268 -0.0351 -0.3527 -0.0999
13025W        W28494   7.077   5.516   1.702  0.1895 -0.0204 -0.0283
13026W        W28495  13.789   5.742   3.902 -0.0293  0.2304  0.1821
13027W        W28496   9.894   8.282   3.878  0.0229  0.1021  0.3686
13028W        W28497   5.746   2.280  13.013 -0.0781 -0.3667  0.3727
13029W        W28498   7.250   4.835   4.147  0.2028  0.1287  0.0420
13030W        W28499  13.781  10.936  13.508 -0.2904  0.2715  0.2204
13031W        W28500  12.130  14.787   4.776 -0.2141 -0.0338  0.0777
13032W        W28501   7.622  12.615   2.597 -0.0775  0.0215 -0.0518
13033W        W28502   4.598   9.767   2.151  0.0805 -0.0024 -0.1458
13034W        W28503   2.247   9.131  13.775 -0.0584  0.0933  0.0576
13035W        W28504  11.304   3.715  15.018  0.1448  0.0303 -0.0300
13036W        W28505   5.602  11.813   1.288 -0.2514  0.2312  0.0941
13037W        W28506  13.814   1.284   5.283 -0.1811  0.2711 -0.1456
13038W        W28507  12.764  16.762   2.209 -0.3391  0.0426 -0.0093
13039W        W28508   6.674   1.168   0.852 -0.0845  0.0349 -0.0970
13040W        W28509   9.028   0.400  15.744  0.1387 -0.1025 -0.0514
13041W        W28510  13.853   3.877   4.674  0.0935 -0.0991 -0.2015
13042W        W28511   9.132   6.554  16.160  0.0107  0.4087 -0.0344
13043W        W28512   0.918   3.284  12.571 -0.1294  0.2102 -0.1740
13044W        W28513   6.120  17.080  12.349 -0.2182  0.0752 -0.1031
13045W        W28514  10.126  10.042   4.982 -0.2102 -0.0544 -0.1979
13046W        W28515   5.522  13.238  14.723  0.2092  0.3147  0.1393
13047W        W28516  14.113  15.809  15.429  0.0227 -0.3138 -0.0455
13048W        W28517  16.021   1.177   3.048 -0.4572  0.0548  0.0453
13049W        W28518   0.690   4.095   1.606  0.1577  0.2667 -0.1013
13050W        W28519  17.914   6.633  14.859 -0.1804 -0.0298 -0.2199
13051W        W28520   0.624  15.347  11.045  0.0050  0.2519  0.1470
13052W        W28521  17.837  15.361   0.587  0.3189 -0.1108 -0.0781
13053W        W28522   0.186  16.717  12.197 -0.0111 -0.0503  0.2075
13054W        W28523   4.186  12.783  16.418  0.3329 -0.1479  0.0888
13055W        W28524  11.012  12.706   0.635  0.1428  0.0204  0.3109
13056W        W28525   0.586   7.500  14.202  0.0118  0.0744  0.0114
13057W        W28526  15.542  13.984   0.469 -0.1120 -0.2295  0.0290
13058W        W28527  11.635   3.515   4.919 -0.1569  0.1342  0.2797
13059W        W28528   3.154   6.081  14.664  0.0079 -0.1647  0.0185
13060W        W28529   7.537  13.472  12.455 -0.3008 -0.1786  0.0831
13061W        W28530  15.453  15.274   4.730  0.0963 -0.2661  0.0029
13062W        W28531   6.462   5.746   5.455 -0.0351 -0.0228  0.0197
13063W        W28532  13.891  11.569  15.064  0.2672 -0.2668  0.2002
13064W        W28533  13.065  13.927   3.177 -0.0269  0.0715 -0.0671
13065W        W28534  17.914  14.484  12.338 -0.0444 -0.3142  0.0302
13066W        W28535   4.338  16.881  13.620  0.2701  0.1936 -0.4326
13067W        W28536  11.628  15.643   4.682  0.1299 -0.2612 -0.3407
13068W        W28537   1.025  14.789  15.959 -0.0065 -0.0095 -0.0003
13069W        W28538   0.075   8.187   1.174  0.1357  0.0376 -0.0110
13070W        W28539   1.399   4.577   3.140 -0.1168  0.2406  0.2556
13071W        W28540   6.056  14.858  16.447  0.0929 -0.1118  0.2942
13072W        W28541  14.950  10.874  11.780  0.1828  0.0890 -0.1337
13073W        W28542  16.857  10.887  12.968 -0.0492  0.4197 -0.2288
13074W        W28543   9.176  14.917  12.531  0.1419  0.2447 -0.1625
13075W        W28544  14.495  13.384  14.143  0.3790 -0.2725  0.0222
13076W        W28545   3.485  16.719  16.375 -0.3045 -0.1140 -0.0025
13077W        W28546  14.655   4.971  13.438 -0.2765  0.0270 -0.0298
13078W        W28547   6.112   6.167   1.060 -0.0441  0.1290  0.0284
13079W        W28548  15.233  13.320   4.905 -0.0955  0.0140  0.0719
13080W        W28549   2.380   2.546   2.464 -0.0464  0.0285  0.0223
13081W        W28550  11.129   5.365  15.053  0.1032 -0.0493 -0.1022
13082W        W28551  16.440   8.847  13.709  0.2263  0.1416  0.1339
13083W        W28552   2.149   8.231   4.833  0.1687 -0.3092  0.0879
13084W        W28553   1.864  16.780  12.612 -0.2530  0.1706 -0.0786
13085W        W28554   9.448  12.908   0.087 -0.0075 -0.0307 -0.1277
13086W        W28555  15.238   4.454   4.598  0.1068  0.1657 -0.2415
13087W        W28556  13.324   5.251   4.226  0.3064  0.0319  0.2620
13088W        W28557   6.806   5.533  16.337  0.0560  0.1007  0.2376
13089W        W28558   2.262  13.358   2.404  0.1285  0.2140  0.1099
13090W        W28559  15.934  16.816  16.126 -0.1312 -0.0594 -0.3355
13091W        W28560   8.480  17.780  15.416  0.0108 -0.1752  0.0990
13092W        W28561  11.266  11.464   6.530 -0.1784 -0.3492  0.0116
13093W        W28562  11.324  14.776  13.815 -0.0032  0.2293 -0.0180
13094W        W28563   6.595   6.805  13.790  0.0401 -0.1411 -0.2345
13095W        W28564  12.917   3.654   3.834  0.1150  0.0416  0.0680
13096W        W28565  17.926   5.743   4.453 -0.0517  0.4114 -0.0314
13097W        W28566  15.465  10.034  16.529  0.0693 -0.0411 -0.2396
13098W        W28567  12.801  12.032   1.352 -0.2071 -0.1154 -0.0871
13099W        W28568  14.938  16.722   3.170 -0.2180  0.0782 -0.0421
13100W        W28569   1.113  16.524  15.004 -0.2204 -0.1759 -0.0095
13101W        W28570  14.996  14.499  14.327  0.0090  0.2185 -0.0959
13102W        W28571  15.992   4.604  12.986  0.2028  0.3006 -0.2522
13103W        W28572  15.333   5.060   2.293  0.3049  0.0364  0.0267
13104W        W28573   9.236  10.573  16.099 -0.1993 -0.0490  0.0972
13105W        W28574  15.348   0.179  14.078 -0.0813  0.0478  0.3948
13106W        W28575   1.461   8.183  10.844 -0.4677  0.1432  0.0295
13107W        W28576   1.312   1.264  12.174 -0.0607  0.0514  0.2823
13108W        W28577  15.288  17.501   3.521  0.3149 -0.1995 -0.3050
13109W        W28578  11.489  17.692   0.812 -0.0448 -0.1272  0.0228
13110W        W28579   9.206  12.007   5.012  0.2657 -0.3773 -0.1900
13111W        W28580  12.316   8.259  14.887  0.2422 -0.4516  0.1057
13112W        W28581  16.607  13.800  13.623 -0.1920  0.3348 -0.1612
13113W        W28582   9.471   3.009  11.957  0.0869 -0.1210  0.1265
13114W        W28583  13.464  15.188  15.792  0.0797  0.1845  0.1772
13115W        W28584  15.898   5.122   1.109 -0.0203  0.0032  0.1917
13116W        W28585   9.308  13.463   2.784  0.0430  0.1603 -0.1537
13117W        W28586  11.199   7.160   0.450 -0.0520 -0.0806  0.0562
13118W        W28587   3.665  14.288  14.896  0.1283  0.1980  0.0080
13119W        W28588   4.135   0.206  11.197 -0.1228  0.1775  0.0374
13120W        W28589  13.458  10.022   0.473 -0.1374 -0.2863 -0.1496
13121W        W28590  13.984  11.511   0.474 -0.1334 -0.0052 -0.0859
13122W        W28591  13.555  11.071   5.220  0.2106  0.2438  0.1614
13123W        W28592   6.194   2.801   3.996  0.4961  0.2739 -0.1731
13124W        W28593  17.723   9.888   2.857 -0.2657 -0.2100 -0.0842
13125W        W28594  14.656   2.618   2.546  0.2173  0.1280 -0.0289
13126W        W28595  15.644  10.416  11.057 -0.0423 -0.1066  0.0067
13127W        W28596   3.827  17.043  13.804 -0.2258 -0.1624 -0.5580
13128W        W28597  10.869  10.598   4.440  0.1856  0.1951 -0.1076
13129W        W28598   5.102   0.340   3.558 -0.0464  0.0495 -0.1548
13130W        W28599   6.699   6.559   0.395  0.1259  0.0081 -0.2108
13131W        W28600   3.465   8.403  15.681 -0.1389  0.0140  0.0336
13132W        W28601  17.768  12.420   3.247 -0.1798 -0.1298 -0.1430
13133W        W28602   1.661   6.898   1.416 -0.0076  0.0036 -0.1739
13134W        W28603  15.959   4.191   4.206  0.1183 -0.1532 -0.3809
13135W        W28604   6.189  16.452   1.923 -0.0015  0.1657 -0.2957
13136W        W28605   9.421   1.192   4.760  0.1372 -0.2728  0.0114
13137W        W28606   1.209  15.157   2.784 -0.1169 -0.2053 -0.2136
13138W        W28607  17.176   3.524  14.047  0.1957 -0.0837  0.0559
13139W        W28608  16.233   0.504   3.782 -0.0276  0.1373 -0.0743
13140W        W28609   1.973   7.116  13.063 -0.2605  0.1393 -0.0164
13141W        W28610  16.105  13.985  12.290 -0.3066  0.0616  0.0544
13142W        W28611   2.490  16.048  13.411  0.0619 -0.1301 -0.1535
13143W        W28612   4.594  13.247   4.878 -0.4164 -0.0058 -0.1991
13144W        W28613  11.666  14.217  12.727 -0.2329  0.0576  0.0252
13145W        W28614  16.974  15.989  11.824 -0.0084 -0.0264 -0.1444
13146W        W28615   7.171   5.061  16.154 -0.1429 -0.2778  0.1254
13147W        W28616  10.906   5.436  12.004  0.2023  0.2894  0.0486
13148W        W28617  15.157  13.837   4.818 -0.2095  0.0079  0.0822
13149W        W28618   0.635  16.678  14.417 -0.3928  0.0826  0.3408
13150W        W28619   3.523  15.728  13.213  0.2688 -0.1371  0.3121
13151W        W28620  15.453   0.070   3.365 -0.2128 -0.1356  0.1972
13152W        W28621   6.149   4.014   2.235  0.1690 -0.4946  0.1310
13153W        W28622   0.118  15.283   2.247 -0.5404  0.0519  0.0223
13154W        W28623   1.849   6.850   5.151 -0.0076  0.1342  0.0222
13155W        W28624   2.664   7.056   1.316 -0.0113  0.3795  0.1326
13156W        W28625  15.976  12.775   0.745  0.0263  0.2485  0.1389
13157W        W28626   0.180  14.268  15.503  0.2211  0.1651  0.1718
13158W        W28627   8.114   9.451   3.413  0.0546 -0.1759  0.0486
13159W        W28628  12.954   0.568  16.278  0.0644 -0.0268  0.0667
13160W        W28629   1.219  17.650   0.833  0.0149 -0.3609  0.0759
13161W        W28630   3.804   7.970  14.358  0.0022  0.3028 -0.1761
13162W        W28631  11.767  13.234   4.344 -0.0974 -0.1207  0.2136
13163W        W28632  12.954  16.352   5.613 -0.0216 -0.0199  0.0728
13164W        W28633  15.523   3.566   4.618  0.1382  0.1057 -0.2516
13165W        W28634   3.890   1.839   0.822 -0.1735 -0.3294 -0.2088
13166W        W28635  12.010   7.674   3.225 -0.3011 -0.0963 -0.0040
13167W        W28636   8.254  14.468  14.889  0.0558  0.0284 -0.2293
13168W        W28637   6.934   6.542  12.904 -0.0393  0.0484 -0.1694
13169W        W28638   6.675  10.386  12.924 -0.2272 -0.0943 -0.0687
13170W        W28639  10.725  16.687   0.368  0.0094  0.1235 -0.0354
13171W        W28640  16.072   9.841   2.587  0.0283 -0.1405  0.2188
13172W        W28641   6.031   9.444  14.541 -0.0478 -0.1719 -0.0819
13173W        W28642  15.992  17.693   3.779 -0.0295 -0.2342  0.2285
13174W        W28643  13.728   6.276  14.691 -0.1745  0.3171  0.2097
13175W        W28644   8.701  16.761   5.198 -0.2065 -0.1396 -0.1158
13176W        W28645   4.061  12.886   2.407 -0.1576  0.0075  0.3972
13177W        W28646   0.224  12.482  16.014 -0.1365  0.4593  0.2423
13178W        W28647  11.270  16.436  15.755 -0.0717  0.0278  0.1210
13179W        W28648   7.564   6.124   4.411 -0.2593  0.3214  0.1802
13180W        W28649   8.390   2.269  14.739 -0.2690 -0.0756  0.2040
13181W        W28650   1.740  15.126  12.013  0.0511 -0.1457 -0.1360
13182W        W28651   1.855  10.508   4.499  0.5193  0.0419  0.0265
13183W        W28652   1.002  12.660   1.589 -0.0759  0.1527  0.2648
13184W        W28653   0.904   6.749   0.398  0.2718 -0.2931 -0.1236
13185W        W28654   1.969   0.110   1.919  0.1019  0.0055  0.1987
13186W        W28655  10.817  15.159   2.768  0.4090  0.1340  0.1334
13187W        W28656   4.399   1.300  13.431 -0.0840 -0.2712  0.1457
13188W        W28657  10.902   4.535  14.549  0.0742 -0.2828  0.0295
13189W        W28658  12.996   7.552  11.100  0.2188 -0.1634  0.1033
13190W        W28659   7.294   6.757  13.961 -0.0080  0.1482  0.0635
13191W        W28660  17.119   9.797  14.384  0.0861 -0.0123  0.0328
13192W        W28661   3.725  17.012   3.329 -0.0052 -0.0842  0.2128
13193W        W28662   3.600   1.060   2.960 -0.3529  0.0136 -0.0042
13194W        W28663  14.598   2.864  13.980 -0.0670 -0.0939  0.1595
13195W        W28664  13.568   3.925   0.691 -0.2670  0.2361 -0.0530
13196W        W28665   8.273   1.828   3.517  0.0512  0.0239  0.0914
13197W        W28666   6.055  11.955  16.440  0.1469  0.1151  0.0136
13198W        W28667   1.854  11.454   4.892  0.1437 -0.2277  0.0618
13199W        W28668   3.113  14.934  11.586 -0.1905  0.0646 -0.0466
13200W        W28669  15.655  12.784   1.615 -0.0554  0.1481 -0.0618
13201W        W28670   8.856   0.027  14.012  0.2049 -0.1675  0.0905
13202W        W28671   2.263   5.175  15.295  0.0867  0.1354  0.0191
13203W        W28672   1.237   5.286  11.934  0.1411  0.3255 -0.2134
13204W        W28673   2.725   4.707   0.508 -0.1937  0.2164 -0.0742
13205W        W28674   9.735   1.622  16.387 -0.1060 -0.0922 -0.3407
13206W        W28675  17.120  13.501  14.871 -0.1567 -0.0428  0.1335
13207W        W28676   5.931  14.550   2.832 -0.1863 -0.1179  0.0196
13208W        W28677   1.228   0.803   0.033  0.0658 -0.1838 -0.0426
13209W        W28678   9.474   7.276  11.292  0.2204  0.0258 -0.0725
13210W        W28679  11.736   9.581   4.964  0.1532 -0.0171  0.4386
13211W        W28680  10.045   9.041   2.832  0.3108 -0.0976 -0.0454
13212W        W28681  17.205  15.302   4.757 -0.0910  0.1158  0.0407
13213W        W28682  12.269   2.610   3.185  0.2506  0.2902 -0.0351
13214W        W28683  11.416   3.763  14.534 -0.0658  0.0011  0.0554
13215W        W28684  16.034   9.252   2.712 -0.2636  0.3300  0.4617
13216W        W28685  11.006  16.284   0.172  0.3623 -0.4043 -0.1916
13217W        W28686  11.312   0.080   0.562 -0.0864  0.1082 -0.0566
13218W        W28687  12.663   5.431   2.867 -0.1528  0.1484  0.0341
13219W        W28688   5.208   8.510  10.803 -0.0362 -0.0273  0.0326
13220W        W28689   3.473  12.174  11.680  0.2535 -0.0783  0.0813
13221W        W28690  14.841  17.473   0.986 -0.1829 -0.0532  0.0956
13222W        W28691   0.475  12.924   5.395  0.1887 -0.1023 -0.0006
13223W        W28692  11.662  15.515  13.177  0.0385 -0.1950  0.0212
13224W        W28693   9.669   7.938   4.977  0.0927 -0.2339 -0.0008
13225W        W28694  10.096   5.661   1.567  0.1729 -0.0764  0.2281
13226W        W28695   3.046   5.734  13.907 -0.0937  0.0073 -0.1129
13227W        W28696  12.032   6.542  15.830  0.2072  0.1582  0.0066
13228W        W28697  13.681  10.830  12.874 -0.0018 -0.0257 -0.1412
13229W        W28698   2.671  11.544  15.430  0.2287  0.1965 -0.1478
13230W        W28699   9.852   4.544   3.979  0.0099 -0.0456  0.0841
13231W        W28700   1.661   5.952  14.062 -0.0888  0.2177 -0.0048
13232W        W28701  12.198   3.498  15.682  0.1387 -0.0794 -0.0298
13233W        W28702  10.834   4.812   5.811 -0.0226 -0.0877  0.1184
13234W        W28703  11.199  14.242   3.716 -0.1001 -0.0961 -0.0660
13235W        W28704  12.274   9.571   5.050 -0.2249 -0.1373  0.0524
13236W        W28705   3.267  10.780  14.919  0.1358  0.1921  0.0537
13237W        W28706  17.982   6.871   0.387  0.1855  0.1098  0.1442
13238W        W28707   5.693   3.305  14.283  0.4045  0.3355 -0.0614
13239W        W28708   9.319   3.767  14.257 -0.1789  0.1409 -0.1083
13240W        W28709  14.803   9.120   3.874  0.1077 -0.1464 -0.2204
13241W        W28710  10.075  13.344  11.473  0.2354 -0.1325 -0.2967
13242W        W28711   3.255   6.622  13.170  0.2042  0.3645 -0.0073
13243W        W28712   9.982   5.687  12.153 -0.2878 -0.0562 -0.2578
13244W        W28713   0.387   4.166  15.152  0.0563  0.3036  0.2120
13245W        W28714  10.551  10.738  13.913  0.1833 -0.2408 -0.0685
13246W        W28715  11.175   0.943   0.403  0.0665  0.0479  0.2173
13247W        W28716  12.153  17.956  15.996 -0.1259  0.1785 -0.0036
13248W        W28717  15.939  11.275   2.640  0.0350  0.2524 -0.5408
13249W        W28718  16.764   9.325  10.401  0.0946 -0.1627  0.1179
13250W        W28719   6.162   0.178   4.529  0.2423  0.2914  0.1283
13251W        W28720  13.073  15.919   1.147  0.2242 -0.3975  0.0216
13252W        W28721  10.040  17.244   0.213 -0.0043  0.0918  0.2116
13253W        W28722  15.533  12.537   4.567 -0.3088 -0.1395  0.1595
13254W        W28723   5.761  11.991  11.591 -0.1957  0.4465  0.0925
13255W        W28724   9.182   6.253  12.482  0.1421 -0.1668  0.1320
13256W        W28725   8.173  14.456   3.073 -0.0296  0.2087 -0.2807
13257W        W28726  11.233   9.859   1.836 -0.1301 -0.0908  0.2699
13258W        W28727   1.314   4.542   0.970 -0.2291  0.1134 -0.0812
13259W        W28728   3.764  17.543   1.972 -0.0397  0.4645  0.1604
13260W        W28729   1.425   6.343  14.258  0.1730  0.2011 -0.1052
13261W        W28730  10.126   2.697  15.217  0.0915  0.1131 -0.0547
13262W        W28731   9.982   4.892  14.868 -0.2266  0.1439  0.1556
13263W        W28732   8.776  13.364   5.600 -0.1861  0.0164 -0.1348
13264W        W28733  15.791   3.744  11.598  0.0206  0.0381 -0.0506
13265W        W28734   3.032  11.193   4.070  0.0270 -0.1379  0.1091
13266W        W28735   4.019  17.531  16.075  0.1029 -0.2213 -0.1200
13267W        W28736  11.344  14.433   5.042 -0.1470 -0.2289 -0.0985
13268W        W28737  12.102   0.814  13.602 -0.0335 -0.0731 -0.0365
13269W        W28738   4.716  15.814   0.240 -0.3038  0.1240 -0.0434
13270W        W28739   6.550   8.944  12.272 -0.1063  0.2703  0.1881
13271W        W28740   2.013   8.197  14.701  0.1714  0.3314  0.1342
13272W        W28741  14.646  11.228  12.093 -0.0769 -0.0346 -0.1736
13273W        W28742  17.085  16.727   3.668 -0.1914 -0.0974 -0.2352
13274W        W28743   2.176  12.602  13.917  0.1288  0.0421 -0.1532
13275W        W28744  13.758   9.430   9.900  0.0723 -0.0345  0.0118
13276W        W28745   2.746   4.345  11.918 -0.0160  0.2319 -0.0858
13277W        W28746   8.958   5.165   4.906  0.0071 -0.0561 -0.1079
13278W        W28747   9.034   2.541   3.624  0.2152 -0.0763  0.0859
13279W        W28748   3.026   6.716   2.438 -0.0457  0.2045 -0.0898
13280W        W28749  17.780   5.339   4.751  0.1375  0.0482 -0.1108
13281W        W28750   5.391  13.888  13.206 -0.2128  0.0117 -0.1626
13282W        W28751  15.029   9.635  14.129  0.0517 -0.2222 -0.2674
13283W        W28752   1.697   3.406  14.763  0.0613 -0.1198 -0.2499
13284W        W28753   9.674   9.883   3.760  0.3067 -0.0418 -0.1639
13285W        W28754   8.652  10.008  12.627  0.1665  0.1525 -0.2554
13286W        W28755  10.226  10.363  14.232 -0.0239 -0.3119  0.2654
13287W        W28756  14.060  10.844  15.661 -0.2229  0.1500  0.2652
13288W        W28757  17.095   4.222   0.873 -0.0637  0.1209  0.3453
13289W        W28758   5.008  14.163  16.017 -0.2285  0.2694  0.1874
13290W        W28759  15.580   1.035   2.796  0.0311  0.1168 -0.2362
13291W        W28760   7.090  15.084  13.284 -0.0027 -0.1162 -0.1272
13292W        W28761  16.523  13.201  13.741 -0.2147 -0.1712  0.1219
13293W        W28762  17.902   0.959  14.491 -0.0501 -0.0060  0.0389
13294W        W28763   2.173   1.908   3.594 -0.1979 -0.1212  0.0486
13295W        W28764  10.236   7.435  12.709  0.0406  0.3627  0.0135
13296W        W28765   2.349  14.540  12.195  0.0168 -0.2927 -0.0546
13297W        W28766  11.446   6.925   3.495 -0.0782 -0.3823 -0.0290
13298W        W28767   9.031  10.299  11.577  0.3569 -0.3196  0.0703
13299W        W28768  17.735  10.632  16.524  0.0482 -0.0610  0.1510
13300W        W28769  16.711   6.069  10.740 -0.0246  0.1557  0.1360
13301W        W28770  10.966   8.000  14.607 -0.1665 -0.2057 -0.1702
13302W        W28771  13.681   6.678   4.200  0.0580 -0.0566  0.1311
13303W        W28772  13.778   0.912   2.182 -0.0625 -0.0560 -0.1522
13304W        W28773  14.090  10.531  13.415 -0.1988  0.1396  0.1433
13305W        W28774   3.226   1.524  11.986  0.1192  0.1229 -0.1950
13306W        W28775   4.386  17.880  14.488  0.0279  0.3104  0.0584
13307W        W28776   2.942   8.507  14.680 -0.1929 -0.0513 -0.0644
13308W        W28777   4.944  16.509  11.791  0.1550  0.4057 -0.1287
13309W        W28778   0.818   4.658   1.034  0.2585  0.1790  0.1285
13310W        W28779   4.486  13.386   0.329 -0.3677 -0.3927 -0.0408
13311W        W28780  12.608  14.804   4.605 -0.1922  0.0373 -0.0709
13312W        W28781   5.839  17.052   1.109  0.0414  0.0443 -0.1358
13313W        W28782  15.633   5.412  10.664 -0.0061 -0.1231  0.2927
13314W        W28783   1.586  15.485  15.747  0.0778  0.1435  0.0780
13315W        W28784  15.721   8.193   9.427  0.1471  0.2610  0.1784
13316W        W28785   3.530  10.638   1.926  0.0015  0.3649 -0.1819
13317W        W28786  12.821  12.696  16.083 -0.1118 -0.3619 -0.1550
13318W        W28787  11.613   8.039  15.283  0.1020 -0.1205  0.0268
13319W        W28788   4.238  17.115   5.657  0.2749 -0.1268  0.0213
13320W        W28789   3.906   6.964  11.206 -0.2302  0.0949 -0.0238
13321W        W28790  14.709  15.479  14.872  0.4066  0.0093 -0.0582
13322W        W28791  12.973   1.872   0.989 -0.0312 -0.1327  0.2385
13323W        W28792   0.053  15.179   5.180  0.3993 -0.0622  0.2029
13324W        W28793   2.485   1.258   4.720  0.1171  0.1641 -0.0026
13325W        W28794   9.524   0.168  14.427 -0.3166  0.1475 -0.0615
13326W        W28795   2.087  13.689   1.281 -0.0742 -0.0259 -0.0132
13327W        W28796   7.732  14.595   5.369  0.3135 -0.0179 -0.3076
13328W        W28797  16.856   4.304   4.452 -0.0172  0.1312 -0.0519
13329W        W28798  11.258   4.959   6.120  0.1489  0.0827 -0.1984
13330W        W28799   6.445   6.701   5.313  0.1986  0.0587 -0.0595
13331W        W28800   5.690   6.423   0.062 -0.1868  0.2259 -0.1746
13332W        W28801  16.133   2.638   1.262 -0.1260  0.0037 -0.2082
13333W        W28802   4.446  14.632   3.806 -0.0630  0.1422  0.2329
13334W        W28803   6.292   1.123   1.190  0.0330 -0.0290  0.1920
13335W        W28804   6.737   1.464   2.191  0.2934  0.0876 -0.0008
13336W        W28805  12.764   7.839   2.520  0.1070  0.4243 -0.1649
13337W        W28806  13.223   2.287  12.866  0.1827  0.1137 -0.1469
13338W        W28807   7.460  13.580  14.552  0.0422 -0.1486 -0.3428
13339W        W28808  16.714   0.410   0.377  0.1062  0.0375 -0.0382
13340W        W28809   2.407   1.509   4.102 -0.1450 -0.0060 -0.1071
13341W        W28810   2.993  14.524   2.257 -0.1528 -0.2223 -0.2887
13342W        W28811  11.921   1.866   5.497 -0.3421 -0.1398 -0.1574
13343W        W28812  11.988  15.283   2.922 -0.0095 -0.0935  0.0481
13344W        W28813   0.584   5.593   4.882 -0.2015  0.0624  0.1193
13345W        W28814   8.197  16.100   0.710  0.0377  0.1056  0.3760
13346W        W28815   7.587   4.737  15.896  0.0139 -0.1551  0.0792
13347W        W28816   2.517  15.420  12.261 -0.0917 -0.0682  0.1623
13348W        W28817  10.012  11.483   5.195 -0.2033 -0.0683 -0.1049
13349W        W28818   7.405   3.010   1.181 -0.2836 -0.3911  0.1944
13350W        W28819  13.833  14.560   4.503  0.2159  0.2686 -0.2019
13351W        W28820  15.638   9.440  14.151  0.0364 -0.0774  0.3659
13352W        W28821  12.534  15.506  12.155  0.2826  0.0494  0.2813
13353W        W28822   4.550   2.348   0.388  0.2826 -0.0042 -0.1231
13354W        W28823  15.472   7.298  15.148 -0.0552 -0.4545  0.1495
13355W        W28824   4.604  12.158   3.945  0.2240  0.0449  0.0792
13356W        W28825   8.032   1.119   2.956 -0.1330  0.1807 -0.2600
13357W        W28826  17.446   7.560  15.513 -0.3441  0.0281 -0.0137
13358W        W28827   7.931   5.300   4.748 -0.1328  0.0483  0.0354
13359W        W28828  10.167   9.607   5.266  0.0535  0.1454 -0.1215
13360W        W28829   7.241  11.963   5.637  0.1340  0.0922  0.3530
13361W        W28830  11.154   4.988   2.936 -0.3395 -0.2756  0.0147
13362W        W28831  15.102  10.766   4.408 -0.1347 -0.2274 -0.1152
13363W        W28832  10.068   4.507   4.393 -0.3994 -0.1270 -0.2303
13364W        W28833  16.243   9.235  13.973  0.0443  0.0859 -0.0227
13365W        W28834  16.418  15.662   3.651 -0.1561  0.2665 -0.0886
13366W        W28835   2.332  14.614   0.905  0.0321  0.0656  0.0653
13367W        W28836   6.495   6.611   3.905  0.1106  0.1454 -0.0716
13368W        W28837  15.327   5.005  12.263 -0.1718 -0.0884  0.4487
13369W        W28838  17.489  14.253  12.120  0.0075 -0.1158  0.1446
13370W        W28839  13.102  10.709  15.878  0.2079 -0.1331  0.0569
13371W        W28840  12.155   5.881   4.697  0.0690  0.1110  0.1855
13372W        W28841   8.845   7.864  12.841  0.0688 -0.1843  0.0106
13373W        W28842   0.323   0.857   4.112 -0.2065 -0.1135 -0.3705
13374W        W28843   0.573   0.896  15.859 -0.0106 -0.0560 -0.1642
13375W        W28844  10.267   1.020  12.841  0.3354 -0.2802  0.0013
13376W        W28845   3.342  11.734  16.561  0.3970 -0.0631  0.1852
13377W        W28846  15.922   9.426  12.212 -0.1669 -0.0896  0.0195
13378W        W28847   6.213   9.135  11.398 -0.2011 -0.0199  0.0089
13379W        W28848   5.826   8.029  11.696 -0.4381 -0.2769  0.1949
13380W        W28849  12.903   6.639   5.255 -0.0208 -0.0781  0.1354
13381W        W28850   5.909   2.423  16.189  0.2326 -0.2271 -0.1322
13382W        W28851  13.245  12.332  16.458 -0.2151 -0.0282  0.3037
13383W        W28852   9.398  15.045   3.780  0.0158  0.0287  0.0034
13384W        W28853   7.996   2.650  16.420  0.0804 -0.1539 -0.1835
13385W        W28854   9.473  13.134  11.225  0.0306 -0.0596  0.2334
13386W        W28855  13.799   5.677  15.472 -0.2672  0.1836 -0.1548
13387W        W28856   3.011   8.565   1.541  0.1337 -0.0006 -0.3119
13388W        W28857  14.424   1.566  14.132  0.0108 -0.0434  0.1135
13389W        W28858   6.502  17.622  12.291 -0.0292  0.0846 -0.1587
13390W        W28859  13.251   6.418   1.783  0.0044  0.2226  0.1048
13391W        W28860   2.441   4.817   4.540 -0.3643 -0.3309  0.2258
13392W        W28861  10.965  16.716  13.586  0.0816  0.0329  0.1805
13393W        W28862  12.963   6.818   0.168 -0.1213 -0.1521  0.4026
13394W        W28863   0.025   6.534  15.370 -0.1570  0.0678 -0.0874
13395W        W28864   8.965   7.919  15.530  0.0238  0.2450 -0.0839
13396W        W28865   7.931   3.044   5.400 -0.0751  0.0908 -0.1392
13397W        W28866  13.395   7.968   1.255  0.0392  0.0481  0.0929
13398W        W28867  15.028   9.535   0.332 -0.2092 -0.1620 -0.1577
13399W        W28868   7.096   6.710  12.005 -0.0609  0.1995 -0.3324
13400W        W28869   8.961  13.597  16.125 -0.1360 -0.2720 -0.2051
13401W        W28870  13.802  16.781  12.671 -0.1950 -0.1208 -0.0774
13402W        W28871   7.238  15.680  14.697 -0.0649  0.0307  0.3021
13403W        W28872  10.862   4.323  12.399 -0.1724  0.1528  0.3227
13404W        W28873   0.228   4.008   1.809 -0.1136  0.0850  0.1766
13405W        W28874  15.290  13.046   1.911  0.0047  0.0276 -0.0781
13406W        W28875   1.479  12.850   5.275  0.0308 -0.1906  0.0926
13407W        W28876   7.695  15.738  13.144  0.0966 -0.1035 -0.1876
13408W        W28877   7.903   7.391   0.945  0.0098 -0.2526 -0.3025
13409W        W28878  11.771   8.263  14.756 -0.3237  0.0379 -0.0640
13410W        W28879  11.759   1.157   1.811  0.2359 -0.2314 -0.2746
13411W        W28880   4.500  16.853   2.468  0.0475  0.0353  0.0872
13412W        W28881  15.794   5.974   2.794  0.0083 -0.5404  0.0678
13413W        W28882  10.701  15.501   1.326 -0.2572  0.0971  0.1038
13414W        W28883   6.268   5.982   5.838 -0.0997 -0.0331 -0.4210
13415W        W28884  11.984   3.512  12.589  0.2241 -0.0737 -0.0949
13416W        W28885  17.826  13.788   3.317  0.0193 -0.2569 -0.3287
13417W        W28886  16.150   3.593   2.232 -0.0690 -0.2652 -0.1551
13418W        W28887   4.667   7.043   3.052 -0.2385  0.1055 -0.0578
13419W        W28888   7.978   7.747  13.845 -0.1841  0.0844 -0.1046
13420W        W28889  12.809   5.602   3.727 -0.2462 -0.0597 -0.1089
13421W        W28890   6.105   8.796  15.962  0.1733 -0.2558 -0.0751
13422W        W28891   1.845   9.021   5.279 -0.1210 -0.0087 -0.0096
13423W        W28892   1.526   1.367   4.146 -0.1125 -0.0245 -0.1420
13424W        W28893  10.984  10.418   2.736  0.1439  0.1956 -0.4011
13425W        W28894   5.537  16.129   4.820 -0.0473 -0.4878  0.0380
13426W        W28895   0.798  17.032  12.127 -0.0353  0.1910  0.1181
13427W        W28896   9.793  16.634  13.890 -0.0651  0.1937 -0.0081
13428W        W28897   5.236   1.063   3.875 -0.1506  0.3136 -0.2928
13429W        W28898  15.457  16.118   5.830  0.0263  0.1200  0.1380
13430W        W28899  15.362   6.275   4.455 -0.1862 -0.2091  0.2795
13431W        W28900   4.578  16.388   0.560 -0.0316  0.3053  0.0272
13432W        W28901   7.369   3.999  12.507 -0.4304  0.1702  0.0047
13433W        W28902  12.847  11.300  11.197 -0.0516  0.0712  0.2174
13434W        W28903   9.031  17.661   1.229 -0.0402 -0.1588  0.1108
13435W        W28904  10.264   1.970   5.709  0.1838 -0.0493 -0.4285
13436W        W28905   9.401  15.149   3.153  0.0839 -0.3166 -0.1445
13437W        W28906  17.800  12.945  12.935 -0.1414 -0.1676 -0.1134
13438W        W28907   3.928   6.674   3.476 -0.1556  0.0460 -0.0435
13439W        W28908   8.267   3.249  11.258 -0.1180 -0.0192  0.0407
13440W        W28909   7.547   0.821  12.505  0.1882  0.0429  0.0056
13441W        W28910  15.737   6.913  14.415 -0.1417  0.2684 -0.1648
13442W        W28911  16.995   9.570  12.194 -0.0649 -0.2358  0.1910
13443W        W28912  14.444  12.618   3.615 -0.1905 -0.2484  0.0721
13444W        W28913   7.544  14.092  15.183 -0.1134 -0.0604 -0.3090
13445W        W28914  17.220   4.158   0.352 -0.0398  0.1245  0.1045
13446W        W28915   6.721  17.770  15.428 -0.2744  0.0674  0.0945
13447W        W28916  12.390  14.872   0.157  0.3154 -0.1165 -0.0658
13448W        W28917   2.977   8.261   3.002  0.1920  0.0025 -0.2207
13449W        W28918   1.707  10.903   2.488  0.1011 -0.1832 -0.0570
13450W        W28919  14.295  17.195  13.581  0.0249  0.1215 -0.0641
13451W        W28920   3.762   0.983  11.517  0.1617 -0.1994 -0.0499
13452W        W28921  15.521  11.011  11.197 -0.4152  0.0730 -0.1044
13453W        W28922   4.425  15.280   4.473  0.0723 -0.0116  0.2107
13454W        W28923  15.247   9.127   0.602  0.0510  0.0956  0.1588
13455W        W28924  16.178  13.707  14.999  0.1791  0.3029 -0.1286
13456W        W28925  16.879   9.803   4.533 -0.3754 -0.0615 -0.1691
13457W        W28926  17.129   1.178   0.666 -0.2331  0.2590  0.0806
13458W        W28927  17.972   1.686   0.615 -0.2714  0.1244 -0.1044
13459W        W28928  16.874   2.419   4.792  0.3203  0.1326  0.0535
13460W        W28929   7.339  12.486  13.971  0.2240  0.1230 -0.0078
13461W        W28930   7.715  16.192   3.474  0.1450  0.2884 -0.4727
13462W        W28931   6.117  16.589   3.716  0.0663 -0.3283  0.0822
13463W        W28932   4.759  17.529  12.211 -0.2222 -0.0432 -0.3036
13464W        W28933   8.322  10.740  15.511  0.2340  0.2324 -0.2545
13465W        W28934   1.753   1.106   1.731 -0.0309  0.0581 -0.3311
13466W        W28935  15.055   5.167   5.357  0.0143 -0.2697  0.0088
13467W        W28936  17.065   3.786   1.225 -0.1521 -0.0317  0.2108
13468W        W28937  10.602  10.697   5.005 -0.2781  0.0590  0.0911
13469W        W28938   7.792   8.594   2.880  0.0817 -0.1563  0.0664
13470W        W28939  11.158   5.837  14.183  0.2200  0.1647  0.1145
13471W        W28940   6.207   2.554  11.920  0.1985 -0.1210  0.1101
13472W        W28941  12.128   7.839  13.476  0.1485  0.0167 -0.0164
13473W        W28942  12.335  11.268   4.325 -0.2572  0.1883  0.0016
13474W        W28943   6.577  10.992   1.112  0.0443 -0.2241  0.4575
13475W        W28944  11.435   6.222  13.963  0.1618  0.5112 -0.0024
13476W        W28945   5.368  15.261  16.568 -0.2723  0.1299 -0.0515
13477W        W28946   4.248  11.564  14.678 -0.0308  0.1238  0.1141
13478W        W28947   5.771   1.529   5.369 -0.2790 -0.1473  0.0490
13479W        W28948   8.757   1.055  15.356 -0.1115 -0.3317 -0.0443
13480W        W28949  12.470  10.529  14.291  0.0022 -0.0516 -0.1464
13481W        W28950  17.428  13.371   0.291  0.1744  0.1468 -0.0415
13482W        W28951   1.852   5.125   1.013 -0.1626  0.1763  0.1349
13483W        W28952   4.273   0.235   0.430 -0.0572  0.0623 -0.0605
13484W        W28953  17.693   1.106   6.084 -0.1630 -0.0951  0.0281
13485W        W28954   8.687  17.292   0.968  0.1515  0.3378 -0.0824
13486W        W28955   3.777  12.779  12.331 -0.1553 -0.0003 -0.1507
13487W        W28956   1.956   2.854  16.354 -0.2293  0.0631 -0.0605
13488W        W28957  13.432  12.503   5.455 -0.2569  0.0174 -0.1061
13489W        W28958  17.656  13.114  14.370  0.0023  0.1239 -0.1052
13490W        W28959   0.704  15.460   7.017 -0.1105 -0.0429 -0.1073
13491W        W28960   5.077  17.335  15.386 -0.0297  0.4162  0.1248
13492W        W28961   5.468   9.764   4.950 -0.1287  0.1917 -0.1308
13493W        W28962  16.561   4.633  15.758  0.0631 -0.0724  0.0689
13494W        W28963   8.767   9.223  16.422 -0.3429  0.0105 -0.0038
13495W        W28964   9.614  10.414   2.232  0.2128  0.0210 -0.1846
13496W        W28965  17.017  11.218   0.239  0.1459  0.0176 -0.0591
13497W        W28966   5.291   0.944   5.360  0.0899 -0.1617  0.2903
13498W        W28967   8.869  13.708   3.878 -0.2164 -0.1444 -0.1278
13499W        W28968   9.990   8.023  14.839  0.0605  0.0740  0.0764
13500W        W28969   3.378   7.299   1.014  0.1667  0.0526 -0.3710
13501W        W28970  14.917  15.209   2.130  0.1141 -0.0311 -0.1397
13502W        W28971   1.342  13.106  13.785  0.1370  0.2839 -0.1548
13503W        W28972  12.200  12.274   3.969 -0.0194  0.1059  0.1464
13504W        W28973  11.126  17.975   2.093 -0.0283 -0.3009 -0.1344
13505W        W28974   6.718  17.494  13.089  0.1583 -0.0056  0.2096
13506W        W28975  16.946   7.653  16.580  0.1780 -0.0643 -0.1878
13507W        W28976  12.698  12.266   2.811  0.0797  0.1569 -0.2061
13508W        W28977   9.693  14.975   2.810 -0.6249  0.0988  0.0204
13509W        W28978   9.656  10.970   4.375  0.0706 -0.1862 -0.0942
13510W        W28979  16.415   6.164   3.477 -0.1188  0.0780 -0.1357
13511W        W28980   6.719  17.818   2.621  0.0726  0.1888  0.1736
13512W        W28981   5.580   0.812  14.173 -0.1298 -0.0412 -0.3042
13513W        W28982   5.138  17.583  13.507  0.0118  0.1619 -0.1661
13514W        W28983  14.072  11.728   2.509 -0.0707 -0.0238 -0.0555
13515W        W28984  13.453   8.521  10.787 -0.0258 -0.2969 -0.0493
13516W        W28985   2.817   9.996  11.935  0.1902 -0.2279 -0.2007
13517W        W28986   0.857  11.054   3.478 -0.1664  0.0833  0.3235
13518W        W28987   7.032  12.639   0.870  0.1525  0.3278  0.1310
13519W        W28988  13.217  11.511  16.414 -0.0073  0.0490  0.1398
13520W        W28989   2.213   4.735   0.176  0.1770  0.0390  0.2277
13521W        W28990   0.659   4.120   4.271 -0.1109 -0.3606  0.0515
13522W        W28991   6.903  17.513   0.508  0.0050 -0.0042  0.0335
13523W        W28992   7.778  15.855  15.111 -0.3375  0.0286 -0.2090
13524W        W28993   9.671   2.410   4.892  0.0404  0.1498 -0.1679
13525W        W28994  17.259  15.491   3.361  0.1838  0.2981  0.0150
13526W        W28995   6.662   9.782   0.332 -0.0251  0.3793  0.0891
13527W        W28996   5.562  15.644   3.747  0.1691 -0.1491 -0.0884
13528W        W28997   9.785   2.374   5.771 -0.0171  0.1376  0.1854
13529W        W28998  15.203   9.634  11.185 -0.1865  0.2002 -0.0479
13530W        W28999   9.227   9.120   0.521  0.1833  0.1135 -0.0914
13531W        W29000   3.949   6.625   4.175 -0.1114 -0.3126 -0.0548
13532W        W29001  15.103  14.405   0.764  0.1973 -0.2985  0.1401
13533W        W29002   1.457  11.853  12.679 -0.1075  0.0899 -0.0106
13534W        W29003   5.678  10.208  13.905 -0.2594  0.0537  0.1155
13535W        W29004   4.765   0.164   2.631  0.3469 -0.0596  0.0607
13536W        W29005   3.424  11.055   2.279 -0.2661 -0.1913  0.0718
13537W        W29006  16.117  11.433  12.322  0.0220  0.0977 -0.1724
13538W        W29007   9.814   6.361   4.028  0.0462  0.1946  0.1100
13539W        W29008   4.078   4.538  12.026  0.1037  0.1254  0.0021
13540W        W29009  12.735  10.917   1.855 -0.1219 -0.0644  0.1139
13541W        W29010   0.681   6.094  16.389  0.1712 -0.0207 -0.0443
13542W        W29011  17.843   1.855   1.810 -0.0751 -0.2929 -0.0597
13543W        W29012   4.008   1.348   4.438 -0.0353 -0.2411  0.2185
13544W        W29013   1.804   6.138   3.459 -0.1651  0.0995  0.1290
13545W        W29014   5.965  16.762  12.837 -0.0462  0.1691 -0.1462
13546W        W29015  11.485   5.648   1.839 -0.1223  0.4676  0.0780
13547W        W29016   6.271   7.559  12.121  0.0584  0.0888  0.3256
13548W        W29017   4.263   8.821  11.908  0.0649  0.0529 -0.1066
13549W        W29018  13.059   0.679   4.409 -0.2298 -0.2756  0.0393
13550W        W29019  16.759  14.880  14.717 -0.2125  0.0333  0.1994
13551W        W29020   0.210   4.363  14.226 -0.2082  0.0317 -0.0759
13552W        W29021  11.804   4.965  12.918 -0.2266 -0.0896 -0.2088
13553W        W29022   8.921  12.007  11.599 -0.1029  0.0007  0.0701
13554W        W29023  17.681   8.765   3.625 -0.0639  0.0881 -0.0676
13555W        W29024   7.638  11.906   3.473  0.0667  0.0627 -0.1590
13556W        W29025   4.740   1.475  16.178  0.0344 -0.2073 -0.2600
13557W        W29026  11.209  14.390  12.587  0.0981 -0.2128  0.3373
13558W        W29027  11.056   2.753  15.499  0.4346  0.1219 -0.1372
13559W        W29028   4.200  11.372   2.415 -0.2167  0.0749 -0.1536
13560W        W29029  17.637   8.706  13.857 -0.0222  0.2677 -0.2531
13561W        W29030   4.955  13.912  13.552  0.0297  0.1783 -0.0594
13562W        W29031  17.534   1.537   3.758 -0.3177 -0.0134 -0.0222
13563W        W29032   4.306  11.345   5.034  0.3416  0.0554  0.0723
13564W        W29033   2.945   4.893  13.477 -0.2440 -0.0183  0.0397
13565W        W29034   2.203   6.620  16.070  0.0990  0.1213  0.2038
13566W        W29035  12.445   6.828   4.420 -0.2889 -0.4282  0.0878
13567W        W29036   1.021   1.074  11.479 -0.3400  0.4916 -0.3285
13568W        W29037  15.248   7.443   3.930  0.0726 -0.0725  0.0263
13569W        W29038  13.812   9.987  12.141 -0.0269  0.0336  0.1340
13570W        W29039  17.627  17.843   1.773 -0.0423  0.0542 -0.1248
13571W        W29040   2.443   2.017  13.148 -0.1218 -0.0968 -0.0048
13572W        W29041   5.637   0.132   1.795  0.3662 -0.1472 -0.0297
13573W        W29042   1.874   1.613  10.463 -0.0186  0.1640 -0.1519
13574W        W29043  10.264   1.210   3.305  0.2484  0.3968 -0.1413
13575W        W29044  17.789   7.221   0.085  0.1902  0.0129 -0.1659
13576W        W29045   6.431  10.286   0.071  0.3676 -0.1364 -0.3034
13577W        W29046   6.565   1.653   0.492  0.2132  0.0469  0.1785
13578W        W29047   6.609  13.260  11.899  0.0767  0.1500  0.2165
13579W        W29048  10.740  17.600   1.920  0.0241 -0.0558 -0.1293
13580W        W29049   5.183   2.516   4.453 -0.0080  0.0335 -0.5970
13581W        W29050   6.193  14.938  13.087  0.0254  0.1713 -0.2312
13582W        W29051   3.924  13.656   5.557 -0.0302  0.2036  0.1636
13583W        W29052   7.430   6.925   4.632  0.0896 -0.2506  0.2034
13584W        W29053  11.371   8.824  13.555 -0.2370  0.1204 -0.1137
13585W        W29054   8.932   2.978  14.526 -0.2099  0.0159 -0.3959
13586W        W29055   6.328   8.926  15.515  0.2001  0.0757 -0.0360
13587W        W29056   1.171   9.730  15.267 -0.1333  0.0566 -0.0305
13588W        W29057  13.121   4.655  11.002 -0.1788  0.0964  0.0646
13589W        W29058   4.772   7.470  11.389 -0.0382  0.3521 -0.0881
13590W        W29059  11.276  14.090  13.028  0.0490 -0.2193 -0.3060
13591W        W29060  12.230  12.965   2.799 -0.1194  0.1224  0.1435
13592W        W29061   1.516   2.320  12.631  0.2334 -0.0418  0.5012
13593W        W29062   0.856  14.888   2.543  0.4188  0.0058  0.2323
13594W        W29063  13.011   4.075  13.629 -0.4898 -0.1611 -0.1724
13595W        W29064  14.355   2.341  12.285 -0.1600 -0.0850  0.1737
13596W        W29065   4.748   1.833   3.061  0.1451 -0.0438 -0.1941
13597W        W29066   5.201  16.803  14.559  0.0654 -0.0598 -0.1257
13598W        W29067  12.677  16.820   2.690  0.2151 -0.0642  0.0367
13599W        W29068  17.840   6.012  14.019  0.1171 -0.1482 -0.1628
13600W        W29069   3.626  17.090  11.780  0.0358  0.4191  0.1867
13601W        W29070   4.671  13.819  15.997 -0.1304  0.0200  0.1297
13602W        W29071  13.689   3.899  13.513  0.0174 -0.0382  0.0853
13603W        W29072  17.606  11.829  13.516  0.0279  0.1904 -0.1907
13604W        W29073   0.076   6.441  13.471 -0.0400 -0.1241 -0.2062
13605W        W29074   4.809  12.367   1.103  0.2388 -0.0483 -0.2224
13606W        W29075   9.572   6.507  13.880 -0.0274  0.1199  0.0010
13607W        W29076  11.120   7.345  15.249  0.1752  0.3366 -0.0916
13608W        W29077  13.568  15.532   0.094  0.2290 -0.1767 -0.3003
13609W        W29078   0.259  17.621   3.252  0.0724  0.2304  0.1653
13610W        W29079  12.840  11.679   3.540  0.1696  0.0077  0.0475
13611W        W29080  17.173  10.679   1.177 -0.2243 -0.1848  0.0543
13612W        W29081  14.648  17.999   0.973 -0.0453  0.1759 -0.0218
13613W        W29082   4.031  10.202   2.918 -0.2337 -0.2179 -0.3967
13614W        W29083   7.513   4.787  16.365  0.1620  0.0668  0.1554
13615W        W29084   2.141  10.926   0.971  0.3198  0.1306 -0.3183
13616W        W29085  11.275  12.910  16.317  0.0216 -0.0889  0.0097
13617W        W29086  10.006   4.574   5.507  0.0599  0.0290 -0.0568
13618W        W29087  16.397  11.608  13.265  0.0646 -0.0029  0.2169
13619W        W29088  12.425   8.636   0.162  0.0923 -0.2719 -0.0865
13620W        W29089  14.746  12.906  13.199 -0.2517  0.1661 -0.1022
13621W        W29090  14.204  15.520  12.806 -0.1720  0.3375 -0.0329
13622W        W29091   0.008  17.812   4.151 -0.1408 -0.1456  0.1315
13623W        W29092  12.218   8.105   1.092 -0.0350  0.3654 -0.0699
13624W        W29093  17.250   9.481  12.754 -0.0429 -0.2803  0.0130
13625W        W29094   8.673  17.648   5.569 -0.1301 -0.2034  0.4713
13626W        W29095   2.389  17.158   2.500 -0.0715  0.1791  0.2907
13627W        W29096  13.492  14.121  16.539 -0.2616  0.4784  0.1044
13628W        W29097  15.994  17.434  16.257 -0.1452  0.0151  0.1624
13629W        W29098   2.225   1.665   1.349 -0.0810  0.1246 -0.0254
13630W        W29099  13.042  14.227  15.805 -0.2956  0.0629  0.0176
13631W        W29100  14.764   9.036   2.358  0.1090  0.2289 -0.1325
13632W        W29101   6.328   3.172  12.537 -0.2408 -0.3028  0.1809
13633W        W29102   4.398  14.761  12.199 -0.0587 -0.1956 -0.3300
13634W        W29103  12.803   5.711   5.496  0.0075  0.1210 -0.0709
13635W        W29104   1.310   6.920   5.862 -0.1475 -0.2180  0.0975
13636W        W29105   8.199   0.374   5.061  0.1793  0.2229  0.1405
13637W        W29106   0.913  16.736   0.370  0.0373 -0.0830  0.0658
13638W        W29107   9.954  17.878  13.496 -0.1056  0.0867  0.0648
13639W        W29108   5.738   5.960  11.579 -0.0642  0.0529  0.1943
13640W        W29109   9.546   6.235   5.404 -0.2422  0.2296  0.1726
13641W        W29110  15.337   6.747   2.674 -0.0794 -0.0794  0.0020
13642W        W29111   3.297  16.440   5.502  0.0294 -0.0776  0.0433
13643W        W29112   7.432  16.703   0.712  0.1038  0.1152 -0.1601
13644W        W29113   1.294   9.296  13.467 -0.0303  0.1322 -0.1525
13645W        W29114  16.516  16.134   1.447 -0.1781 -0.0507 -0.0952
13646W        W29115  10.596   0.173  12.926 -0.1513 -0.0922 -0.1445
13647W        W29116   8.212   6.772   0.575 -0.2187  0.0517  0.1727
13648W        W29117   9.000   9.783   4.484  0.1351 -0.0034  0.1895
13649W        W29118  15.562   8.240   2.719 -0.1037  0.2435  0.0056
13650W        W29119  11.972  12.923   1.140  0.0581 -0.0936 -0.1405
13651W        W29120  16.460   4.719  13.045  0.1807 -0.0606 -0.1877
13652W        W29121   2.388   1.513  11.753  0.2327  0.2177 -0.2672
13653W        W29122  15.248  10.128  10.908 -0.0579  0.2109  0.0283
13654W        W29123  14.145  17.258   6.102 -0.1336 -0.1295  0.1281
13655W        W29124   3.040  10.176  11.171  0.1498  0.2340 -0.1306
13656W        W29125   4.177  10.009   4.703  0.0446  0.2619 -0.0508
13657W        W29126   7.735   1.575   5.829  0.0239 -0.4425 -0.1261
13658W        W29127  12.568   0.290   5.947  0.0066  0.0125  0.1440
13659W        W29128   0.264  10.406   4.846 -0.1320 -0.2811  0.2705
13660W        W29129   8.441  15.597   1.931  0.0291  0.3455 -0.0600
13661W        W29130   1.590   6.950  14.944 -0.0244 -0.1905  0.2948
13662W        W29131  14.673   1.616   0.034 -0.3255  0.1132 -0.1448
13663W        W29132   4.695   2.079  13.204 -0.0802 -0.0453  0.2282
13664W        W29133  17.774   2.455   3.735  0.0407 -0.2071 -0.0751
13665W        W29134  14.940  17.825   5.678 -0.2303 -0.1593 -0.0106
13666W        W29135   5.661   4.187  12.049 -0.1735 -0.0046  0.0797
13667W        W29136  15.928  16.518   3.498  0.0130 -0.1444  0.1818
13668W        W29137  11.076   5.755   0.349 -0.2594  0.0325 -0.0254
13669W        W29138  16.387   6.964  10.956  0.0017 -0.2043 -0.1289
13670W        W29139   1.798   6.763   0.215 -0.0077 -0.2209 -0.1409
13671W        W29140  13.880  10.085  15.341  0.3078  0.2336 -0.0657
13672W        W29141   9.689   7.553  14.798 -0.0685  0.0939 -0.0044
13673W        W29142   0.964   5.293  15.605  0.0419  0.0261  0.3509
13674W        W29143  12.118   2.043  16.406 -0.1567  0.3011 -0.1198
13675W        W29144  17.715   5.132   5.307 -0.1115  0.0251  0.0429
13676W        W29145  17.324   3.809   5.328 -0.3149  0.1986  0.1537
13677W        W29146   0.941   7.124  11.619  0.2009  0.0815  0.2058
13678W        W29147  16.779   9.389  11.777 -0.1424 -0.0060  0.2206
13679W        W29148  10.226   2.338   3.370 -0.1236 -0.3382  0.0009
13680W        W29149   5.812   9.268   0.460  0.0540 -0.0725 -0.0669
13681W        W29150   2.962  13.317  12.736 -0.0962 -0.2105 -0.0003
13682W        W29151   2.251  13.244   0.963  0.0843 -0.0825 -0.1594
13683W        W29152   6.997   7.222  11.317 -0.0379  0.1813  0.2493
13684W        W29153  17.834   6.741   2.670 -0.3872  0.3818 -0.1176
13685W        W29154  15.523   7.087   4.118 -0.4275 -0.2204 -0.0967
13686W        W29155  15.140  14.150  13.330  0.2519  0.0192 -0.2092
13687W        W29156   0.386  17.609   0.863 -0.2451 -0.2070 -0.1328
13688W        W29157  16.139   4.798   3.640 -0.0187  0.2217 -0.0584
13689W        W29158   8.703  13.852   3.411  0.1681  0.2264 -0.2022
13690W        W29159  13.689  12.131   1.734 -0.0115  0.0317  0.0809
13691W        W29160   3.746  10.602  13.037  0.1973  0.0054  0.4397
13692W        W29161  15.939  12.698   4.785  0.0740 -0.2811 -0.4264
13693W        W29162   1.769   3.763   0.637  0.0997 -0.0315  0.2561
13694W        W29163   9.572  13.349   4.228 -0.0117  0.3482  0.0080
13695W        W29164   5.704   6.932  12.696  0.2720  0.1707  0.0927
13696W        W29165   7.450   8.214   4.862 -0.0066  0.3069  0.1789
13697W        W29166   1.112  16.912   1.780 -0.2243 -0.3568  0.1259
13698W        W29167  13.476  13.709   4.244 -0.2511 -0.0287 -0.0879
13699W        W29168  10.188   6.674  16.185 -0.2365  0.0418  0.3336
13700W        W29169  11.641   4.266  11.225  0.0475  0.1480 -0.0914
13701W        W29170   0.415  12.685  14.030 -0.0287 -0.1047 -0.2152
13702W        W29171   9.667   1.097   5.719  0.3531  0.0897  0.1925
13703W        W29172   5.142   3.895   3.979  0.1606  0.0570 -0.1530
13704W        W29173  11.011  12.982   2.837 -0.1139  0.0984 -0.1755
13705W        W29174  10.580  11.467   4.879 -0.1195 -0.3140  0.4270
13706W        W29175   1.340  12.996  14.274  0.3491 -0.1038  0.3130
13707W        W29176   7.514   8.514   0.445  0.1248 -0.0062  0.0395
13708W        W29177  17.391   8.383   3.211  0.3235 -0.1210 -0.0203
13709W        W29178  15.268  11.726  15.467 -0.0758  0.0180  0.0864
13710W        W29179   7.931   8.904   3.343  0.2207  0.1064  0.0286
13711W        W29180   1.278  15.221   6.162  0.1343 -0.1221  0.3263
13712W        W29181  12.360  14.230  13.463  0.0568 -0.1009 -0.2111
13713W        W29182   4.114   2.969  16.385  0.0687  0.1386 -0.3413
13714W        W29183   9.029   9.166  12.082  0.0422 -0.3030  0.0680
13715W        W29184   4.123  17.691  15.305  0.1969  0.0364 -0.0878
13716W        W29185  11.668  16.760  15.578  0.1172  0.1988 -0.3021
13717W        W29186  16.767  10.011  12.149  0.0911  0.1671 -0.1585
13718W        W29187   2.062  15.164   5.707 -0.1306 -0.2003 -0.1795
13719W        W29188   5.749   6.011   4.848  0.2813  0.1034 -0.0147
13720W        W29189  17.004   5.254  12.282  0.2520  0.2943  0.0196
13721W        W29190  14.652  11.873   1.042 -0.3194 -0.0106 -0.0270
13722W        W29191  12.044  14.204   4.102 -0.0430 -0.1271  0.0444
13723W        W29192   7.110   6.026  16.420 -0.0829  0.2712 -0.1222
13724W        W29193  16.433   7.626   5.657 -0.3376 -0.0092  0.2132
13725W        W29194   7.628   3.921  13.504 -0.0708 -0.2793  0.2255
13726W        W29195  12.164   2.462  14.219 -0.1122  0.2369  0.0546
13727W        W29196   6.200   2.028  14.867 -0.2229  0.0019  0.0515
13728W        W29197  13.083   3.314   3.493 -0.1100  0.0193  0.1210
13729W        W29198   2.150  12.659   5.311  0.1631  0.0980 -0.1542
13730W        W29199  15.456  16.357   0.165  0.1392  0.0563 -0.0622
13731W        W29200  12.749  17.696  14.799  0.1095  0.1420 -0.1777
13732W        W29201  16.975   8.758  11.633  0.2987 -0.0130 -0.0328
13733W        W29202   0.925   1.888   1.022 -0.0479  0.3365 -0.2983
13734W        W29203   2.759   3.152   3.130 -0.1202 -0.2197  0.1467
13735W        W29204   0.740   0.397  15.675 -0.0320 -0.3386  0.3424
13736W        W29205  15.163   1.538   3.064 -0.1169  0.1457  0.1611
13737W        W29206  15.750   3.224  16.528 -0.0832  0.1192 -0.0323
13738W        W29207  16.239  14.046   2.195 -0.1107 -0.0596  0.0693
13739W        W29208   9.691   9.069   0.756 -0.2364 -0.3204  0.0832
13740W        W29209   2.815   5.710  14.824 -0.0915  0.1628  0.0130
13741W        W29210   8.537   0.715  15.072  0.1477 -0.2907  0.1395
13742W        W29211  13.305  15.952  14.771  0.2785 -0.1726  0.1240
13743W        W29212   6.769  16.737   3.797 -0.1963  0.0931  0.0703
13744W        W29213   4.863   5.369   0.457 -0.1097  0.4570 -0.0019
13745W        W29214  10.177  15.452   5.010  0.0468  0.2103 -0.1723
13746W        W29215  10.472  12.815   5.783 -0.3642 -0.2511  0.2357
13747W        W29216   6.181   6.774  12.455  0.0871  0.2694 -0.1981
13748W        W29217   8.979  14.653  13.912 -0.1846  0.1184  0.0291
13749W        W29218  16.015   4.519  15.747 -0.2958  0.0757 -0.1774
13750W        W29219  15.163  16.679  15.489  0.0479 -0.1275 -0.0395
13751W        W29220   2.989   6.650   0.015  0.0397 -0.3383  0.0101
13752W        W29221  10.715   7.157  16.169  0.0843 -0.2058  0.2308
13753W        W29222  12.921   9.103  14.920 -0.0542  0.1357 -0.0160
13754W        W29223  10.353  12.887  13.014  0.1839  0.0035  0.0907
13755W        W29224  11.291  16.661   2.987  0.1723  0.3534 -0.0486
13756W        W29225  12.832  15.773   3.677 -0.0184 -0.4476  0.0767
13757W        W29226   3.470  14.764  14.034  0.0135 -0.2475  0.2149
13758W        W29227  15.926   5.285   2.994 -0.1340  0.0666 -0.0875
13759W        W29228  11.303   8.685   3.243 -0.0003  0.1732  0.0438
13760W        W29229   4.996   9.929  14.593 -0.1637  0.0995 -0.2388
13761W        W29230   3.985  12.891  13.876 -0.0751 -0.1603 -0.2693
13762W        W29231  10.723   6.259   4.543  0.2055  0.0832  0.2708
13763W        W29232   2.621  13.300  15.496 -0.0539  0.1138 -0.0027
13764W        W29233   8.058  10.027  13.412 -0.0643  0.2149 -0.0782
13765W        W29234   1.814  15.809   5.891  0.0940  0.0269  0.1217
13766W        W29235   9.529  13.212  15.245 -0.0882  0.4645 -0.0315
13767W        W29236  15.390  14.265  12.873 -0.0171 -0.0222  0.0725
13768W        W29237   5.934   7.865   1.730 -0.2430  0.0373 -0.1616
13769W        W29238   2.194   9.212  11.976  0.3006 -0.1761  0.0006
13770W        W29239   0.005  16.429   4.856  0.1739 -0.1915  0.0704
13771W        W29240   6.762   0.752  13.625  0.1262  0.0685  0.1020
13772W        W29241   4.115  14.660   4.667 -0.0151 -0.2421  0.2476
13773W        W29242   3.049   8.451  15.204  0.2371 -0.0084  0.0698
13774W        W29243   6.214  12.581   1.682  0.1877  0.3542  0.1814
13775W        W29244   5.524  12.781   4.815  0.0149 -0.1143  0.1732
13776W        W29245  17.644   3.815  15.335  0.2066 -0.0506  0.0602
13777W        W29246  16.906  10.877   0.558  0.2878  0.1136 -0.2526
13778W        W29247  11.980   1.505  15.161 -0.0865  0.0273  0.0179
13779W        W29248   7.969   5.171  16.565  0.1720 -0.1615 -0.1860
13780W        W29249  14.020   0.380  12.842  0.2133 -0.2026  0.4520
13781W        W29250  14.520   5.876  11.434 -0.0676 -0.1362  0.4003
13782W        W29251  15.139   5.424   2.843  0.0693  0.1979  0.4339
13783W        W29252  12.543   9.502   0.502  0.1500  0.1324  0.0171
13784W        W29253   0.030   1.319   4.000  0.0348 -0.2343 -0.0389
13785W        W29254  14.804  10.178   2.050  0.0744  0.4230 -0.0684
13786W        W29255  12.883   5.941  16.231 -0.3350 -0.2729  0.1025
13787W        W29256   1.723  12.400  16.433  0.1703 -0.2263 -0.2060
13788W        W29257   6.463   2.319   5.782 -0.2213 -0.1782 -0.0821
13789W        W29258   9.949  16.212   0.274 -0.0658  0.0956 -0.2416
13790W        W29259   6.451   7.610   4.099 -0.0161  0.2240 -0.2982
13791W        W29260   9.557  15.499   1.031  0.3028 -0.0969  0.0577
13792W        W29261  12.908   5.824  15.651  0.0484  0.0805 -0.3078
13793W        W29262  14.208  15.063   5.409  0.3125 -0.1283 -0.1148
13794W        W29263  16.828   0.240  15.963  0.2070 -0.0455 -0.0033
13795W        W29264   4.856  13.238   5.347  0.3325 -0.0275  0.1891
13796W        W29265  16.584  15.670  13.289  0.1055  0.0313 -0.3602
13797W        W29266   0.344  14.958   2.679 -0.1868 -0.0615 -0.1163
13798W        W29267   9.880   9.422   1.937 -0.2206 -0.1624  0.0709
13799W        W29268  15.618   9.910   9.763  0.3227  0.0903 -0.3494
13800W        W29269   1.256   4.703   2.670 -0.0597 -0.3197 -0.0729
13801W        W29270   6.329  14.368  14.595  0.4450  0.1635 -0.1930
13802W        W29271  11.661   4.637   5.909  0.0920  0.0409 -0.2936
13803W        W29272   5.123   6.635   3.088 -0.1689  0.2444  0.0211
13804W        W29273  13.144   7.117  10.730 -0.1546  0.1660 -0.0095
13805W        W29274  13.835   4.210   3.199 -0.1945 -0.0514  0.2158
13806W        W29275   3.969   1.434   3.015 -0.2771  0.1620  0.0703
13807W        W29276  11.972   5.697  13.559 -0.0575  0.0370 -0.2432
13808W        W29277  16.468   8.469   0.342  0.2381 -0.1369 -0.1255
13809W        W29278   5.577   3.394   3.646  0.1009  0.1552 -0.0342
13810W        W29279  13.752   9.097  15.934 -0.0344  0.1828  0.2693
13811W        W29280   8.310   0.195   4.192  0.0165  0.0157  0.1579
13812W        W29281   6.476  12.389  14.908  0.1260 -0.0730  0.0824
13813W        W29282   3.312   7.608  13.695 -0.0072  0.0328 -0.0270
13814W        W29283   6.295   7.589   1.957  0.3074  0.1001 -0.0311
13815W        W29284   0.343   3.568   0.790  0.1030 -0.1329  0.0635
13816W        W29285   8.752   3.206  16.366 -0.5246  0.0033  0.0369
13817W        W29286   3.824   6.992   0.772 -0.0296 -0.0814 -0.1548
13818W        W29287   4.165  14.561  12.633  0.0663 -0.0714  0.1037
13819W        W29288   0.544   0.127  11.869  0.1830 -0.1397  0.2686
13820W        W29289   7.037   2.713  12.028 -0.0843  0.1810  0.1290
13821W        W29290   4.313   9.461  15.272 -0.3282  0.1814  0.0207
13822W        W29291   7.269  17.502   1.561 -0.0549 -0.2138  0.3564
13823W        W29292   7.393  10.644   1.474 -0.4520  0.0807  0.1072
13824W        W29293   5.421   5.034   4.266 -0.1069 -0.2330 -0.2606
13825W        W29294   0.660  11.205  15.233 -0.1314 -0.1956  0.0542
13826W        W29295  16.679  11.253  11.377  0.4712 -0.1636 -0.2562
13827W        W29296  15.769   7.181  12.883  0.0087 -0.0239  0.2831
13828W        W29297   2.374   6.959  11.379  0.1302  0.0692  0.1126
13829W        W29298  11.018  13.064  13.608  0.0295 -0.2251 -0.1185
13830W        W29299  13.635  10.059   4.114 -0.0103 -0.0677  0.3809
13831W        W29300  15.354  15.635   0.927  0.2078  0.1935  0.4436
13832W        W29301  11.553  15.175  13.611  0.0030  0.2660  0.4709
13833W        W29302   0.746   5.424  11.085 -0.2818 -0.0899  0.1218
13834W        W29303   1.203   4.131   2.727 -0.3646 -0.0398  0.1760
13835W        W29304  14.436  13.227   0.503  0.1700 -0.0005 -0.1211
13836W        W29305   1.532  12.274  16.008 -0.2125  0.1078  0.0359
13837W        W29306  16.749   2.623  11.652  0.0582 -0.0315 -0.0306
13838W        W29307   9.333  11.158  13.050  0.2401  0.0161 -0.0594
13839W        W29308  10.962   6.950   3.635 -0.2421  0.2504  0.0120
13840W        W29309   3.305   5.373   3.239  0.1085  0.0034 -0.3383
13841W        W29310   9.273  16.338   1.425 -0.0562  0.1082 -0.1737
13842W        W29311   5.655   8.243  16.030 -0.2519  0.0128 -0.1496
13843W        W29312   5.201   5.809   2.911  0.0377  0.0184  0.0602
13844W        W29313  17.172   0.196   0.285 -0.0062  0.0838 -0.0024
13845W        W29314   9.256   8.636   2.798  0.2547  0.0758  0.1443
13846W        W29315   3.418   6.378   5.277  0.1504 -0.1895 -0.1287
13847W        W29316  12.680   0.828   6.012  0.1324 -0.2191  0.0208
13848W        W29317  15.611  11.891   0.988 -0.0320 -0.1847  0.1380
13849W        W29318   4.300  13.826  15.644 -0.0973 -0.0985  0.1135
13850W        W29319   3.051   1.586  12.457  0.3847  0.0289 -0.2883
13851W        W29320   3.035   3.364   2.733 -0.1277 -0.1317  0.1901
13852W        W29321  12.212  14.186  15.183 -0.0548 -0.0183  0.1147
13853W        W29322  11.240   5.175  13.074 -0.0199 -0.3724  0.3883
13854W        W29323   5.201   1.425   0.771  0.1237 -0.2042 -0.3422
13855W        W29324   1.617   3.941   3.218  0.3398 -0.2039  0.3145
13856W        W29325  17.514   2.796  12.012  0.1285 -0.3048 -0.1838
13857W        W29326  15.958   5.731  11.388 -0.2171  0.0007  0.0157
13858W        W29327   9.078  14.420  15.321 -0.0813 -0.0079 -0.2015
13859W        W29328   5.317  17.135  13.547 -0.1633 -0.0961 -0.1483
13860W        W29329   3.495   5.929  14.268 -0.1151  0.0244  0.1593
13861W        W29330   1.069  15.752  12.549 -0.0483  0.2097 -0.1896
13862W        W29331   9.907  13.547  15.078  0.1259 -0.0326  0.3415
13863W        W29332   3.055   9.534   5.953  0.2265  0.1023 -0.2019
13864W        W29333  13.711   6.066   1.826 -0.2735  0.0595  0.1644
13865W        W29334   4.250  15.209  13.323  0.1472  0.1404  0.4297
13866W        W29335   7.598   4.504   5.081  0.0827  0.2389  0.2279
13867W        W29336  10.512   0.872  15.384  0.3167 -0.3634  0.0059
13868W        W29337   6.084  13.382  15.651 -0.1714  0.0142 -0.0426
13869W        W29338   8.491  17.576   3.420  0.1018 -0.2020 -0.3569
13870W        W29339   2.568   7.649   2.404 -0.2969 -0.0520  0.1009
13871W        W29340   0.043   7.728  15.786  0.1727 -0.2329 -0.0658
13872W        W29341  15.570   9.528   0.632 -0.2289  0.0331 -0.0740
13873W        W29342  11.972  15.754  12.768 -0.0049 -0.3197  0.6002
13874W        W29343   5.515  16.713  14.157  0.2952 -0.1981 -0.1092
13875W        W29344   2.498   7.870   0.282 -0.2016  0.2924  0.0470
13876W        W29345  14.085   4.533  14.711  0.0199 -0.3808 -0.1611
13877W        W29346   5.986   6.311  13.353 -0.1039  0.2283 -0.1103
13878W        W29347   6.027  12.934   4.775  0.1154 -0.0584 -0.0697
13879W        W29348   7.233   1.573   0.531 -0.0318  0.3186  0.0043
13880W        W29349  10.395   6.716  12.710 -0.0391  0.2400 -0.4078
13881W        W29350   8.979  17.630  15.290 -0.2024 -0.0850  0.0692
13882W        W29351   7.466   3.841   3.133  0.1693 -0.0699 -0.0448
13883W        W29352   7.022  10.810   1.829  0.1174  0.1124 -0.0441
13884W        W29353  17.153  11.047   3.780  0.2392  0.1599  0.1901
13885W        W29354   8.878  16.718   3.347  0.2360 -0.0526 -0.1508
13886W        W29355  14.573  10.554   1.645  0.0652  0.1582 -0.2574
13887W        W29356   4.055   5.599   4.423  0.2990 -0.2856  0.1899
13888W        W29357   1.856  13.128   2.084 -0.0242  0.0587  0.2000
13889W        W29358   5.077   6.484   2.498 -0.2709  0.1531 -0.1749
13890W        W29359   3.060  15.759   1.416 -0.2228 -0.3422 -0.0736
13891W        W29360   6.218   5.156  14.313 -0.2907  0.5074  0.1817
13892W        W29361   0.356  13.530  14.838  0.3014  0.1428  0.3475
13893W        W29362   3.279  13.891   3.210  0.1784  0.2924 -0.3268
13894W        W29363   0.612   8.025  11.504  0.0656 -0.0189 -0.1300
13895W        W29364   2.193   6.605   0.566 -0.1523  0.3644 -0.0870
13896W        W29365   8.792   3.486   2.861  0.0043 -0.2045  0.1247
13897W        W29366   4.178  14.064  13.840  0.2786 -0.1726 -0.0723
13898W        W29367  15.021   9.523   3.153 -0.1651  0.1939  0.3331
13899W        W29368   0.292   6.743   4.191  0.0061  0.2596  0.0153
13900W        W29369   7.147  11.988   2.123  0.1308  0.2032 -0.1634
13901W        W29370  14.315   8.985   3.204 -0.1756  0.0335 -0.3373
13902W        W29371   2.150   7.935   4.413 -0.2924  0.1318 -0.2021
13903W        W29372   1.733   5.951   0.006 -0.2172 -0.1728 -0.2266
13904W        W29373   9.033   6.315  14.623 -0.0195  0.2034 -0.1247
13905W        W29374   2.611   1.135   3.176  0.1137  0.3262 -0.2042
13906W        W29375   8.335  11.986  11.468  0.1162 -0.0084 -0.3339
13907W        W29376  13.658  12.472  12.770  0.0084 -0.1101  0.1148
13908W        W29377   3.232  10.337  15.795 -0.1646 -0.2355 -0.2181
13909W        W29378  14.157   3.881  11.737 -0.2174  0.0065 -0.0524
13910W        W29379  13.298  11.944  11.552 -0.0583 -0.2488 -0.2428
13911W        W29380   3.839   7.725  13.577  0.1511 -0.1066  0.1736
13912W        W29381   6.221   8.343  16.005  0.1945 -0.0822 -0.0421
13913W        W29382   4.266  15.486   1.502  0.1836 -0.4731 -0.1008
13914W        W29383  15.327   3.151   2.463  0.1487  0.2986 -0.0113
13915W        W29384   5.475   6.871  15.391 -0.1043  0.0713 -0.1180
13916W        W29385   9.309   4.692   1.184 -0.0017  0.0941  0.0779
13917W        W29386  13.322  16.279   3.278 -0.2054  0.0239 -0.1210
13918W        W29387  12.103  17.803  13.110  0.0782  0.0341 -0.0502
13919W        W29388  14.128  16.477   0.558 -0.1907 -0.1981 -0.1094
13920W        W29389  14.058  15.764  15.934  0.0626  0.2247  0.1679
13921W        W29390  10.791  10.783  13.048  0.0365 -0.0353  0.1557
13922W        W29391  12.642   9.557   2.006  0.3735 -0.4434 -0.2166
13923W        W29392  16.430  17.478  13.628  0.1092  0.0753 -0.1563
13924W        W29393   2.921   1.583  15.380  0.1293 -0.2642  0.2487
13925W        W29394  13.376   9.952   1.480  0.1001  0.2010 -0.3414
13926W        W29395   8.652   7.191   5.296  0.2383 -0.0131  0.0958
13927W        W29396   8.614  16.027   4.001  0.3084  0.0754  0.3848
13928W        W29397  11.047   0.961  12.356  0.0245  0.3096  0.1307
13929W        W29398   5.174  13.872   6.312  0.0277  0.4807 -0.1311
13930W        W29399  13.454   9.015   4.647 -0.0701  0.2381 -0.1481
13931W        W29400  10.663  11.866  11.619  0.2160 -0.0210 -0.0933
13932W        W29401  14.312  16.754   4.565  0.0217  0.0487 -0.4205
13933W        W29402   4.458  10.389  12.357  0.0555 -0.0632 -0.0564
13934W        W29403   9.031  16.223  12.514 -0.0136 -0.0355 -0.3124
13935W        W29404  15.906   6.444  14.559 -0.0989 -0.2707  0.3132
13936W        W29405  12.564   0.677  13.753  0.0305  0.1861 -0.2993
13937W        W29406  14.387  14.942   1.305  0.1790  0.0247 -0.0880
13938W        W29407  16.646   8.958   0.370 -0.3877 -0.0419 -0.1084
13939W        W29408  17.007  14.167  16.399 -0.1350 -0.2516 -0.0714
13940W        W29409  16.684   7.303   2.922  0.1414  0.3305  0.0065
13941W        W29410   3.107   5.471  11.611  0.0556 -0.0619  0.3584
13942W        W29411   0.169  14.785   2.218 -0.0598  0.1100  0.3146
13943W        W29412  16.050   2.921  12.298 -0.0765  0.3584  0.0743
13944W        W29413  13.344   9.459   1.447 -0.0411  0.2460 -0.3202
13945W        W29414   4.909  12.789  13.986 -0.0864  0.1985  0.0474
13946W        W29415   3.553   2.661   4.346 -0.1717  0.3363 -0.1973
13947W        W29416   8.704  12.688  10.845  0.1140  0.0494  0.1322
13948W        W29417  13.804  16.896  15.051  0.0288  0.0382 -0.0069
13949W        W29418  10.640   7.529   1.391 -0.2334  0.1169 -0.3147
13950W        W29419  15.261   5.204   1.750  0.0201  0.0671 -0.3630
13951W        W29420   3.556  16.753  12.225  0.0597 -0.1642  0.0054
13952W        W29421   7.711  14.861  15.729  0.3412 -0.0593 -0.0385
13953W        W29422   7.199  17.137   2.719 -0.1493  0.0378 -0.0056
13954W        W29423   8.132  16.584  10.964 -0.0774  0.3477  0.2755
13955W        W29424  13.305   0.838   6.015  0.4974  0.2903  0.0313
13956W        W29425  10.901  12.333   4.494  0.0322  0.0140  0.1521
13957W        W29426   9.679  14.220   0.288  0.0411 -0.1152  0.0219
13958W        W29427  17.414   5.669   4.645  0.0396  0.2005  0.2603
13959W        W29428  14.094   0.679   1.670  0.0338  0.2772  0.1617
13960W        W29429   7.664   4.484  12.289  0.0914 -0.1546 -0.1225
13961W        W29430  14.952  17.344  14.734 -0.2831  0.0861 -0.1856
13962W        W29431  14.781   2.885  11.216 -0.3668  0.0946  0.0661
13963W        W29432   3.932   8.715  16.508  0.0440 -0.1974 -0.0868
13964W        W29433   4.793   1.660  15.212  0.0250 -0.1941 -0.0397
13965W        W29434  12.485   4.084   3.023 -0.0456 -0.0605  0.4584
13966W        W29435  12.145   7.582  16.194 -0.0777 -0.0324 -0.0667
13967W        W29436   9.713  11.260  11.059  0.1892 -0.1681  0.1540
13968W        W29437  10.724   4.350  12.884 -0.1001 -0.0733  0.0241
13969W        W29438   9.476   6.615   0.820  0.1001 -0.0186 -0.1327
13970W        W29439   0.786   9.422   0.605  0.2273 -0.0824 -0.1678
13971W        W29440   5.779   6.445   4.636  0.0048 -0.1177 -0.1077
13972W        W29441  12.985  10.798  12.420  0.0100  0.2505  0.1857
13973W        W29442   6.479  15.844   1.347  0.1124  0.0780  0.0678
13974W        W29443  14.594   9.394   1.435  0.0329 -0.2457  0.0402
13975W        W29444   1.944  14.608   5.508  0.0801  0.0536 -0.1332
13976W        W29445   2.102   3.866  12.173  0.0269 -0.3773  0.1086
13977W        W29446   7.129  17.495   0.077  0.1723  0.0667  0.2974
13978W        W29447   2.394  11.984  14.690 -0.1395 -0.1692 -0.2322
13979W        W29448   3.751   4.842   2.481  0.0678  0.0368  0.0537
13980W        W29449   1.281  15.578  11.125  0.0662 -0.0288 -0.0854
13981W        W29450  15.256   8.056   0.995 -0.4308  0.4509 -0.1716
13982W        W29451   4.095   8.019  13.884  0.1048 -0.2351 -0.1840
13983W        W29452  17.152  14.594  15.004 -0.0950 -0.1189  0.1108
13984W        W29453   4.300   1.707  13.159  0.0799  0.0245  0.3511
13985W        W29454   5.441   2.415  15.223  0.1825 -0.0523 -0.0526
13986W        W29455  14.767   0.908  12.636  0.3376 -0.0831  0.1427
13987W        W29456   6.645   4.742   2.927 -0.1520 -0.1657 -0.0729
13988W        W29457  15.094  15.530   5.028 -0.0774 -0.1684  0.0108
13989W        W29458   6.306  12.872  13.498  0.4454  0.0483  0.0168
13990W        W29459  10.645   5.361  13.724  0.0324  0.2762 -0.1566
13991W        W29460  17.919  15.404   1.771 -0.2308  0.0563  0.0557
13992W        W29461   1.121   2.963   2.193 -0.0780 -0.0611 -0.0405
13993W        W29462  17.007  14.511  12.206 -0.0432  0.4357 -0.0994
13994W        W29463  10.128  16.062  12.549 -0.2406 -0.0077 -0.0703
13995W        W29464  15.641   3.939   3.871 -0.0989  0.0573 -0.1017
13996W        W29465   4.720   7.054  13.040  0.1888 -0.1013  0.1928
13997W        W29466   9.070   5.929  11.489  0.3810  0.2395 -0.0173
13998W        W29467   6.104   2.191   5.013  0.2208 -0.1313  0.3609
13999W        W29468  15.574   5.002   2.774  0.0160 -0.2881  0.0613
14000W        W29469  15.390   6.816   4.588  0.3508 -0.3600 -0.0256
14001W        W29470  10.743   2.080   2.762  0.3427 -0.0803 -0.2068
14002W        W29471   0.705  12.652  15.275  0.1239 -0.0093  0.1089
14003W        W29472   6.918   8.094  11.786  0.0542 -0.3862 -0.0233
14004W        W29473   7.160   4.303  10.600 -0.0587  0.0608  0.1364
14005W        W29474   4.746  11.667  11.768 -0.0908  0.0719  0.0469
14006W        W29475  10.551  14.657   5.392 -0.2239 -0.1435 -0.1233
14007W        W29476   8.615   8.096   4.874 -0.1285  0.1317  0.2399
14008W        W29477   6.960   8.954  12.003  0.0097 -0.1709 -0.0781
14009W        W29478   5.291   0.330   2.622  0.2903  0.0007  0.0157
14010W        W29479  16.505  12.782   1.414 -0.0098  0.1563  0.0315
14011W        W29480  15.486  10.882   5.362 -0.1471 -0.1308  0.0592
14012W        W29481  11.662   9.335   0.807  0.1091  0.2204  0.0161
14013W        W29482  13.030  11.152  16.101  0.2427  0.2205 -0.0769
14014W        W29483   7.591   4.034  12.003 -0.0654 -0.2747  0.2485
14015W        W29484  16.864   3.091  13.101 -0.2675 -0.1743 -0.5345
14016W        W29485  14.070  16.176   0.960 -0.1128  0.0476  0.1003
14017W        W29486   1.664  12.582  13.789  0.0954  0.0922 -0.2898
14018W        W29487   0.551  14.521   3.525  0.2093 -0.0023 -0.2079
14019W        W29488   2.054   2.523  15.392 -0.1661  0.0633 -0.2446
14020W        W29489  15.966  16.346  16.046 -0.0745 -0.0418  0.4520
14021W        W29490  16.523   4.626   3.903  0.3506 -0.2614 -0.3804
14022W        W29491  13.537   2.493  15.878  0.1272  0.2870  0.1952
14023W        W29492   0.689   4.199   4.937  0.0192 -0.0552 -0.1031
14024W        W29493  10.594   7.669  12.378  0.2008  0.0774  0.1959
14025W        W29494  14.845  13.533  16.609 -0.2355 -0.2077  0.0271
14026W        W29495   5.191  13.631   1.219 -0.0128 -0.1474 -0.1168
14027W        W29496   9.492   2.292   2.811  0.1259 -0.1963  0.1575
14028W        W29497  11.754   4.436   2.532  0.1901  0.0940 -0.0326
14029W        W29498  17.175  14.366   3.636  0.1214  0.4949 -0.1646
14030W        W29499   4.151   5.662   3.341  0.3727  0.0437  0.3200
14031W        W29500  13.411   6.001  15.641  0.0187 -0.1057 -0.1753
14032W        W29501   3.186   8.810  15.580 -0.0098  0.0886  0.2284
14033W        W29502  16.473   3.599   4.216  0.0812 -0.0658 -0.0034
14034W        W29503   7.346  15.557  16.396 -0.1989  0.1818 -0.4255
14035W        W29504  13.132  12.062   0.437 -0.1617  0.3076 -0.0160
14036W        W29505  12.514   1.295  13.519  0.1747  0.2502 -0.0354
14037W        W29506   8.731   0.964   5.573 -0.0970  0.0266 -0.3572
14038W        W29507   2.598   9.004  13.422  0.3198  0.0908  0.1351
14039W        W29508  13.877  10.277  14.291 -0.0453  0.2312 -0.0995
14040W        W29509  12.285   6.276   5.062 -0.0788  0.1832 -0.1510
14041W        W29510   1.959   9.293   3.835 -0.1711 -0.1770  0.1108
14042W        W29511   0.803   2.010  13.270 -0.0012  0.0893 -0.1984
14043W        W29512  12.906   7.070  13.885  0.0348 -0.1631 -0.0096
14044W        W29513  10.926   3.876   3.094 -0.0443  0.0385 -0.0812
14045W        W29514  17.442  14.885   1.149 -0.0165 -0.1217  0.1415
14046W        W29515   6.355   8.745   1.674  0.3613 -0.0335 -0.0083
14047W        W29516  10.324   7.666   3.103 -0.1805  0.3487  0.1641
14048W        W29517  15.875   6.724   2.773 -0.2117  0.1088  0.0588
14049W        W29518   4.371   3.211   4.206  0.2758  0.0252 -0.4152
14050W        W29519   6.146   9.654   1.734 -0.1457 -0.1166  0.1381
14051W        W29520   7.633   8.461  11.597  0.0415 -0.2264 -0.1382
14052W        W29521   3.771  13.993   4.273  0.3342 -0.0063 -0.3453
14053W        W29522   5.895  15.835  12.783 -0.0016 -0.0456  0.1771
14054W        W29523  16.417   5.380  11.248 -0.2386  0.0240  0.1890
14055W        W29524  17.269   5.085  10.806  0.0983 -0.1441 -0.1006
14056W        W29525   6.198   6.249  14.212  0.0461 -0.1215  0.0119
14057W        W29526   8.356  13.643  15.993 -0.0574  0.1075  0.1071
14058W        W29527   9.988  16.257  13.208 -0.0364  0.0103  0.2043
14059W        W29528  17.043   3.934  13.561  0.3059 -0.1599  0.0442
14060W        W29529  13.452   7.646  13.310  0.2808  0.1003 -0.1548
14061W        W29530  15.178  15.206   0.718  0.0226 -0.0273 -0.0442
14062W        W29531  10.291  14.834   0.664  0.4713 -0.1591 -0.3043
14063W        W29532  14.849  12.292  11.359  0.2671 -0.2507  0.1238
14064W        W29533   8.481   7.897  13.698 -0.0710  0.0537 -0.0715
14065W        W29534   5.671  17.759  11.805  0.2457  0.0241  0.3237
14066W        W29535   6.777   4.517   5.114 -0.1491  0.0596  0.1640
14067W        W29536   9.093  15.640  16.044 -0.1659  0.0803 -0.2508
14068W        W29537   7.951   2.535   5.554 -0.1997 -0.1672 -0.0484
14069W        W29538  17.981  10.016  10.681 -0.0525 -0.0234  0.1259
14070W        W29539   1.950   4.744  12.642  0.3151  0.1271  0.0819
14071W        W29540  12.327  13.472   0.511 -0.0550 -0.2064 -0.0136
14072W        W29541  15.500   8.781   1.879  0.1365 -0.3143 -0.1566
14073W        W29542  12.074   1.968   4.251 -0.1978 -0.3666 -0.0819
14074W        W29543   8.052   8.969  15.209 -0.1298 -0.0440  0.1185
14075W        W29544   8.772  14.888   0.679  0.0189  0.0405 -0.0255
14076W        W29545   4.347  12.552  13.991  0.0177 -0.1761  0.1976
14077W        W29546  11.156  14.064   5.865 -0.2745  0.1548  0.2558
14078W        W29547  11.449  17.097   3.243  0.1003 -0.1577  0.0818
14079W        W29548  17.380   2.872   0.046 -0.1593 -0.0561 -0.1071
14080W        W29549  16.634   9.779  12.627 -0.1173 -0.2546 -0.0442
14081W        W29550   3.163  12.907   4.847  0.1270 -0.0864  0.1791
14082W        W29551   2.408  17.347  14.629 -0.2318  0.0534  0.0290
14083W        W29552  13.050   0.285   1.205 -0.3504  0.0322  0.0137
14084W        W29553   6.552   6.941   2.555  0.0793  0.1138 -0.2563
14085W        W29554  17.338  14.795   2.140  0.2198  0.0912  0.0038
14086W        W29555   3.249  12.135   3.871  0.1330 -0.2444 -0.0379
14087W        W29556  17.410  15.553  13.657 -0.0801  0.1780 -0.0821
14088W        W29557  11.354   7.459   2.722 -0.1165 -0.2970  0.0484
14089W        W29558  11.635   8.973   5.568  0.1201  0.0391  0.0664
14090W        W29559   2.470  12.542   4.140  0.3250 -0.2549  0.2851
14091W        W29560   6.233   1.799   3.074  0.0015  0.1785  0.1889
14092W        W29561   5.490   6.717   2.313  0.0857  0.1181  0.0126
14093W        W29562  11.731   0.972  10.771 -0.4085  0.0065  0.1931
14094W        W29563  13.980  15.595   5.651  0.0357 -0.0264 -0.0618
14095W        W29564   0.288   5.219  11.198  0.0762  0.1072 -0.1766
14096W        W29565  14.422   2.981   5.414  0.3587  0.0969 -0.1091
14097W        W29566  15.018  17.982   3.754 -0.1339 -0.2128 -0.0618
14098W        W29567   1.411  11.848   3.780  0.1351  0.3562 -0.4338
14099W        W29568   8.906  10.653  11.197 -0.1931 -0.0287  0.2014
14100W        W29569  15.040   5.871  13.205  0.0189 -0.2611 -0.1337
14101W        W29570   2.329  10.308  15.360  0.1268  0.0371 -0.0812
14102W        W29571   4.869  17.135   1.301 -0.1073 -0.0433  0.0354
14103W        W29572  11.773  12.128  13.535 -0.0052  0.2591  0.1115
14104W        W29573  16.377  12.954  15.883  0.3694 -0.0396  0.1038
14105W        W29574   1.763   4.711   5.588 -0.1127 -0.0101  0.1946
14106W        W29575  13.085   2.777   1.345  0.2587  0.1516  0.0025
14107W        W29576   6.328   6.646   4.739 -0.1311 -0.0268  0.1262
14108W        W29577   6.393  12.752  12.152  0.0012 -0.0765 -0.2278
14109W        W29578   2.623  13.060   0.338 -0.0091 -0.1425 -0.0919
14110W        W29579   0.907   4.150  12.735 -0.0098  0.0005 -0.1259
14111W        W29580   1.746  16.115   0.131  0.1239  0.2286 -0.2719
14112W        W29581  13.546  15.121  14.131  0.0436 -0.0637 -0.1087
14113W        W29582   3.120  14.410   1.434  0.4635  0.0220 -0.1701
14114W        W29583  12.318  16.820  13.528 -0.1888  0.0973 -0.1060
14115W        W29584   9.822   7.273   3.886  0.0901  0.0671 -0.0873
14116W        W29585   4.459   2.595  12.087  0.1452  0.2508 -0.3486
14117W        W29586   7.100   2.479   1.353 -0.1180  0.2051  0.0925
14118W        W29587   2.625  11.862   4.680 -0.1951  0.2571  0.1095
14119W        W29588   7.314   2.554  15.824  0.1838  0.1757  0.1871
14120W        W29589   8.062   4.478   5.477  0.2413 -0.3138  0.3103
14121W        W29590  14.155   9.372  12.779  0.0254 -0.3065  0.0335
14122W        W29591   0.558  17.636   1.396  0.0068 -0.1338  0.1494
14123W        W29592  11.453   0.398   2.913  0.2024  0.3947  0.5375
14124W        W29593   0.989  13.194  15.109 -0.2265  0.1388  0.0976
14125W        W29594  12.506   2.998   0.902  0.0945  0.2966  0.2362
14126W        W29595   9.617   5.760   5.169 -0.1814 -0.1344  0.1591
14127W        W29596   1.458  14.313  16.324 -0.0746 -0.5345 -0.0734
14128W        W29597   8.117   5.697  13.752  0.1645 -0.2258  0.0632
14129W        W29598  10.920  15.450  15.875 -0.2501  0.0038  0.1562
14130W        W29599   2.506  17.730  11.591 -0.1622  0.2840  0.0619
14131W        W29600   4.477  15.525  15.399 -0.2911  0.0220 -0.1308
14132W        W29601   3.897  17.950  10.836 -0.1539  0.1175  0.3111
14133W        W29602  17.213   0.550  12.166 -0.4233  0.0827 -0.1382
14134W        W29603   9.764  10.374   0.271  0.2401 -0.1960  0.1372
14135W        W29604   1.672  14.900   4.158  0.0271 -0.0348  0.3002
14136W        W29605   5.807   2.716   4.364 -0.2597 -0.1431  0.0243
14137W        W29606  17.356   5.305   0.002  0.1444  0.2943  0.1526
14138W        W29607  17.585   6.261  10.881  0.3664  0.0238 -0.1905
14139W        W29608  13.443  12.636   3.921  0.3175  0.0631 -0.0865
14140W        W29609   9.288   8.689   0.847  0.0205  0.2489 -0.2624
14141W        W29610  11.064   5.510  13.524 -0.1352  0.0419  0.1797
14142W        W29611   6.500  15.740  12.014 -0.1393 -0.1247  0.2529
14143W        W29612  11.478   1.149   2.342 -0.1561 -0.2199  0.0824
14144W        W29613  17.542   5.868  15.927 -0.1773 -0.2573  0.0502
14145W        W29614   4.883   9.039   3.480 -0.2822  0.3257  0.0544
14146W        W29615  10.924  10.987   3.158 -0.2170  0.1651 -0.0016
14147W        W29616  11.472  10.557   3.702  0.2456  0.1330  0.2743
14148W        W29617   3.959   5.942   1.461 -0.0590  0.2202  0.2011
14149W        W29618  14.848   4.878  15.198  0.3024 -0.1220  0.0966
14150W        W29619   2.588   1.190  14.448 -0.1344  0.1047 -0.0608
14151W        W29620  16.895   9.089  13.778 -0.2978  0.2336  0.4472
14152W        W29621   7.080   8.901  14.758  0.1475  0.0127  0.2624
14153W        W29622   6.144  11.514  16.270 -0.1329 -0.1580 -0.1406
14154W        W29623  16.149  12.347  14.450 -0.0671  0.0888  0.3984
14155W        W29624   4.725   0.628  14.191 -0.0930  0.0211  0.1379
14156W        W29625   9.178  11.568   2.610 -0.2660 -0.2431 -0.1474
14157W        W29626  12.676  10.939  11.963 -0.0431  0.1589 -0.0193
14158W        W29627   2.622   2.727  11.953 -0.0960  0.3119  0.0916
14159W        W29628   1.250  15.910  15.666  0.0049 -0.1479 -0.0397
14160W        W29629   2.030   6.894  11.811  0.3455 -0.1903  0.1495
14161W        W29630   9.204   4.207  15.856  0.0121  0.0750 -0.2332
14162W        W29631   9.438  10.769   5.905 -0.2447  0.0080  0.0011
14163W        W29632  11.064  14.391  15.413 -0.0182 -0.2533 -0.0043
14164W        W29633   8.243   6.496  12.517 -0.1978 -0.2117  0.0662
14165W        W29634   8.246   7.715   5.006 -0.1881  0.3573  0.0481
14166W        W29635  11.910  14.279   3.052  0.0710  0.2676 -0.0710
14167W        W29636   8.545  11.619   3.709  0.0287  0.0532  0.0633
14168W        W29637   4.301  11.871   2.248 -0.0049 -0.0570  0.0342
14169W        W29638  17.008  13.958  13.334 -0.1009  0.0871 -0.0469
14170W        W29639   2.954   7.044  15.744  0.0441  0.1774  0.0433
14171W        W29640   3.222   8.012   4.471  0.0725 -0.1594 -0.0117
14172W        W29641  13.850  12.487   0.717  0.0310  0.3941  0.1299
14173W        W29642  12.057   4.267  13.967 -0.0429  0.0158  0.0818
14174W        W29643   6.645  15.224  11.881 -0.0011 -0.2791 -0.0775
14175W        W29644   6.772   0.067   2.149 -0.0534  0.0692  0.2267
14176W        W29645   9.678   7.750  13.339 -0.2641 -0.2182  0.0170
14177W        W29646   5.034  15.838   3.787  0.0765 -0.1326 -0.0952
14178W        W29647  17.722  14.028  15.428 -0.0676 -0.2629  0.2920
14179W        W29648   5.327   4.163   0.335  0.1246 -0.0166  0.1084
14180W        W29649   6.453   9.890   0.811 -0.2433  0.1703 -0.1364
14181W        W29650   4.046  16.290   3.843  0.0776  0.1121  0.5024
14182W        W29651  14.788   7.622  13.472  0.0306  0.1633 -0.1696
14183W        W29652   3.567  15.029  11.360  0.4855  0.0642  0.1878
14184W        W29653  10.317  14.939   3.419  0.0982 -0.1923  0.2644
14185W        W29654   5.031  14.920  11.624  0.1418 -0.2065 -0.2891
14186W        W29655   2.072   5.651  11.548  0.0054  0.2229 -0.1250
14187W        W29656   0.666   4.853  15.617 -0.1177  0.2572 -0.2881
14188W        W29657   8.537  14.479  13.652 -0.1577 -0.1494  0.0233
14189W        W29658   2.109   3.549  11.046 -0.3503  0.2718 -0.0222
14190W        W29659  14.511  14.866  13.538  0.0458  0.1511 -0.0227
14191W        W29660   0.664  17.849   3.364  0.0344 -0.1619  0.1542
14192W        W29661   0.062   6.347   0.025 -0.2038  0.2988  0.0953
14193W        W29662  17.579   1.928  10.581 -0.0183 -0.0320 -0.1772
14194W        W29663   9.964  10.611  16.432 -0.3800 -0.0566 -0.1707
14195W        W29664   6.726   1.379   1.312 -0.2205 -0.1120 -0.0994
14196W        W29665   1.214   5.654   2.986 -0.0770  0.1676  0.1234
14197W        W29666  17.127   5.638  15.377 -0.0848 -0.1615 -0.1490
14198W        W29667   6.910  12.334   3.755 -0.2334  0.0396  0.2051
14199W        W29668  10.223  12.331  14.464  0.0495 -0.2974 -0.3277
14200W        W29669   7.681   0.564  14.828  0.3168 -0.1673  0.2081
14201W        W29670  16.963  13.041   5.039  0.1637  0.2981 -0.0076
14202W        W29671   6.525  14.377   5.122  0.3976  0.1101 -0.0196
14203W        W29672   4.888  10.472  14.392 -0.3196 -0.1981 -0.0823
14204W        W29673  14.828   7.754   5.167  0.2293  0.5118  0.0674
14205W        W29674  14.118   7.242  14.754 -0.2995  0.3136  0.1621
14206W        W29675   3.098  11.743   3.349 -0.0617  0.0647 -0.0117
14207W        W29676  11.482  13.039   3.097  0.0234 -0.2090 -0.3164
14208W        W29677   5.374   8.745  13.406  0.3642  0.0602  0.3323
14209W        W29678   3.219   7.980   0.936 -0.1141  0.1900 -0.1303
14210W        W29679   1.807   1.094   4.997  0.3246  0.1684 -0.1161
14211W        W29680  11.441   8.225   3.555 -0.0813 -0.3083  0.0078
14212W        W29681   4.767  16.214  13.846  0.0373 -0.1842  0.0677
14213W        W29682  11.327   3.634  13.147  0.0705  0.0992  0.1225
14214W        W29683   7.288  11.214  10.822 -0.3613  0.1860 -0.0487
14215W        W29684  13.670   0.891  15.593  0.0169  0.0923  0.2296
14216W        W29685   5.389   9.958   3.869  0.1730  0.1268 -0.1242
14217W        W29686   6.035   9.530   0.834  0.1026  0.2210  0.0900
14218W        W29687  14.734   4.153  14.560  0.0048 -0.0941  0.0492
14219W        W29688   7.252  17.098   0.910  0.1872 -0.0957 -0.0326
14220W        W29689  11.787  13.019   1.603  0.0897  0.1196 -0.0031
14221W        W29690  16.370  15.205  14.316 -0.0676 -0.2844  0.4299
14222W        W29691   6.835  13.070   1.530  0.0298  0.0638  0.1498
14223W        W29692  16.833   8.401  15.563  0.0033 -0.1521  0.1058
14224W        W29693  13.717  10.556   4.738  0.0435  0.1914 -0.2538
14225W        W29694   6.820  13.988  12.199  0.0793 -0.1203  0.1197
14226W        W29695  15.891   7.743   5.468 -0.2440 -0.1986 -0.1368
14227W        W29696  11.104   4.138  13.199 -0.3434 -0.1910 -0.0645
14228W        W29697  13.577   6.749  14.576 -0.1564 -0.3029  0.2819
14229W        W29698   4.636  14.550  15.467  0.1180 -0.1588  0.0216
14230W        W29699   1.685   4.828   0.670  0.2620  0.1126 -0.1434
14231W        W29700   1.179   9.585  16.257 -0.1483 -0.2144  0.1227
14232W        W29701  12.320   8.445   0.648  0.0659  0.2475 -0.0655
14233W        W29702  17.247   7.676  14.636 -0.3251  0.1433  0.2011
14234W        W29703  16.983  17.636  11.864 -0.3564 -0.1500  0.1139
14235W        W29704   2.803   5.098  11.360  0.0846  0.1888  0.0025
14236W        W29705   3.545  14.600  15.922 -0.1738  0.2173  0.4339
14237W        W29706  16.443  14.867   6.798 -0.1766  0.0281 -0.4268
14238W        W29707   2.645   1.510   5.552 -0.1525 -0.0137  0.0545
14239W        W29708  11.509  16.503   2.236 -0.0978 -0.0766 -0.0746
14240W        W29709  16.491   4.283  12.719  0.0035  0.1537  0.0467
14241W        W29710   4.452   8.175   2.821 -0.0128  0.1191  0.1226
14242W        W29711  15.530  15.614  15.574  0.1607  0.2403  0.3201
14243W        W29712   6.849  11.282  13.718 -0.1989  0.0844  0.0486
14244W        W29713   2.768  12.602   2.121  0.3661  0.2943  0.4411
14245W        W29714  12.164   6.215   2.754  0.1026 -0.1817  0.2259
14246W        W29715   2.160   8.318  13.036 -0.1099 -0.2836  0.1420
14247W        W29716  13.502   2.390  14.510  0.0446  0.3003 -0.0083
14248W        W29717   6.981  13.965  10.465  0.0947  0.2603  0.0749
14249W        W29718  13.780  13.540   2.975  0.0927 -0.0507 -0.1336
14250W        W29719  16.084   9.200   5.773  0.2159 -0.1127 -0.1829
14251W        W29720   3.579   1.757   2.727  0.0881  0.1138  0.1848
14252W        W29721  11.636   2.381   1.121  0.2149 -0.1666  0.1952
14253W        W29722  12.202   0.253   0.930 -0.2299  0.1279 -0.0123
14254W        W29723   6.692  14.165   4.131 -0.2043  0.0696  0.0922
14255W        W29724   8.370   9.756  13.909  0.0849 -0.1309  0.3434
14256W        W29725  13.199   0.567   3.322 -0.1441 -0.1513 -0.5021
14257W        W29726   9.719  16.638   5.171 -0.1705 -0.2856 -0.0449
14258W        W29727   3.588  12.777   0.981  0.0473  0.1621 -0.3974
14259W        W29728   5.977   8.676  15.050 -0.0793  0.2539  0.0083
14260W        W29729   3.928  12.051   1.190  0.0613  0.1251 -0.0569
14261W        W29730  11.509   5.905   4.163 -0.1786 -0.1160 -0.1478
14262W        W29731   2.389  12.980  16.476  0.0043 -0.0233 -0.3443
14263W        W29732   7.636  11.166  16.343  0.3430  0.0662  0.1254
14264W        W29733   4.574   8.272   5.494  0.2593 -0.1489 -0.3533
14265W        W29734  16.609  13.010  11.782  0.0486  0.0755 -0.0690
14266W        W29735   6.341   8.605  13.617 -0.0447  0.0948 -0.2567
14267W        W29736   4.458   9.072   0.618 -0.0201 -0.2146  0.2054
14268W        W29737  15.859   1.747  11.447  0.2105  0.4288 -0.1756
14269W        W29738   4.136  11.470  13.847 -0.1401  0.1670 -0.1509
14270W        W29739   7.660  17.933  14.279 -0.0731  0.0375 -0.1154
14271W        W29740   5.509   8.961  15.287  0.2855 -0.3243 -0.0200
14272W        W29741   7.854   7.183  11.979  0.1028 -0.0693 -0.1189
14273W        W29742   6.709  13.288  16.033  0.1127  0.1823 -0.2070
14274W        W29743   5.254   2.265  16.135  0.2588 -0.1030  0.0584
14275W        W29744   2.162   7.633  16.570 -0.1801  0.3964  0.0071
14276W        W29745  12.978   6.902   2.750 -0.0235  0.2331  0.0491
14277W        W29746   4.761  12.252  13.907 -0.0049  0.2045  0.0334
14278W        W29747  14.437   5.163  16.519  0.1761  0.2795  0.0685
14279W        W29748  11.385  15.754  11.343  0.2089  0.0815  0.0468
14280W        W29749   6.474  10.429  12.007  0.0258  0.0175  0.0990
14281W        W29750  14.705  11.428  11.138 -0.0383 -0.0114 -0.1702
14282W        W29751   3.361   8.234   1.486 -0.0894 -0.1484  0.3017
14283W        W29752  12.841  14.793   1.186  0.2246  0.0146  0.3298
14284W        W29753  16.038   0.930  16.611 -0.1603 -0.1113 -0.0683
14285W        W29754   6.676  16.498  14.905  0.2948  0.2818  0.2591
14286W        W29755   8.146   8.240  10.793  0.1746 -0.1030 -0.3086
14287W        W29756  17.698  12.443   4.106 -0.2873  0.1052  0.2544
14288W        W29757   6.650   0.553  12.203 -0.1992 -0.1529  0.0029
14289W        W29758   3.147   3.366   4.924  0.2191 -0.0138 -0.0281
14290W        W29759  14.170  12.516   3.154 -0.0361 -0.0679  0.1348
14291W        W29760   9.112  12.645  16.424  0.1485 -0.1257 -0.1186
14292W        W29761   6.149  16.210   3.401 -0.5437 -0.0525  0.0043
14293W        W29762   0.601  15.373  11.966 -0.1813 -0.0050 -0.0224
14294W        W29763   0.303   2.135  13.267  0.0625 -0.1435 -0.0557
14295W        W29764   3.127  14.966   0.912 -0.1887  0.3447  0.0822
14296W        W29765   7.101   8.287  15.757 -0.1692  0.1166  0.3461
14297W        W29766  17.639   8.447   1.774  0.2292  0.1408 -0.0687
14298W        W29767  12.096   3.023  13.529 -0.0538 -0.4103 -0.2107
14299W        W29768   9.464  17.434  12.912  0.0461  0.2704 -0.1384
14300W        W29769  12.629  17.704   2.005 -0.1114 -0.0741 -0.0240
14301W        W29770  15.504  15.481   5.725  0.0855  0.0411  0.2011
14302W        W29771  10.042   6.406  12.983 -0.1573 -0.1853  0.2809
14303W        W29772   6.785  13.614   1.845 -0.1416  0.0477 -0.3238
14304W        W29773  14.836   3.522   1.007  0.1144 -0.3371 -0.0199
14305W        W29774   4.733   3.802  13.479  0.2882  0.0173  0.1638
14306W        W29775  16.956   1.990  14.652  0.1045  0.2565  0.4118
14307W        W29776   8.641  13.899  14.411  0.2024  0.1736 -0.1347
14308W        W29777   9.059  13.614   2.079  0.4046  0.2908  0.2961
14309W        W29778  10.451   7.990  10.152 -0.1727 -0.1865 -0.0327
14310W        W29779   3.327   2.852   4.778 -0.0818 -0.3005 -0.0743
14311W        W29780  11.647   9.381  11.276 -0.2912  0.1373  0.2463
14312W        W29781  12.235   4.887   1.914  0.0866 -0.1682  0.0926
14313W        W29782   4.646   9.308   1.017  0.0480 -0.1466  0.0707
14314W        W29783   6.907  10.038  15.362 -0.1849  0.0175 -0.0845
14315W        W29784  17.928   9.801   5.280  0.0750 -0.0550  0.2338
14316W        W29785  16.463  12.437  10.463  0.2390 -0.0491 -0.1516
14317W        W29786   6.866   4.915   1.487  0.0859 -0.1201 -0.1853
14318W        W29787  16.486   7.491   3.494 -0.1523 -0.2847  0.0819
14319W        W29788  17.953   7.867  12.111 -0.1062 -0.0702  0.2089
14320W        W29789   7.151  17.131   3.644 -0.1034 -0.1255 -0.0619
14321W        W29790  15.492  10.184   3.407 -0.4407  0.0782  0.0780
14322W        W29791  14.803   6.498  14.947  0.0413 -0.2577 -0.1213
14323W        W29792  14.018  12.517   1.636 -0.0831  0.1084 -0.3946
14324W        W29793  13.408   9.830  14.851 -0.0845 -0.0714 -0.1250
14325W        W29794  13.151   5.861  12.860 -0.2220 -0.1117  0.1694
14326W        W29795   2.378  15.506   0.963 -0.2015  0.1119  0.0165
14327W        W29796   7.901  17.001   5.357 -0.1162 -0.0308  0.1972
14328W        W29797  14.339   0.407  13.398  0.3824 -0.2770 -0.0293
14329W        W29798  14.980  13.601  14.201 -0.1071  0.0334  0.1600
14330W        W29799  15.963   9.097   2.014  0.1465  0.0037  0.0269
14331W        W29800   7.157  12.671  14.371 -0.1882 -0.1187 -0.3897
14332W        W29801  14.003   3.268   1.943  0.1850  0.3459 -0.2034
14333W        W29802   7.946  10.915  12.904 -0.0419  0.0603  0.0528
14334W        W29803   9.617   5.278  13.419  0.0814  0.0365 -0.0938
14335W        W29804  15.381   3.244  13.533 -0.2344 -0.0152 -0.1761
14336W        W29805  10.660  13.379  15.568 -0.0576 -0.2185 -0.0750
14337W        W29806   5.673   7.608  10.861 -0.0181  0.0933 -0.0923
14338W        W29807  17.008   9.632   2.837 -0.0632  0.1082  0.1124
14339W        W29808  11.788   6.823   2.097 -0.1892  0.1502 -0.3338
14340W        W29809  14.044  12.012   4.049 -0.0809  0.0519 -0.0264
14341W        W29810   1.537   3.555   0.158  0.3287 -0.0111 -0.4133
14342W        W29811  10.041  15.810   3.530 -0.2081  0.1677 -0.0454
14343W        W29812   4.481  12.205  13.493 -0.2365  0.2168  0.4520
14344W        W29813   5.180   7.902  14.340 -0.3022 -0.0703 -0.1879
14345W        W29814   2.338  11.502   0.849 -0.1122 -0.1537 -0.1065
14346W        W29815   5.870  14.539   0.355  0.0756  0.1197 -0.0243
14347W        W29816  16.510   8.956  10.710 -0.3736 -0.1828  0.1690
14348W        W29817   0.178   4.932   4.338  0.0665 -0.0214 -0.0681
14349W        W29818   1.342  15.960  13.669 -0.0331  0.0615  0.2561
14350W        W29819  10.872   0.505  14.053  0.1724  0.4164 -0.2117
14351W        W29820  13.350   0.618   2.276 -0.0876 -0.5660  0.3216
14352W        W29821   4.995  15.897   1.524  0.0895  0.0825  0.2460
14353W        W29822   1.669   1.074   2.701  0.0146 -0.0645 -0.0700
14354W        W29823  15.732   0.675   0.292  0.2065  0.1427 -0.0411
14355W        W29824   2.338  14.232  14.724  0.2004  0.3085 -0.0852
14356W        W29825  13.416  10.490   0.672  0.2605  0.0539 -0.0096
14357W        W29826   2.112  16.302   2.514  0.0922 -0.0545 -0.0513
14358W        W29827   5.980  11.442   3.075  0.2559  0.1191 -0.1689
14359W        W29828   6.725   4.360  13.866  0.0496  0.3134 -0.0037
14360W        W29829   4.766   9.108  15.185 -0.3208 -0.1048 -0.0710
14361W        W29830   5.030   9.904   3.044 -0.1826 -0.1029 -0.0266
14362W        W29831   2.027   3.896   2.801  0.3281  0.2177  0.3025
14363W        W29832   0.915  13.243   0.557 -0.0362  0.0020  0.2393
14364W        W29833   1.125   4.399   5.101  0.2688  0.0621  0.1492
14365W        W29834  17.948  16.824   2.971  0.4572  0.1618 -0.1401
14366W        W29835  13.811  10.733  15.199 -0.4662  0.1520  0.0276
14367W        W29836   0.845   6.176  15.928 -0.0325  0.1556 -0.2524
14368W        W29837  11.554   0.765   6.624  0.0815  0.2679  0.2101
14369W        W29838   5.680   2.087  14.910 -0.0173 -0.1219  0.1184
14370W        W29839   6.873  11.826   0.700 -0.1584  0.2237 -0.1170
14371W        W29840  17.692  10.793  12.996 -0.2076 -0.1670 -0.2004
14372W        W29841   9.507   8.599   4.992 -0.1563  0.2605  0.0213
14373W        W29842  14.575  17.374  12.634  0.1247 -0.1128  0.2536
14374W        W29843   8.969  11.738  14.629 -0.1785 -0.1534  0.2120
14375W        W29844  12.487   4.006   2.044  0.0488 -0.1588  0.1945
14376W        W29845  16.400  12.504   0.077  0.1032 -0.1806  0.3419
14377W        W29846   7.743   2.586   3.561  0.0152  0.0456 -0.0433
14378W        W29847   7.536  12.089  12.987  0.1897 -0.3080 -0.0411
14379W        W29848  14.892   1.713   5.702 -0.1979 -0.0816  0.2171
14380W        W29849  11.178   6.017   3.263  0.1003  0.0622  0.0032
14381W        W29850  11.670   1.016   4.595  0.2782 -0.0168  0.0472
14382W        W29851  12.627  11.988  12.853  0.1630  0.0274 -0.2112
14383W        W29852   5.809   3.643   4.651  0.0170  0.0020  0.3294
14384W        W29853   6.661  12.368  12.930 -0.2396  0.0394 -0.0087
14385W        W29854  10.675   6.966   1.469 -0.1173 -0.1789 -0.4656
14386W        W29855   3.008   4.290   5.379 -0.0505  0.0392  0.0559
14387W        W29856  15.904   7.020  16.124 -0.0948 -0.2871 -0.1033
14388W        W29857  15.817  15.795  12.835  0.1859  0.0295  0.0364
14389W        W29858   9.191  10.632   5.501  0.0351 -0.0582  0.0794
14390W        W29859   3.059   5.646   3.797 -0.1775 -0.1625 -0.0644
14391W        W29860  10.683  16.414   3.508 -0.2251  0.3455  0.1083
14392W        W29861  12.599  15.686  15.965  0.0281 -0.1484  0.1897
14393W        W29862  16.205   0.427   1.823  0.3818  0.2152  0.0228
14394W        W29863   5.098  11.383  11.637 -0.3107 -0.0751  0.3547
14395W        W29864   2.069  12.682   4.862  0.3254 -0.0589 -0.1990
14396W        W29865   0.895  17.370   5.393 -0.0582  0.1669  0.2077
14397W        W29866  14.747   8.269  12.509 -0.1969 -0.1626 -0.3390
14398W        W29867  10.510   3.433   0.694  0.0913 -0.0111 -0.0059
14399W        W29868   8.811  14.461   0.392  0.2113  0.1280  0.0359
14400W        W29869  17.915  12.798  14.053  0.0568 -0.0510  0.1149
14401W        W29870  12.528   4.285   4.511 -0.0162  0.2347  0.1189
14402W        W29871   7.367  11.373   1.144 -0.2605 -0.0153 -0.3861
14403W        W29872  12.294   5.252   0.154  0.2585 -0.2738 -0.3109
14404W        W29873  17.944  15.666   3.714  0.1592 -0.0334  0.2608
14405W        W29874  15.319  15.416  12.777  0.1877  0.2880 -0.0307
14406W        W29875  14.363   7.712   3.646  0.0954 -0.1894  0.1299
14407W        W29876   0.341   9.209  13.845 -0.0043  0.1039 -0.3002
14408W        W29877   4.959  10.700   6.029  0.2256 -0.0731  0.1713
14409W        W29878   2.366  13.068   5.019 -0.1574 -0.0534 -0.0042
14410W        W29879   2.268   7.867  12.929 -0.1649 -0.0372 -0.2577
14411W        W29880  11.961  12.252  16.235 -0.0336  0.0287 -0.1836
14412W        W29881  14.185  12.379  16.470  0.1758  0.0201 -0.3264
14413W        W29882  12.584   2.564   6.000  0.0034 -0.1379 -0.0034
14414W        W29883   3.654  16.434  13.069  0.0282  0.0648 -0.0078
14415W        W29884  15.911  16.861   5.938 -0.0292 -0.5200 -0.0505
14416W        W29885   1.136  14.474  11.979  0.2173  0.0926 -0.0159
14417W        W29886  17.563   3.234  14.334  0.2600  0.1418 -0.0941
14418W        W29887   2.669   3.558  16.275 -0.2289 -0.1995 -0.2843
14419W        W29888  13.522  12.599  13.811  0.2330 -0.2287  0.2059
14420W        W29889  16.495   4.054  14.273  0.1151  0.1732  0.1202
14421W        W29890   8.973  10.554   0.741 -0.1646  0.0449 -0.2862
14422W        W29891   0.643   7.822  12.848 -0.2060 -0.2446  0.0647
14423W        W29892   5.085  14.167  11.106  0.2167 -0.0717 -0.0070
14424W        W29893   7.938  15.040   1.282 -0.2012  0.0449 -0.0252
14425W        W29894  16.349   6.400  15.943  0.2834 -0.0737 -0.1477
14426W        W29895   6.413   3.978  11.588 -0.0123 -0.1128  0.1031
14427W        W29896   2.657  12.210  14.201 -0.0746  0.1107  0.1355
14428W        W29897  14.326   8.695  12.335 -0.1785  0.0291 -0.2120
14429W        W29898  16.907  17.178   3.536 -0.4655 -0.0767 -0.2081
14430W        W29899   3.864   5.697  11.085  0.0188 -0.0773  0.1287
14431W        W29900  11.389   6.073  10.962  0.2475  0.0872  0.0993
14432W        W29901   5.342   5.746  15.167 -0.2238 -0.2602 -0.1335
14433W        W29902  17.240  16.509  12.619  0.2797  0.0516 -0.2036
14434W        W29903   5.908  15.984  12.324  0.1204  0.0748  0.1048
14435W        W29904   7.465  17.102  16.483 -0.0946 -0.0687  0.0422
14436W        W29905   2.704  14.949   2.253 -0.0742  0.1225 -0.1787
14437W        W29906  17.982   4.378  11.218  0.3361 -0.0648  0.4731
14438W        W29907  15.536  11.540  13.529  0.1425  0.0168  0.0255
14439W        W29908  13.777  15.726  13.631 -0.1312 -0.0582 -0.1805
14440W        W29909   8.900   7.203  12.179  0.4547 -0.1709 -0.1389
14441W        W29910   9.400   5.598   5.661 -0.0718 -0.2060 -0.2978
14442W        W29911   9.168   3.148   4.939  0.0725 -0.1633  0.3492
14443W        W29912   4.884   8.919   0.392 -0.1231  0.0493  0.1014
14444W        W29913   4.789   1.629   3.540  0.0838 -0.3737 -0.2654
14445W        W29914   8.517  15.949  13.644  0.0964 -0.2282  0.0490
14446W        W29915  12.868  11.170   4.404  0.1702 -0.1365 -0.0740
14447W        W29916  12.846  14.650   0.547  0.0754  0.1380  0.1313
14448W        W29917   0.241  13.569   1.240 -0.1662  0.2129 -0.1767
14449W        W29918  13.868   5.285   4.380  0.4694  0.0541  0.0817
14450W        W29919   4.872  14.107  13.101 -0.0961  0.1792  0.0714
14451W        W29920   1.773   1.705   0.413  0.1796 -0.0626  0.0645
14452W        W29921   9.247   0.138  15.339  0.0345  0.1316 -0.1016
14453W        W29922   3.666  10.369  16.168  0.2354  0.0871 -0.1343
14454W        W29923  17.468  10.017   0.635 -0.0612 -0.0781 -0.3561
14455W        W29924   0.727  14.947   0.085 -0.0380  0.1418  0.0947
14456W        W29925  11.683  17.868   5.523  0.0193 -0.1922 -0.0398
14457W        W29926   7.075   1.248   2.910 -0.0609 -0.1212 -0.2768
14458W        W29927   0.132   1.478  11.586  0.0323 -0.1675 -0.2276
14459W        W29928  16.261   7.276   3.867 -0.1041 -0.1626  0.0376
14460W        W29929  15.995   5.476  14.469  0.0165  0.1544 -0.3628
14461W        W29930   9.083   5.512  11.766  0.0463 -0.5450  0.2844
14462W        W29931  17.962  16.117  14.166 -0.3563  0.1006 -0.0273
14463W        W29932  17.261   0.964  15.851  0.1330 -0.1829 -0.1289
14464W        W29933   4.533   7.778   3.091  0.0006 -0.1934  0.1179
14465W        W29934  13.751  14.335   3.610 -0.2076  0.0783 -0.0600
14466W        W29935  10.450  16.157   4.844  0.1308  0.2220  0.1531
14467W        W29936   5.342   1.315   4.354 -0.0674 -0.0666 -0.3297
14468W        W29937  17.011   0.057   2.561  0.0254  0.3507  0.1996
14469W        W29938  13.713   8.597  14.753  0.0435  0.2581  0.0785
14470W        W29939  10.755  14.248   5.119 -0.0691 -0.1187  0.0396
14471W        W29940  17.436   0.378  11.473 -0.1238  0.0673 -0.3215
14472W        W29941   0.965  13.778   3.597 -0.4289 -0.3780 -0.2914
14473W        W29942  12.932   4.147   2.325  0.1624  0.2013  0.3289
14474W        W29943   7.511  10.876   1.982  0.2382 -0.0839  0.2876
14475W        W29944   8.387   8.167  15.885 -0.1370 -0.0540 -0.2978
14476W        W29945  12.774  10.185  14.076  0.0178  0.1948  0.3014
14477W        W29946   7.288  11.240   2.441  0.2681  0.2434  0.1279
14478W        W29947   2.807   7.041  13.267  0.0469  0.0245  0.2870
14479W        W29948  12.366  16.398  14.097 -0.1192 -0.0064 -0.0359
14480W        W29949   2.827   4.520   4.677 -0.0325  0.0669 -0.1355
14481W        W29950   4.991  11.887  15.244 -0.1116 -0.2881  0.1166
14482W        W29951   5.500   2.273   4.116 -0.1984  0.0221  0.0488
14483W        W29952   4.604  17.110   0.576  0.2474  0.0386  0.0249
14484W        W29953   0.138   6.277   0.490  0.1520 -0.0268  0.1052
14485W        W29954   6.937  14.170   3.661  0.2426  0.0106  0.0285
14486W        W29955  17.063   4.963  16.244  0.0307  0.1155 -0.1443
14487W        W29956   8.451   1.433   0.176 -0.0395 -0.0786  0.0844
14488W        W29957   5.455   5.092  14.419  0.0604  0.1172  0.1511
14489W        W29958  11.952  16.614  16.433 -0.1194 -0.0941 -0.2382
14490W        W29959  14.760   9.938   5.099  0.3120  0.1789 -0.0053
14491W        W29960   4.688   7.922  11.028 -0.2144 -0.2141  0.1034
14492W        W29961   1.303  17.434   1.717  0.1880  0.2466  0.0094
14493W        W29962   9.534  12.437   0.129 -0.0661 -0.1461 -0.1027
14494W        W29963   9.542   8.709   0.417 -0.2503  0.3714 -0.1717
14495W        W29964   3.579   7.961   4.159 -0.1665 -0.1603 -0.1263
14496W        W29965  16.560  15.775  16.315 -0.0622  0.0562 -0.2716
14497W        W29966  16.619   5.225  13.095  0.0491 -0.1660 -0.2435
14498W        W29967  12.442   0.840   0.363 -0.1133  0.2665 -0.0028
14499W        W29968   4.793  17.956  13.372  0.2903 -0.1812  0.0987
14500W        W29969   4.722  13.826   1.134 -0.0628  0.0889  0.1908
14501W        W29970   5.209   3.324  16.249 -0.2458 -0.0071 -0.2762
14502W        W29971  10.455   0.870   2.455  0.4856 -0.2676  0.0665
14503W        W29972  13.674  17.804  15.296 -0.2954 -0.3814  0.1383
14504W        W29973   7.978  14.898   0.791  0.0821 -0.0588  0.3012
14505W        W29974  11.531   1.649   6.254  0.2818 -0.1116 -0.1580
14506W        W29975  12.377  16.018  14.435  0.2883 -0.1053  0.1252
14507W        W29976  13.468   6.836   1.547 -0.0568  0.0817  0.0882
14508W        W29977  14.027   5.542  13.116  0.0746  0.0099  0.1978
14509W        W29978   9.352   9.516  12.335  0.2685  0.2153  0.0889
14510W        W29979  15.431   9.674  15.372  0.1267 -0.0557  0.1196
14511W        W29980  10.035   8.691  13.982  0.1615  0.3905 -0.1500
14512W        W29981  11.656   7.431  14.585  0.0000  0.0311 -0.2198
14513W        W29982  13.302   2.866  14.322  0.1414 -0.3593 -0.1100
14514W        W29983   3.171  12.895   2.323 -0.0350 -0.0009  0.1679
14515W        W29984   1.077  12.277  15.048  0.1641  0.1649  0.1409
14516W        W29985   8.520   4.876  13.712 -0.1120  0.0661  0.0720
14517W        W29986   4.612  11.195  11.719  0.2164 -0.0108 -0.2830
14518W        W29987   2.719   0.831   0.447  0.2337 -0.0156 -0.1666
14519W        W29988  15.163  12.176  14.642 -0.0614  0.0180  0.2923
14520W        W29989   0.623   9.918   2.214  0.0406 -0.0746  0.0011
14521W        W29990   9.955   7.540  16.429  0.3151 -0.0898 -0.3500
14522W        W29991   6.684  11.382   6.285 -0.1071 -0.0556 -0.1142
14523W        W29992   0.469   5.241  14.404 -0.0517  0.0358 -0.1292
14524W        W29993   2.325   1.955  11.992 -0.1635 -0.0105  0.0222
14525W        W29994  12.880   1.417  15.344 -0.2151  0.4488 -0.0005
14526W        W29995   3.956   3.878  12.997 -0.0776  0.0062  0.1231
14527W        W29996   5.975   8.088  15.687 -0.1134  0.1191 -0.0411
14528W        W29997   2.439   3.457  14.227  0.4445 -0.1146 -0.0351
14529W        W29998  16.060   2.775  14.069 -0.0925 -0.2127 -0.2467
14530W        W29999   0.257   0.578   1.085  0.0092  0.0659  0.0477
14531W        W30000   9.095   1.983   2.759 -0.1091  0.0873 -0.1803
14532W        W30001   4.336   5.684   9.994 -0.0812 -0.1009 -0.1338
14533W        W30002   6.145   4.326   4.360 -0.2102  0.2738 -0.1815
14534W        W30003   8.644   2.822   0.952  0.0941 -0.0883 -0.3954
14535W        W30004   6.044   4.815   2.697  0.0973  0.2152  0.0154
14536W        W30005  13.848   1.479  11.881 -0.0713 -0.0231 -0.4520
14537W        W30006   4.662  11.778  13.799 -0.3624 -0.0906 -0.2723
14538W        W30007  13.869   0.969  11.922 -0.1667 -0.1638 -0.0033
14539W        W30008   6.968  10.194  14.543 -0.0098  0.0009 -0.1229
14540W        W30009   6.285   7.089   5.680 -0.0795 -0.2373  0.1421
14541W        W30010  14.747   7.434   2.836  0.1111 -0.1156 -0.4304
14542W        W30011  12.907   4.434   1.168 -0.0447  0.2114  0.0580
14543W        W30012   3.783  11.667   1.655 -0.2930 -0.0921 -0.0124
14544W        W30013  15.082  11.126   0.688 -0.1424 -0.1275 -0.2217
14545W        W30014   2.110   3.572   4.054  0.0220 -0.0543 -0.2201
14546W        W30015  17.653   7.514  16.002  0.2363  0.1248  0.3186
14547W        W30016  14.465   6.494  14.008 -0.1888 -0.2717 -0.1585
14548W        W30017   3.364  10.888  12.437  0.0290  0.0439 -0.1207
14549W        W30018  12.732  13.244   2.738 -0.0861 -0.0391 -0.4218
14550W        W30019  13.111   4.632   3.056  0.0713 -0.0373 -0.1880
14551W        W30020   7.866  15.408   0.819 -0.0405 -0.3867 -0.1745
14552W        W30021  15.090   3.582  12.691  0.1260  0.3892  0.0001
14553W        W30022   8.216  11.196   1.771  0.0552 -0.0014  0.2286
14554W        W30023   3.609   1.758  13.592 -0.3774  0.0228  0.0182
14555W        W30024  10.745   8.208  15.004  0.0761 -0.1729  0.0364
14556W        W30025  17.221  12.052   3.363 -0.0128  0.1746  0.0270
14557W        W30026   2.752   8.994   1.677  0.3626  0.0617  0.0972
14558W        W30027  17.950   7.570  10.365 -0.1206  0.0361  0.2762
14559W        W30028   1.158   5.269  11.349 -0.0256  0.2302 -0.2237
14560W        W30029  14.813   9.211   2.841  0.0675  0.0510 -0.2423
14561W        W30030   9.912  10.263  14.667 -0.2767  0.0370 -0.1306
14562W        W30031   9.146   6.220  13.056 -0.3342 -0.2870 -0.2090
14563W        W30032   1.890   0.373   0.606 -0.0834 -0.1087  0.1062
14564W        W30033   3.547   9.615  14.277  0.2795 -0.0911 -0.0995
14565W        W30034   4.574   6.025  16.398 -0.0161 -0.0485  0.3941
14566W        W30035   0.277  17.040   1.621  0.0071  0.1836  0.1673
14567W        W30036   9.391  11.429  15.935 -0.2764  0.2707  0.0306
14568W        W30037   9.585  17.123   2.788  0.0047 -0.0113  0.0097
14569W        W30038  11.707  16.168  11.966 -0.1289  0.1878  0.1383
14570W        W30039   8.899   4.247   5.203 -0.1943  0.1923  0.0194
14571W        W30040   9.987   2.017   4.901  0.0222  0.1086  0.0195
14572W        W30041   7.645   3.325  14.131 -0.2848  0.2422 -0.0035
14573W        W30042  17.389  16.594  11.179 -0.0522  0.0434 -0.0137
14574W        W30043  11.322   8.232  13.465 -0.1277  0.1079 -0.1833
14575W        W30044  12.237   3.515  11.234 -0.1381  0.3961  0.0320
14576W        W30045   8.963  13.449  13.946  0.2113  0.1109 -0.0815
14577W        W30046  15.979  12.904  15.591 -0.1892  0.2205 -0.2200
14578W        W30047   3.355   0.814  15.104  0.0288  0.0063  0.0693
14579W        W30048  15.069  10.717  15.491  0.1638  0.0873  0.0069
14580W        W30049   2.404   1.802  16.349 -0.2082 -0.1194 -0.4347
14581W        W30050   5.104   9.806   4.356 -0.1962  0.0895  0.1996
14582W        W30051   4.269  13.068   3.297 -0.1164  0.1600  0.1642
14583W        W30052  10.154   4.204   3.319  0.0687 -0.0192 -0.2382
14584W        W30053  15.017   1.249  16.522 -0.0212 -0.2678  0.0680
14585W        W30054  16.249   1.767   4.146  0.2446 -0.0246 -0.1095
14586W        W30055   8.514   7.128   0.377  0.0772  0.0360  0.0391
14587W        W30056   5.028  14.215   2.608  0.2876 -0.2484 -0.0149
14588W        W30057   5.300   0.725  13.299 -0.0089  0.0434  0.1886
14589W        W30058   2.831  10.588  15.100 -0.1094  0.0643 -0.2506
14590W        W30059  14.886  16.143   5.569 -0.0120  0.3483 -0.1676
14591W        W30060  15.991  11.281   0.644  0.4642 -0.1779 -0.0042
14592W        W30061  15.806   6.159  16.530 -0.2439 -0.4021  0.1720
14593W        W30062   0.863   9.980  13.937  0.2757  0.3166 -0.1362
14594W        W30063  11.535   3.762   5.482  0.0332 -0.0661  0.4379
14595W        W30064  16.969  17.441   4.259  0.0697 -0.0221 -0.1719
14596W        W30065   2.939  10.587  13.326  0.0107  0.1123 -0.3298
14597W        W30066   3.164   1.214  15.544  0.0711  0.1423  0.0429
14598W        W30067   9.006  11.495  12.649  0.0516  0.1639 -0.1890
14599W        W30068  10.389  16.077  15.193  0.2050  0.0486  0.0121
14600W        W30069  14.309  16.940   3.205 -0.1819 -0.1018 -0.0790
14601W        W30070   1.544  12.042   0.130  0.2077  0.1421 -0.2800
14602W        W30071  11.984  15.626   0.130 -0.0887  0.1111 -0.3124
14603W        W30072   1.762   4.840   2.664 -0.0854  0.0783 -0.2329
14604W        W30073   7.165  11.322  16.540 -0.1480  0.0390 -0.0949
14605W        W30074  10.521   8.937  12.734  0.1110  0.0518 -0.0596
14606W        W30075  13.815   5.070  13.237 -0.1414  0.0011 -0.1219
14607W        W30076  17.692   2.475  16.403  0.2474 -0.0785 -0.2824
14608W        W30077  14.717  15.177   2.567 -0.0546  0.1159 -0.1520
14609W        W30078  17.022   6.869  12.687  0.4019  0.2347 -0.4079
14610W        W30079   9.987  13.024   3.318  0.1083  0.3120  0.3830
14611W        W30080   7.262  11.447  12.791 -0.0185 -0.1950 -0.1272
14612W        W30081  13.695  16.574   4.975 -0.0273 -0.0282  0.1768
14613W        W30082  10.991   9.956   5.332 -0.1388  0.1078  0.0555
14614W        W30083  10.760  16.292  15.548  0.1186 -0.0604 -0.0274
14615W        W30084  13.189   0.862   0.369 -0.1152 -0.0448 -0.0824
14616W        W30085   1.004   1.201   1.561 -0.2624  0.1131 -0.0330
14617W        W30086  12.569   2.458  13.885 -0.0138  0.0871  0.1047
14618W        W30087   0.515  11.487  12.515  0.0012  0.0707 -0.0053
14619W        W30088   1.713  15.323  12.669 -0.0758  0.0188 -0.0369
14620W        W30089  17.896  15.948  13.603  0.2661  0.0498  0.1630
14621W        W30090  13.944   2.749  16.155  0.0468 -0.0559  0.0359
14622W        W30091  16.157  14.070   0.078 -0.1869  0.5121 -0.1660
14623W        W30092   2.333   4.531  12.861 -0.0600 -0.1286  0.0199
14624W        W30093   7.288  13.289  15.366 -0.2167 -0.0148  0.1028
14625W        W30094  14.123   6.141   1.557 -0.2334  0.2738  0.5087
14626W        W30095   5.053   8.222  12.097 -0.1374  0.0717  0.0807
14627W        W30096  10.315   3.232  14.019 -0.0412 -0.0942  0.2577
14628W        W30097  17.238   8.900  15.364  0.1225 -0.0183 -0.1681
14629W        W30098   5.963  16.268   0.222  0.0891  0.1639  0.0228
14630W        W30099  16.211  15.472  15.632  0.1078  0.0087 -0.1036
14631W        W30100   4.175   4.324   3.155 -0.1066  0.4304 -0.3037
14632W        W30101   7.197  16.469  11.900 -0.0764 -0.1585  0.3799
14633W        W30102  15.703  10.093  10.646  0.1710 -0.2113 -0.0157
14634W        W30103  14.878   4.867   3.573 -0.3945  0.2450 -0.0264
14635W        W30104  13.801   9.964  12.664 -0.0904  0.0873 -0.4346
14636W        W30105  14.477   5.332  15.318 -0.0080 -0.3146 -0.0372
14637W        W30106  10.253  13.792  15.383  0.0064 -0.5008  0.0298
14638W        W30107   0.408  10.168  14.331 -0.0166  0.0457 -0.2540
14639W        W30108   0.153   3.436  11.301  0.0058  0.0899  0.0931
14640W        W30109   3.093  14.745   1.836  0.0782  0.2220 -0.0984
14641W        W30110   8.513  10.384   5.812 -0.2016  0.3040  0.2154
14642W        W30111   3.580   9.372   2.105  0.0244  0.4935  0.1625
14643W        W30112   9.489  17.734   0.240  0.1775  0.3525  0.1972
14644W        W30113  12.978   3.229   5.261 -0.0915 -0.1443 -0.1101
14645W        W30114  16.107  16.881   3.027 -0.0318  0.1883  0.0902
14646W        W30115  15.461   4.661   0.954  0.2516  0.1449 -0.0645
14647W        W30116  13.182  16.087  15.653 -0.0182 -0.1822  0.2281
14648W        W30117   1.434   7.779  11.986 -0.1039 -0.0288 -0.0627
14649W        W30118   0.606   8.791  12.962 -0.0252 -0.0727 -0.1001
14650W        W30119  16.959   9.884  13.008 -0.0367  0.1353  0.2423
14651W        W30120  12.980   3.880   2.839 -0.0229  0.0842 -0.0439
14652W        W30121   9.852  11.576   1.009 -0.0755  0.2629 -0.1331
14653W        W30122  11.022   3.807  12.785 -0.1294  0.0357 -0.3096
14654W        W30123   3.553   5.372  16.233 -0.0238  0.0099 -0.3255
14655W        W30124  13.981   0.334   1.239 -0.1211  0.1940  0.0355
14656W        W30125   2.921  14.643   3.837 -0.1104 -0.2357 -0.1316
14657W        W30126   0.830  17.756   2.447 -0.0570  0.0651 -0.1685
14658W        W30127  12.628   2.034  12.987 -0.0650  0.1633  0.1896
14659W        W30128   7.497   2.431  10.542  0.1156 -0.1207  0.0257
14660W        W30129  13.688   8.636   3.044  0.2449  0.1845  0.0237
14661W        W30130   6.737   2.556   2.083 -0.1177  0.1892  0.4366
14662W        W30131   7.179   5.826  13.702  0.0438  0.0983  0.2341
14663W        W30132  13.264   7.363  14.094 -0.2571  0.1066  0.0739
14664W        W30133   5.163   2.532  12.168  0.0026 -0.3930  0.0677
14665W        W30134  16.352  17.077  16.177 -0.1279 -0.0318 -0.2342
14666W        W30135  15.759  14.884   0.064 -0.2422  0.0932  0.0405
14667W        W30136  10.575  15.407   5.515 -0.3676 -0.1951  0.0266
14668W        W30137  13.280   6.447   0.018  0.0023  0.0640  0.3272
14669W        W30138   7.683   0.222  16.391  0.4086  0.1689  0.0441
14670W        W30139   4.319  11.810  12.910  0.0664 -0.0992  0.1100
14671W        W30140  14.747   8.219   2.341  0.0038 -0.0132  0.0856
14672W        W30141   8.505  17.218   3.916  0.2069 -0.2636  0.0166
14673W        W30142  16.484   5.721   4.782  0.0657  0.0268  0.1276
14674W        W30143   5.779   2.465  12.135  0.0542 -0.0409 -0.0093
14675W        W30144   3.142  11.818   2.679  0.0325 -0.1998  0.2524
14676W        W30145   4.684   9.172   4.812 -0.0328  0.2022  0.1635
14677W        W30146  15.245   6.257  10.717 -0.0936  0.0001  0.1656
14678W        W30147   4.958  11.925   2.926  0.2267 -0.1968 -0.3203
14679W        W30148   2.729  13.155  13.954  0.1606  0.0637  0.0887
14680W        W30149  14.854  12.126  12.635  0.2041  0.0181  0.1872
14681W        W30150  11.168   0.480   1.857  0.1590  0.0733 -0.0415
14682W        W30151   6.085  13.294  13.459 -0.2127 -0.2547  0.2126
14683W        W30152  17.314   0.427  14.038  0.0607 -0.0866  0.2613
14684W        W30153  11.927  17.946   5.063  0.0248 -0.1900  0.0783
14685W        W30154   8.354  16.528   5.922  0.1050  0.1439  0.1880
14686W        W30155  15.092   4.098  12.840 -0.4703 -0.1732 -0.0780
14687W        W30156  17.081  15.659  16.136 -0.0016  0.4694  0.1271
14688W        W30157   4.762  15.094  16.587 -0.0948  0.1939 -0.1792
14689W        W30158   6.987   8.942   5.291  0.2060 -0.2431  0.0166
14690W        W30159  17.015   4.616   3.635  0.1821 -0.0827  0.3314
14691W        W30160   6.841  10.961  14.697  0.1980 -0.0809  0.0531
14692W        W30161   9.635  14.735   0.190 -0.1165  0.3155  0.1015
14693W        W30162  15.971  11.808  11.947  0.2528  0.1758  0.2171
14694W        W30163   8.503  10.785   4.131  0.0878 -0.1719 -0.2246
14695W        W30164   3.983  14.020  15.266 -0.0768  0.1248  0.1947
14696W        W30165   1.266  13.250  13.243  0.0305  0.1578  0.0669
14697W        W30166   5.001   6.620  11.596  0.0752  0.0681  0.1192
14698W        W30167   5.249  12.017  12.885 -0.0493 -0.0893 -0.0932
14699W        W30168  15.189  14.824   1.042 -0.1778 -0.0258  0.1835
14700W        W30169  17.909  15.467  16.423  0.0217  0.2072  0.0579
14701W        W30170   1.964   8.014  12.541  0.0836 -0.0387  0.3386
14702W        W30171  15.084  15.086  11.474 -0.0247  0.2173 -0.0863
14703W        W30172   2.059  17.824  14.218 -0.0858 -0.1583 -0.1845
14704W        W30173   3.700   9.063  12.766 -0.0051  0.2612  0.0028
14705W        W30174  13.367   1.554  16.589 -0.1043  0.0506  0.3472
14706W        W30175  12.091  11.320   3.328  0.0927 -0.0956  0.3839
14707W        W30176  12.259  16.789   4.004  0.0975  0.4228 -0.0784
14708W        W30177  10.707   2.310   0.166  0.1512 -0.0648 -0.3432
14709W        W30178  14.369   9.636   2.544 -0.1220  0.2324 -0.0330
14710W        W30179   6.187   3.555  12.092 -0.0558  0.1639 -0.0419
14711W        W30180   7.369   0.162  14.668  0.3053 -0.1075  0.1992
14712W        W30181  17.210  14.922  15.444 -0.1939  0.1367  0.1956
14713W        W30182  15.963   5.696   0.023  0.0197  0.0323 -0.0668
14714W        W30183  12.827   2.806   0.492 -0.2100 -0.0113  0.0905
14715W        W30184   0.460  17.753   2.797  0.1929 -0.0830  0.2088
14716W        W30185  10.259   9.210   0.802 -0.1819  0.1769  0.1426
14717W        W30186   2.415   3.941  11.142 -0.0442 -0.2286 -0.0736
14718W        W30187  15.115  10.787   2.907 -0.1612  0.1381 -0.0458
14719W        W30188   5.956   9.463   3.177 -0.2752 -0.1837 -0.1397
14720W        W30189  12.123   8.681  16.088  0.3220  0.1021  0.0387
14721W        W30190  12.387  11.730   5.998 -0.1857  0.0388  0.1709
14722W        W30191   1.554   7.075  10.901  0.2078 -0.0872 -0.0873
14723W        W30192  14.092  10.657   1.444  0.0423 -0.1093 -0.0043
14724W        W30193  11.161   9.551   4.186 -0.1310  0.0064 -0.2848
14725W        W30194   3.255  16.386   3.564  0.1532  0.0394  0.1645
14726W        W30195   2.903   5.425   1.405 -0.2705 -0.2639 -0.0167
14727W        W30196  14.608   2.339   1.561 -0.1103 -0.0356 -0.1021
14728W        W30197  16.484   1.013   5.206  0.0911  0.1578  0.0250
14729W        W30198   2.599  10.090   4.725 -0.0744  0.1004  0.1440
14730W        W30199  13.372   2.116   2.280  0.1012  0.1450 -0.1189
14731W        W30200  13.274   8.589  13.182 -0.2262 -0.1182  0.0648
14732W        W30201   7.382   3.815  13.931 -0.0480 -0.1297 -0.0488
14733W        W30202  11.257  11.706   2.419 -0.1451 -0.0950 -0.0395
14734W        W30203   6.193   4.091   5.737  0.0710 -0.2353 -0.1810
14735W        W30204   7.098  13.146  13.390  0.2057  0.0137 -0.3537
14736W        W30205  13.007   6.613   1.385 -0.4872  0.0430  0.1836
14737W        W30206  14.312   1.362  13.073 -0.0247  0.1983 -0.1252
14738W        W30207   0.167   8.796   3.476  0.1055  0.4868  0.2637
14739W        W30208   8.774   8.746   0.804  0.0488 -0.1321 -0.1111
14740W        W30209   1.389   2.553   2.514 -0.0223 -0.3010  0.3197
14741W        W30210   8.756  11.657   2.903  0.0121  0.1918 -0.0779
14742W        W30211   1.838  17.876   5.745  0.2033 -0.1122 -0.1392
14743W        W30212   4.686  13.169  13.378 -0.3644  0.1610 -0.0473
14744W        W30213  16.795  17.647   6.631 -0.2665 -0.1832  0.0220
14745W        W30214  14.017  15.232  14.230  0.0032  0.0773 -0.1115
14746W        W30215   4.058   2.496  13.544  0.2415  0.2094 -0.3289
14747W        W30216   4.475   0.451   2.982  0.0863 -0.1018 -0.1443
14748W        W30217  12.757  12.267  13.233 -0.1550 -0.0381 -0.1055
14749W        W30218  14.588   1.645   5.025 -0.0053 -0.0035 -0.1355
14750W        W30219   3.867  16.209  13.875  0.1092  0.0489  0.0255
14751W        W30220  17.450   8.852  11.635  0.3682  0.1971  0.0699
14752W        W30221  15.079  16.522   5.822  0.3179 -0.1580 -0.4098
14753W        W30222   5.863   1.030   2.634  0.0414 -0.1505 -0.0020
14754W        W30223  12.414   1.211  15.351  0.1461  0.0025  0.0300
14755W        W30224  17.182  11.750   2.127 -0.2088  0.1148  0.3572
14756W        W30225  12.696   9.878  12.090 -0.2286  0.3754  0.1428
14757W        W30226   4.268  10.430   5.410 -0.0295  0.2616  0.0919
14758W        W30227   2.515   4.262  14.004  0.3065 -0.0531  0.1870
14759W        W30228   1.675  15.003   2.802  0.0121  0.4264  0.0276
14760W        W30229   6.330  11.187   3.454  0.1011  0.2621 -0.3138
14761W        W30230  15.543  11.781  16.304 -0.0491 -0.0117 -0.1160
14762W        W30231  11.582   4.910   0.036  0.0047  0.1730 -0.0373
14763W        W30232   2.380  14.713   3.510  0.1631  0.0161  0.0371
14764W        W30233   1.884   0.647   3.980  0.2121 -0.3845 -0.0976
14765W        W30234   1.825   9.312   2.707  0.0289 -0.3456 -0.1362
14766W        W30235   1.486   3.011  13.299 -0.1659  0.0555  0.0623
14767W        W30236   2.191  13.782   0.774  0.1986  0.1076  0.1384
14768W        W30237   1.034   4.116  14.650 -0.2185 -0.0662  0.0487
14769W        W30238  13.502   7.307   3.618  0.0912  0.2780  0.0907
14770W        W30239   9.058   8.894  13.029  0.2575 -0.0601 -0.2879
14771W        W30240   6.402  16.844  15.850  0.1017 -0.1281 -0.3671
14772W        W30241  13.033  12.112   1.823 -0.2576  0.1486 -0.2869
14773W        W30242  15.920   7.344   1.462  0.0261  0.0364 -0.0079
14774W        W30243   7.264   7.148   0.480 -0.0518  0.1347  0.0791
14775W        W30244  15.289   1.345   2.512 -0.0520 -0.4610 -0.3351
14776W        W30245   6.460  12.504  16.053 -0.1303  0.0115 -0.0474
14777W        W30246   7.619  11.750  12.566 -0.2544  0.0157 -0.1062
14778W        W30247  11.523  12.699   4.448 -0.1246  0.2529 -0.0841
14779W        W30248  10.556  15.326   1.783 -0.1047  0.0255  0.0628
14780W        W30249   6.112   4.671   4.849  0.1528  0.1713  0.0618
14781W        W30250  12.245  14.393  14.712  0.0452  0.0952  0.0027
14782W        W30251  15.476   7.595   3.532  0.0273 -0.0917 -0.0955
14783W        W30252  11.789  14.343   4.802 -0.0320 -0.2075 -0.0563
14784W        W30253   2.458   6.441   4.247 -0.0549 -0.1075  0.1754
14785W        W30254   2.704   8.566  12.553  0.0807 -0.3230  0.2428
14786W        W30255   4.453   4.947  12.088 -0.2232  0.0903  0.0611
14787W        W30256   7.935   9.511   5.610 -0.2457 -0.0095  0.1802
14788W        W30257  12.580   0.025   1.281 -0.2319 -0.2200  0.0349
14789W        W30258   7.623   5.946  13.470  0.0828 -0.1329  0.2602
14790W        W30259  16.402   4.794   1.946 -0.0748  0.0086 -0.1359
14791W        W30260   6.548   6.144  10.444 -0.1817 -0.1848 -0.1927
14792W        W30261   1.617   3.408  15.756  0.2554  0.1927 -0.2449
14793W        W30262  13.475  14.450  11.407  0.0328  0.1741 -0.1291
14794W        W30263   2.270   7.025   0.196  0.0225 -0.0170  0.0589
14795W        W30264   3.404   4.857  15.179 -0.3684 -0.0381  0.1792
14796W        W30265   6.309  14.423   0.040  0.0181 -0.1101 -0.3037
14797W        W30266   1.136   6.922  12.145 -0.0725  0.0630 -0.3990
14798W        W30267  16.465   7.707  12.542 -0.2322  0.3981  0.0103
14799W        W30268  14.005   7.747  11.883  0.1585  0.0878 -0.0828
14800W        W30269   2.830  13.083  13.437  0.2203 -0.1450  0.0132
14801W        W30270   0.801  12.919  13.287 -0.1321  0.1050  0.2844
14802W        W30271   7.396  17.636   0.842 -0.1262  0.2661  0.3162
14803W        W30272   6.312  11.691  15.380 -0.2054 -0.2442 -0.0118
14804W        W30273   4.216  15.659  12.669  0.0484 -0.2049  0.0027
14805W        W30274   0.952   1.516  15.110 -0.0409 -0.0735  0.1736
14806W        W30275  11.281   1.514   3.584  0.3322  0.1585 -0.0849
14807W        W30276  14.724   4.354  11.126  0.0019  0.0550 -0.2809
14808W        W30277  14.199  14.507   1.075 -0.1290  0.0411 -0.0109
14809W        W30278   9.649   2.074   5.395 -0.3006 -0.1862  0.0836
14810W        W30279   3.886  14.032   3.737  0.2010 -0.4104  0.2052
14811W        W30280  11.241   3.958   4.979  0.1665  0.1594 -0.1007
14812W        W30281   1.823   4.717  14.434 -0.1836  0.1842  0.2337
14813W        W30282   6.344   8.978   0.328  0.1665 -0.2727  0.0120
14814W        W30283   6.941   7.808  11.238 -0.2339 -0.1112 -0.3237
14815W        W30284  10.089  16.861   2.724  0.2468  0.1175 -0.2042
14816W        W30285   9.405   0.477   0.754  0.0189  0.3900  0.3049
14817W        W30286   8.720   3.862   2.094  0.1586 -0.1512  0.2155
14818W        W30287   0.125  17.729  13.944  0.2402  0.0690 -0.3082
14819W        W30288  15.637  16.144   1.752 -0.3059 -0.0341 -0.2544
14820W        W30289  14.803  10.946  12.915 -0.1230 -0.4373  0.1684
14821W        W30290   1.882   7.374   0.909 -0.1636 -0.1106 -0.1097
14822W        W30291  14.217   0.688  15.123  0.2867  0.2247  0.2420
14823W        W30292  17.871  15.862  14.603 -0.1376 -0.0082 -0.3307
14824W        W30293   5.898   7.850   5.191  0.0144 -0.3790 -0.0333
14825W        W30294  13.522   6.733  11.012 -0.0831  0.0367 -0.1183
14826W        W30295   6.445   8.483  13.059 -0.1216  0.1126 -0.1789
14827W        W30296  13.481  17.197   6.612 -0.1441  0.0963 -0.3108
14828W        W30297  17.233  17.137   3.964 -0.1166 -0.1635 -0.2294
14829W        W30298  14.949  17.994  11.186  0.0574 -0.2818 -0.0296
14830W        W30299   4.639   2.650  16.595 -0.2265 -0.2915  0.4250
14831W        W30300   2.373   6.389  13.653  0.0138  0.1013  0.2670
14832W        W30301  12.046  14.469  11.271 -0.0582 -0.1797 -0.4862
14833W        W30302   0.731  13.300  14.647  0.1006  0.2751 -0.2115
14834W        W30303   3.812  12.969  13.269  0.2877  0.0568 -0.1336
14835W        W30304   0.499  13.096  15.074 -0.1134  0.2247  0.1882
14836W        W30305  12.676  10.754   3.509  0.1596 -0.0253 -0.2229
14837W        W30306   6.716   5.234  12.349 -0.0703 -0.2101  0.2400
14838W        W30307   1.649   7.702  13.573  0.0784 -0.0877 -0.0156
14839W        W30308   4.694  15.956   0.810  0.0682  0.1771 -0.0715
14840W        W30309   0.512   4.141  16.204 -0.1319 -0.3444  0.1908
14841W        W30310   2.307   0.265   1.594 -0.2871  0.2426  0.0969
14842W        W30311   7.278   9.449   0.485  0.0911  0.3973  0.3512
14843W        W30312  17.454  14.477  16.353 -0.1642  0.1201 -0.0142
14844W        W30313  13.117  13.564  16.577  0.0020 -0.3692  0.0469
14845W        W30314   1.916   6.812   0.937  0.1884  0.2345  0.3506
14846W        W30315   3.025  14.377   3.061  0.0560 -0.1200 -0.1398
14847W        W30316  10.343   2.969   3.084  0.1243  0.0266  0.1093
14848W        W30317   9.962   5.544   1.990 -0.3336 -0.0140 -0.2720
14849W        W30318   2.860   8.535   2.015 -0.0375 -0.0591  0.1498
14850W        W30319  11.144   2.922  11.786  0.1797 -0.0800 -0.0944
14851W        W30320   8.367   7.462  13.310 -0.0285  0.1346  0.2981
14852W        W30321  14.089  14.334   3.291 -0.1288 -0.0067 -0.1121
14853W        W30322  15.417   9.228   4.483 -0.1958  0.3720 -0.0266
14854W        W30323  16.254   5.969  13.634  0.3121  0.0882  0.0644
14855W        W30324   5.107  12.861  11.903  0.1295  0.1599  0.0726
14856W        W30325   7.373  10.453  14.666 -0.2948  0.2249  0.2252
14857W        W30326  14.428  13.940   5.357 -0.0148  0.3275 -0.0712
14858W        W30327   1.971   8.152  10.786  0.0198 -0.1053 -0.1827
14859W        W30328  17.761   9.850   0.974 -0.1727 -0.0411 -0.0042
14860W        W30329  15.245   7.685  13.609 -0.0994 -0.1161 -0.0016
14861W        W30330   0.516  13.242  12.686  0.2623 -0.0972  0.1695
14862W        W30331   3.184   1.654   1.121  0.0911 -0.1486  0.0258
14863W        W30332  14.590   0.754  15.979 -0.1134  0.1594 -0.1218
14864W        W30333   0.447   1.610  13.173 -0.0113  0.1721 -0.0059
14865W        W30334   7.239   6.341  10.284  0.1521  0.2170  0.0516
14866W        W30335   1.216   8.488  13.453 -0.0463  0.0607 -0.2176
14867W        W30336   2.772   1.882  11.630 -0.1699  0.1134 -0.3265
14868W        W30337   0.219   1.232   5.916 -0.0628  0.1113 -0.1127
14869W        W30338  16.549  14.297  16.533  0.1456 -0.1021  0.3126
14870W        W30339  16.880   5.418  16.421 -0.4877  0.0166 -0.0454
14871W        W30340   0.213  13.993   4.143  0.1316  0.1836 -0.2443
14872W        W30341  10.556  13.367   5.714 -0.3003  0.0451  0.3489
14873W        W30342   0.422   3.095   3.510  0.0538  0.2053 -0.1497
14874W        W30343  13.100   6.727  14.162 -0.0007  0.1037  0.0165
14875W        W30344   5.011   3.361  14.576 -0.0560 -0.1000 -0.1909
14876W        W30345   1.505  16.431   1.265  0.0215 -0.0964 -0.0635
14877W        W30346   0.899  17.294  11.718  0.1767  0.3354  0.0665
14878W        W30347   7.954  15.294  13.318 -0.2155  0.0645 -0.1160
14879W        W30348   3.383  15.056   2.651  0.1950  0.1237  0.1776
14880W        W30349  16.731  11.912   3.404 -0.0263 -0.0595  0.1972
14881W        W30350   1.381   8.743  12.148  0.1981  0.3284  0.0259
14882W        W30351  16.836  11.074  13.498  0.3286  0.1837  0.1562
14883W        W30352  15.744   3.770   5.033  0.1287 -0.0670  0.1121
14884W        W30353   6.333   4.350   3.595 -0.0498  0.0726 -0.2219
14885W        W30354   3.842  14.498  15.447  0.0653 -0.0714 -0.0317
14886W        W30355   5.591  13.921  16.456 -0.1598 -0.0068  0.3533
14887W        W30356  15.832  11.353  16.231  0.1315  0.0906 -0.0045
14888W        W30357  12.360   0.520   2.416  0.0224  0.2473 -0.0017
14889W        W30358  12.815  16.144  13.603 -0.3106 -0.1316  0.2963
14890W        W30359  10.858  17.664   2.412 -0.1630 -0.0422 -0.3718
14891W        W30360  16.723   7.793  14.694  0.0319  0.1739  0.0014
14892W        W30361   1.359  12.660   0.679 -0.1690 -0.0234 -0.0772
14893W        W30362   6.209  15.063   4.319 -0.2744  0.4983 -0.1055
14894W        W30363  14.303   3.718  12.208  0.2278 -0.1361 -0.1948
14895W        W30364   0.411   6.510  13.882 -0.1059 -0.0639  0.1931
14896W        W30365  14.844   1.252   2.714  0.1631 -0.0484  0.0035
14897W        W30366  17.728  15.644  14.039  0.2110  0.1776  0.0071
14898W        W30367   1.155  12.954  12.135 -0.2660 -0.0757 -0.1117
14899W        W30368  13.580  14.738  13.189 -0.1907  0.2031  0.1206
14900W        W30369   6.434  12.493  13.815  0.0685 -0.1209 -0.3811
14901W        W30370   5.616   5.442   2.168  0.0052 -0.0999 -0.0936
14902W        W30371   1.737  12.080   1.872  0.0008 -0.0325 -0.0440
14903W        W30372   5.443   5.963  12.047  0.0087 -0.2268  0.0040
14904W        W30373   1.444   0.814  11.430 -0.0937 -0.1025 -0.0790
14905W        W30374  17.084   5.406  14.000 -0.3283  0.0361 -0.2604
14906W        W30375   6.196   7.632   1.395  0.0531  0.2464  0.1131
14907W        W30376  10.805   0.998  12.794 -0.0483  0.1781 -0.0845
14908W        W30377   8.348  11.702  10.972  0.1197  0.3313  0.2575
14909W        W30378   4.657   5.133   2.346  0.1511 -0.4514  0.1794
14910W        W30379  12.063  11.127   4.744  0.0545  0.0599 -0.0786
14911W        W30380   9.335  12.269  13.137  0.2551  0.2975 -0.0859
14912W        W30381   1.652  17.983  11.830  0.0269 -0.3399 -0.0215
14913W        W30382   1.604  13.088  15.215  0.2361  0.0386 -0.1367
14914W        W30383  17.611   5.360  15.087 -0.0603 -0.2216  0.1501
14915W        W30384   9.869   7.690  15.844 -0.1214  0.0963 -0.1204
14916W        W30385   4.209   3.717   2.230 -0.4437  0.0237  0.3618
14917W        W30386   0.364   8.257  16.565 -0.5921 -0.1715 -0.3702
14918W        W30387  16.017   9.530  16.543 -0.0627 -0.0312  0.2133
14919W        W30388   1.406   4.652  10.481  0.0855  0.0252  0.2229
14920W        W30389  11.337  11.105  13.521  0.1142  0.0898 -0.0622
14921W        W30390  10.550   7.604  13.618 -0.0283 -0.2516 -0.0436
14922W        W30391   2.086   6.763   2.916  0.0053 -0.1149  0.0944
14923W        W30392   4.049   7.477  14.474  0.0798 -0.2511 -0.2112
14924W        W30393   4.660   5.594   1.268  0.1088 -0.2421 -0.0517
14925W        W30394   3.901  12.648  12.918 -0.0700 -0.0502  0.0729
14926W        W30395  12.865  17.912  14.311 -0.0948  0.0420 -0.0676
14927W        W30396   6.854   5.576   4.255 -0.0537  0.2361  0.0101
14928W        W30397  15.541   5.967  13.293 -0.0169 -0.0162 -0.3524
14929W        W30398   3.776   5.966  12.929  0.2312 -0.2532  0.1366
14930W        W30399   6.412   1.327   5.829  0.0005 -0.1589  0.3334
14931W        W30400  13.123   4.245   3.766 -0.2178  0.1122 -0.0731
14932W        W30401   0.459   6.249  12.527 -0.1089 -0.0663  0.0767
14933W        W30402   4.888   8.341  11.647  0.0065  0.3912  0.2617
14934W        W30403   2.566   8.565  15.453  0.0197  0.1921 -0.0744
14935W        W30404   1.610  15.215  16.496  0.0188  0.2811 -0.1253
14936W        W30405   4.555   8.110   0.908  0.0319  0.1570 -0.1320
14937W        W30406   5.124   8.212   4.820 -0.2109  0.2983 -0.0508
14938W        W30407   6.312   4.828  11.461 -0.1671 -0.1749 -0.1167
14939W        W30408   2.097  14.770  11.747 -0.0548  0.0402  0.0657
14940W        W30409   1.022  11.478  12.633 -0.0144 -0.1424  0.0507
14941W        W30410   7.084   1.135   2.389  0.2692 -0.0723 -0.0659
14942W        W30411  15.980   4.528   1.902  0.0512 -0.0272  0.0435
14943W        W30412   2.549   6.079   4.628  0.0786 -0.0126  0.0044
14944W        W30413  14.535   6.673  12.826 -0.1479 -0.1196 -0.1426
14945W        W30414   3.505  14.520  12.347 -0.3371 -0.0482 -0.1047
14946W        W30415  10.914   7.997  11.296  0.2638  0.0789 -0.0010
14947W        W30416  14.701   3.624  16.276 -0.0253 -0.0712  0.1140
14948W        W30417   0.732  12.552   2.070  0.0333 -0.2433  0.1164
14949W        W30418   6.657  14.907  13.443 -0.0039  0.0659 -0.0917
14950W        W30419   9.227   2.108   5.079 -0.2232 -0.0442  0.0053
14951W        W30420   5.900   8.604  13.423  0.0432  0.1247  0.1064
14952W        W30421   9.008  13.559   0.610 -0.0468  0.0901  0.0970
14953W        W30422  10.239  14.566  14.935 -0.1178 -0.0277  0.0617
14954W        W30423   2.217   3.752   4.548 -0.0780 -0.0444  0.2614
14955W        W30424  13.474  14.627   4.857  0.1945 -0.1718  0.0367
14956W        W30425   1.161  16.224  12.702 -0.1685 -0.1966  0.3356
14957W        W30426  13.601  16.527   1.082  0.0628 -0.0489  0.0587
14958W        W30427  11.122  11.643   1.063 -0.0178  0.2270 -0.1814
14959W        W30428   4.667   5.704   3.044 -0.1252  0.2995 -0.5461
14960W        W30429  10.386  16.703   1.419  0.2286 -0.0411  0.0999
14961W        W30430   6.856  17.053   4.373 -0.0150  0.3273  0.0807
14962W        W30431   8.580  12.669  11.306 -0.0443 -0.1870 -0.1583
14963W        W30432   3.375  11.677   5.154  0.1335 -0.0068 -0.0091
14964W        W30433   7.871   1.246  15.582 -0.0075  0.1638  0.2061
14965W        W30434  11.974   1.279  15.681  0.1594  0.0653  0.0857
14966W        W30435   5.796  15.283   4.104 -0.0702  0.1045  0.0931
14967W        W30436  14.646   6.583  11.917  0.1008  0.0656  0.4112
14968W        W30437  14.892   1.635   2.192  0.1414 -0.0333  0.0468
14969W        W30438   4.313  16.983   0.223  0.0125 -0.1931 -0.0140
14970W        W30439   1.673  13.572  13.132  0.1684  0.1939  0.1670
14971W        W30440   3.689   3.198  12.287 -0.0259 -0.0449 -0.0711
14972W        W30441  14.307   1.187   5.266  0.1645 -0.3004 -0.1209
14973W        W30442  13.239   2.282   1.142  0.2523 -0.0022  0.1054
14974W        W30443  14.603  14.055  15.239 -0.1255 -0.1799 -0.2640
14975W        W30444  15.080   2.086  10.456 -0.2318 -0.5158 -0.2324
14976W        W30445  14.253  13.601   0.780  0.0877  0.0197 -0.1674
14977W        W30446  12.664  11.795  13.310  0.1228 -0.8637 -0.0395
14978W        W30447   2.965   7.089   3.204  0.0662  0.0856  0.1773
14979W        W30448   1.961   5.589  14.906  0.1695  0.1490  0.0015
14980W        W30449  12.575  16.242  15.012 -0.3834 -0.0024  0.0610
14981W        W30450  13.799  14.210   2.625  0.1839  0.0012  0.0529
14982W        W30451   1.636  17.806   3.229  0.0716  0.0486 -0.0855
14983W        W30452   1.109   2.278  11.529  0.2216 -0.1495 -0.1499
14984W        W30453  12.998   2.446  14.257 -0.0550  0.1231 -0.0845
14985W        W30454  17.180   6.146   0.747 -0.0782 -0.1278 -0.1435
14986W        W30455   8.474   8.323  14.653  0.1957 -0.1201  0.0006
14987W        W30456   8.238   2.604  13.965  0.0665  0.0036  0.2525
14988W        W30457  12.438   6.123  12.268  0.0365  0.0766  0.1612
14989W        W30458  16.698   6.958  13.628 -0.1786  0.1212  0.2990
14990W        W30459   9.236   2.526  14.669  0.0532 -0.0829 -0.0436
14991W        W30460   3.705   5.521  14.550 -0.1394 -0.3346 -0.1810
14992W        W30461  15.342   3.391  15.463  0.2593 -0.0112  0.1648
14993W        W30462   9.244   7.198   2.021  0.3092 -0.2044  0.0379
14994W        W30463   9.719  12.664   4.696  0.0557 -0.0598  0.0492
14995W        W30464   3.747  15.336  14.015 -0.1238  0.2822  0.1392
14996W        W30465   2.037   3.963  10.674  0.1643 -0.2982 -0.0539
14997W        W30466  17.924   9.177   0.357  0.0497 -0.1391  0.2282
14998W        W30467   5.541  12.040  16.586 -0.0084  0.2785  0.1466
14999W        W30468   5.084   4.444  15.447 -0.0551 -0.3465 -0.1015
15000W        W30469  11.016   8.383   5.120  0.1166 -0.0323  0.2134
15001W        W30470  15.737  14.807   3.355 -0.0719  0.0413  0.1507
15002W        W30471   7.852   7.484  13.404  0.2320  0.0284 -0.1101
15003W        W30472  10.394   8.181  13.993 -0.1170  0.1050  0.3112
15004W        W30473   2.379   0.355  16.342 -0.0449  0.0684 -0.0070
15005W        W30474  17.159   2.036  15.147 -0.2083 -0.0668  0.0832
15006W        W30475   3.691  10.924   3.591  0.1136  0.1453  0.1795
15007W        W30476   5.932   6.037  15.079 -0.3538  0.3828  0.0101
15008W        W30477   0.508   7.480  11.508  0.0449  0.1418 -0.0052
15009W        W30478  13.140   0.397   2.818  0.0964 -0.2786  0.1088
15010W        W30479   1.374   7.507  14.870 -0.0872  0.2711 -0.0817
15011W        W30480  15.665   2.131   3.591  0.1869  0.0227  0.2762
15012W        W30481  17.772   2.685  15.397 -0.2038  0.0091  0.2102
15013W        W30482   1.588   0.655   4.729 -0.0334 -0.0215 -0.0254
15014W        W30483  17.667   5.784   2.646 -0.2010  0.1396  0.1185
15015W        W30484   6.735   3.049  13.102 -0.1575  0.1481 -0.3008
15016W        W30485  16.910   7.241   4.555 -0.0893  0.0310  0.2649
15017W        W30486   7.109   5.269  15.365  0.1061  0.0897  0.2502
15018W        W30487   8.511  14.681   1.493  0.2127 -0.0957 -0.0420
15019W        W30488   1.483   0.994  16.162 -0.0956 -0.1712  0.2985
15020W        W30489   7.671  13.107   2.585  0.0113  0.2130  0.0921
15021W        W30490  12.570  13.054   4.714 -0.0634 -0.2687 -0.1161
15022W        W30491   6.491  13.931   3.711 -0.4036  0.1117 -0.0934
15023W        W30492   7.022  16.991   1.857 -0.1340  0.0668  0.0181
15024W        W30493   8.087   2.266  14.346 -0.1403 -0.1028  0.4532
15025W        W30494   8.753   6.489  13.686 -0.0501  0.0114  0.0282
15026W        W30495   2.535   7.881   1.925 -0.0936  0.0588 -0.0158
15027W        W30496  17.969   5.708  14.958  0.3735 -0.0628 -0.0254
15028W        W30497  15.492  14.163   2.694 -0.0600  0.0150 -0.0050
15029W        W30498   6.661  11.466  16.029 -0.0236  0.3261  0.0686
15030W        W30499  16.586  10.122  13.457  0.1493 -0.1589  0.1893
15031W        W30500   2.687   7.173   2.273 -0.3241  0.0162 -0.1274
15032W        W30501  16.576  15.735   0.724 -0.1424 -0.2531 -0.3580
15033W        W30502   7.034   0.825  14.062 -0.1476  0.2538  0.0493
15034W        W30503   8.469   2.787  13.048 -0.0146 -0.2089  0.1731
15035W        W30504   1.558   4.311  16.377 -0.1295  0.1867  0.2117
15036W        W30505   5.959   7.893   4.693  0.1114  0.1043 -0.2004
15037W        W30506  14.111   7.669  11.435 -0.2390  0.0007  0.1802
15038W        W30507   7.650  11.308  13.018 -0.3426 -0.1204 -0.1279
15039W        W30508  15.591  11.084   4.619 -0.1250  0.2577 -0.3440
15040W        W30509  12.319   4.821   4.214 -0.0558 -0.0123  0.2813
15041W        W30510   1.938  11.873  12.980  0.0417  0.0146 -0.1927
15042W        W30511  16.944   7.362  11.635  0.3732 -0.1269 -0.0304
15043W        W30512  14.458  14.664   3.046 -0.2834  0.0525 -0.1578
15044W        W30513   1.601  10.802  10.888 -0.0713 -0.1487  0.3614
15045W        W30514  11.833   1.234  12.703  0.0940  0.0915 -0.1812
15046W        W30515  12.699  13.609   3.982  0.2412  0.1409  0.1140
15047W        W30516   2.163   4.251   1.422 -0.0396 -0.0646 -0.2880
15048W        W30517  12.556  11.310   2.644 -0.2927 -0.0072  0.1768
15049W        W30518  10.918   9.075  15.053 -0.2431  0.0400  0.0844
15050W        W30519  16.543   3.899   5.961  0.1551  0.0093 -0.2325
15051W        W30520   3.069   0.456  13.367  0.0885  0.2579  0.0336
15052W        W30521   0.216   1.263   0.080  0.0246  0.0390  0.1067
15053W        W30522  13.604  16.186  12.462  0.0673  0.0156 -0.2379
15054W        W30523  11.837   4.509   0.675  0.0187 -0.0765 -0.0311
15055W        W30524   4.924  13.364  15.034  0.1226  0.0624  0.1223
15056W        W30525   3.720   0.819  16.293  0.0482 -0.0051 -0.2756
15057W        W30526   9.482   7.793  11.979  0.1091  0.0839 -0.2345
15058W        W30527  10.812   2.170   4.849  0.4469  0.1737 -0.0319
15059W        W30528   6.244   1.292   0.170  0.2510  0.2157  0.0232
15060W        W30529   3.006  10.779  12.021  0.0331  0.0017 -0.0286
15061W        W30530  16.852  10.374  12.964 -0.1641 -0.1008 -0.2010
15062W        W30531  11.357   4.693  13.086  0.0625 -0.0620 -0.0569
15063W        W30532   7.796  17.556  15.475 -0.0129  0.2357 -0.1378
15064W        W30533   8.040  15.973  12.827 -0.1997  0.0591 -0.0959
15065W        W30534   9.183   0.665  11.497 -0.0824  0.0868 -0.2123
15066W        W30535   9.556   8.787   5.437  0.0777 -0.2829  0.1721
15067W        W30536   4.195   4.275   4.970 -0.1572 -0.0206  0.0759
15068W        W30537  15.903  13.916   2.589 -0.0922  0.0943 -0.2213
15069W        W30538   8.048   1.958   2.442  0.2386 -0.0299  0.1562
15070W        W30539   7.737  11.991  11.543  0.1126  0.1222 -0.0057
15071W        W30540   8.220  13.085  14.306  0.2529  0.0089 -0.1274
15072W        W30541  12.383   8.473  12.857 -0.0011 -0.1391 -0.0743
15073W        W30542  11.944   1.179   5.444 -0.1512 -0.0881  0.2776
15074W        W30543  17.134   6.736  12.204  0.2225  0.1424  0.0124
15075W        W30544  15.919   9.992   5.588 -0.1084 -0.2042 -0.0027
15076W        W30545   3.907   2.662  12.215 -0.3083 -0.0074  0.3075
15077W        W30546   3.925  11.867  14.902  0.0491 -0.1620  0.0171
15078W        W30547   1.231  15.835  16.502 -0.0428 -0.3245 -0.2490
15079W        W30548  13.439  14.652  14.194 -0.1152  0.0230 -0.0347
15080W        W30549   2.983   7.593  13.344  0.0478 -0.1191  0.0224
15081W        W30550   5.094   9.389   3.874 -0.0708  0.1306  0.2048
15082W        W30551   4.287  15.221   1.996 -0.0053 -0.1424 -0.4080
15083W        W30552   5.950  10.984   1.645 -0.2548  0.0544 -0.0546
15084W        W30553   0.191  10.514  14.105  0.3603 -0.0791 -0.2108
15085W        W30554  14.774   2.333  13.447  0.1961  0.0311 -0.0397
15086W        W30555  10.618   2.791   6.130 -0.0112 -0.0205 -0.1790
15087W        W30556   5.188   3.153  14.039  0.0686  0.1300 -0.2665
15088W        W30557   2.270   4.783  11.661  0.0763  0.0443  0.1200
15089W        W30558   0.060  10.061   3.198 -0.3212  0.0429 -0.1043
15090W        W30559  17.233  14.266   0.717  0.2701  0.1116 -0.0598
15091W        W30560   3.343  10.062   0.210 -0.1336  0.3497 -0.1400
15092W        W30561  16.029   2.292   5.412  0.0017  0.1542  0.0465
15093W        W30562   7.657  17.197   3.950 -0.3612  0.0408 -0.2324
15094W        W30563  13.145   2.627  13.779  0.0746  0.1787  0.1418
15095W        W30564  11.391   9.935  10.865 -0.2668  0.1033  0.2289
15096W        W30565  14.616  14.236  13.587  0.3471 -0.1821  0.1231
15097W        W30566  16.793   6.023   3.805  0.1453  0.0015 -0.2568
15098W        W30567   5.790  13.592  16.037 -0.1946  0.0927  0.3595
15099W        W30568   8.530  10.955   0.254 -0.1239 -0.0392 -0.2291
15100W        W30569  13.460   0.815  13.061  0.2638  0.1030 -0.0033
15101W        W30570   7.071   8.508   3.359  0.1731  0.0315  0.1409
15102W        W30571  17.408   0.554   1.105  0.0168  0.0609  0.1676
15103W        W30572   0.020  16.585   1.640  0.0853 -0.2213 -0.1666
15104W        W30573  11.303   7.035  13.257 -0.1746 -0.0459  0.1476
15105W        W30574  12.786   5.655  14.038 -0.2764  0.0117  0.1066
15106W        W30575   4.291  11.456  12.576 -0.0605 -0.0448  0.1511
15107W        W30576   4.622   0.498   5.424  0.2962 -0.1975  0.1192
15108W        W30577   7.409   9.261  14.594  0.2876 -0.2484  0.0633
15109W        W30578   9.240  16.648  12.696 -0.5087 -0.1994  0.1460
15110W        W30579  16.391   2.106  15.553  0.0161  0.1560  0.1648
15111W        W30580   2.230   3.902  14.241 -0.2181  0.3366  0.1248
15112W        W30581   9.568  15.993  11.951 -0.2664  0.0015  0.0707
15113W        W30582   8.327   8.529  15.129  0.0347 -0.1657 -0.1302
15114W        W30583   9.531   9.109  14.752 -0.0039  0.0554 -0.2649
15115W        W30584  15.109   2.421   5.068  0.3135 -0.2214  0.1810
15116W        W30585   4.533   8.601   0.165 -0.0768 -0.0522  0.1026
15117W        W30586   4.305   1.422  15.793 -0.0012  0.1010  0.0463
15118W        W30587  12.915  16.646  14.740  0.1091 -0.0073 -0.0074
15119W        W30588   5.342   4.866   5.179 -0.0564  0.1596  0.1610
15120W        W30589   1.629   6.524  11.778  0.0844 -0.0578 -0.1266
15121W        W30590  15.725   9.793  15.782 -0.1628 -0.1720 -0.0224
15122W        W30591  13.438   7.912   3.626  0.0125  0.0554 -0.0375
15123W        W30592   2.942   2.887   6.110  0.1276 -0.0657 -0.1290
15124W        W30593  12.880  11.297  12.819 -0.2908  0.1553 -0.1882
15125W        W30594  16.590   8.871  12.769 -0.0612 -0.2226  0.1793
15126W        W30595   4.641  11.843   4.423 -0.0904 -0.2137 -0.0591
15127W        W30596   9.250  14.626  14.797 -0.0377  0.0190 -0.1337
15128W        W30597   7.834   6.902   4.989 -0.0675 -0.1314  0.1390
15129W        W30598   0.735   6.824  16.556  0.0355 -0.0649  0.1823
15130W        W30599   0.446   2.542  11.149  0.2020 -0.0065 -0.1072
15131W        W30600   7.016   3.426   3.982  0.0236  0.1191  0.1856
15132W        W30601   9.068  17.047   2.754  0.1785  0.0195  0.0482
15133W        W30602  17.330  17.083  12.550 -0.0106  0.0001  0.3243
15134W        W30603   5.972   1.505  13.670  0.0337 -0.2235  0.0715
15135W        W30604   7.088  13.995  13.145  0.0187 -0.1526  0.0574
15136W        W30605   3.465   5.792   1.470 -0.1450 -0.3215  0.2272
15137W        W30606  13.003   2.415  15.352  0.4280  0.2887 -0.4551
15138W        W30607   3.644  13.544   1.964 -0.0828  0.1013 -0.1890
15139W        W30608   8.981  16.832  13.688 -0.1812 -0.0552  0.1157
15140W        W30609  12.619  16.642   1.514 -0.0400  0.2806 -0.1079
15141W        W30610  15.166  15.632   2.324 -0.1012 -0.2407  0.1543
15142W        W30611   7.686   8.026   0.316  0.0382 -0.1830 -0.1934
15143W        W30612   6.258   9.912   2.472  0.0589 -0.1003  0.0599
15144W        W30613   1.788   9.437  13.648 -0.3971 -0.2048 -0.5006
15145W        W30614  10.420   3.150  13.453 -0.0464 -0.0013  0.1464
15146W        W30615   4.290   4.443  15.028 -0.0147 -0.1516 -0.0720
15147W        W30616   2.445  15.474   2.015  0.1245 -0.4165  0.0801
15148W        W30617  16.498   7.254   0.967  0.2794 -0.1171  0.0183
15149W        W30618  10.511   1.905  12.967  0.0691 -0.1710  0.0784
15150W        W30619  10.527   6.125  13.477 -0.0472 -0.0183  0.1788
15151W        W30620  12.160  15.322   0.900  0.0220  0.0772 -0.0846
15152W        W30621  11.117  16.151   2.085 -0.1158  0.2483 -0.0988
15153W        W30622   2.416  10.021  13.031  0.3643 -0.1778  0.0063
15154W        W30623   3.751  15.489  12.468 -0.1279  0.0680  0.1102
15155W        W30624  11.448   3.095   4.035  0.1520  0.0867  0.1319
15156W        W30625  13.193  10.634   0.249 -0.3192  0.0898  0.1866
15157W        W30626   3.926   4.786  14.991 -0.0132 -0.3373  0.0433
15158W        W30627   7.040   3.745   4.469 -0.0263 -0.0910 -0.0247
15159W        W30628   7.338   1.730   4.519  0.3704  0.0529  0.4421
15160W        W30629  14.529  11.208   2.228  0.2007  0.0442  0.1189
15161W        W30630   9.461   3.970  12.190 -0.0326  0.0768  0.1441
15162W        W30631   0.725  13.950   6.391  0.0775  0.2295  0.2414
15163W        W30632  12.741  10.332  15.984  0.0199  0.1306  0.1302
15164W        W30633  10.801  13.750  15.304 -0.0873  0.3422  0.0483
15165W        W30634   8.505   8.203  14.202  0.0683 -0.1643 -0.1278
15166W        W30635   0.747  14.719  13.280 -0.0613 -0.2554  0.0460
15167W        W30636   5.660   5.954  10.970  0.0635  0.3409 -0.0265
15168W        W30637   2.183  14.565  14.326  0.1163  0.0071 -0.0738
15169W        W30638   7.336  10.963  15.980 -0.0631 -0.2148  0.0023
15170W        W30639   4.489  17.384   5.305  0.0114 -0.0014  0.2444
15171W        W30640  10.745   2.336  12.880 -0.1216  0.1013 -0.1795
15172W        W30641  17.702   7.465  13.153 -0.2541 -0.1644 -0.0847
15173W        W30642  16.944  14.899  12.549  0.0093  0.2281  0.2266
15174W        W30643  12.435   6.134   3.188 -0.1698  0.1218  0.0337
15175W        W30644   7.794  10.190  12.158  0.1239  0.0201  0.2245
15176W        W30645   0.400  16.693   3.030  0.2285 -0.0644 -0.2385
15177W        W30646   5.803   4.666   4.334  0.0414  0.0121 -0.2146
15178W        W30647   1.241   4.847  11.648  0.0848 -0.0079 -0.1185
15179W        W30648  12.187  11.070  13.166 -0.4086 -0.0478  0.0530
15180W        W30649   2.157   3.875  11.704 -0.0214 -0.2410  0.2207
15181W        W30650   8.517  10.411  12.330  0.0808  0.0146  0.0679
15182W        W30651   7.573   0.722  13.926 -0.0868  0.1433  0.0059
15183W        W30652   1.892  11.403   1.096  0.1913 -0.0692  0.2104
15184W        W30653   4.220  15.589  14.934  0.0992 -0.1776  0.1822
15185W        W30654  12.249   3.192  10.839 -0.4048  0.0851  0.0482
15186W        W30655   7.602  17.959  15.131  0.2630  0.3596  0.0753
15187W        W30656   5.818  17.356  13.318  0.1401  0.0126  0.0065
15188W        W30657   8.549  11.453  14.813  0.0686  0.0236 -0.2112
15189W        W30658   9.903  14.676   2.446 -0.1912  0.0090  0.0267
15190W        W30659   4.492  17.001  14.548  0.2375 -0.1494  0.1504
15191W        W30660   5.004  14.056   3.098  0.0702  0.2087 -0.1086
15192W        W30661   5.601  14.170   1.737  0.1022  0.4413  0.2193
15193W        W30662  14.900  17.888   5.147  0.0093 -0.0161  0.0804
15194W        W30663  14.930  17.894   1.394 -0.1708  0.0676  0.0204
15195W        W30664   1.992  15.442   3.346 -0.2260  0.1968  0.2840
15196W        W30665  10.329   4.625   2.468 -0.1910  0.0742  0.1995
15197W        W30666  11.277   0.272   6.603 -0.1597 -0.2559 -0.2011
15198W        W30667   8.058   1.488   2.154 -0.0622  0.2129 -0.4824
15199W        W30668   8.056  10.565  14.204 -0.1915  0.2130 -0.0806
15200W        W30669   4.240   8.740   3.513  0.2017 -0.1529 -0.2509
15201W        W30670   6.792  10.453  14.952 -0.1448 -0.0097 -0.0621
15202W        W30671  12.432  15.005   3.113 -0.1139  0.1790  0.0103
15203W        W30672  10.088   5.403  14.058 -0.1424 -0.0038 -0.0039
15204W        W30673  15.870   1.176  14.811  0.0011  0.0289  0.2186
15205W        W30674  14.336   6.996  15.988  0.1710 -0.3210 -0.1889
15206W        W30675   0.178  12.742   3.211  0.3022 -0.1797 -0.2003
15207W        W30676  13.463   7.153  13.623 -0.0319  0.0218  0.1678
15208W        W30677   9.451  10.222  11.289 -0.0936 -0.0404 -0.0859
15209W        W30678  12.261   5.868  11.193  0.0939  0.0007  0.0955
15210W        W30679  11.004   5.160  16.520 -0.3818  0.0739 -0.5103
15211W        W30680   4.617  12.920  15.729 -0.1619  0.0327 -0.0214
15212W        W30681  15.744   3.344   3.753 -0.1265 -0.0134  0.1551
15213W        W30682  17.803   0.635  13.942 -0.2948 -0.0009 -0.4489
15214W        W30683   9.949  13.895  12.230  0.1705  0.0637 -0.0019
15215W        W30684  15.442  16.295  11.586  0.0584 -0.0110  0.0213
15216W        W30685   7.230  13.969  11.878 -0.0902  0.0413 -0.2389
15217W        W30686   7.022  10.912   1.333 -0.1432 -0.0466 -0.1976
15218W        W30687  14.199   2.263   1.211  0.1066 -0.0457  0.0275
15219W        W30688  12.638   1.836  13.425  0.0086 -0.1249 -0.0058
15220W        W30689   2.125   9.225   1.726  0.0933  0.3644 -0.1157
15221W        W30690   3.388  17.941  15.402  0.0654  0.2091 -0.5114
15222W        W30691  10.135  10.962  14.232 -0.0835 -0.0991 -0.2819
15223W        W30692  17.624  10.013   1.458 -0.4407 -0.0379 -0.1543
15224W        W30693  10.527   6.118  12.058 -0.2757 -0.0076  0.3181
15225W        W30694   6.902  16.367  16.507 -0.2310 -0.2102  0.0568
15226W        W30695   6.351   1.293  16.243 -0.0500  0.2345  0.0762
15227W        W30696   9.196  12.868  11.649 -0.1846  0.0372 -0.2030
15228W        W30697  17.862   7.524   1.568 -0.2525  0.0952  0.0736
15229W        W30698  12.461  11.936   3.233 -0.1096 -0.2550 -0.1686
15230W        W30699  14.987   9.074   1.157 -0.1434  0.1487 -0.0476
15231W        W30700   2.867   8.322   0.773  0.0020 -0.0469  0.0628
15232W        W30701  17.281   5.252   4.033  0.1266  0.0027 -0.2341
15233W        W30702   3.709  12.698  16.132 -0.1393  0.2357  0.1133
15234W        W30703  10.443   9.413   1.622 -0.2342  0.1009  0.1230
15235W        W30704   9.364  13.158   0.974 -0.1209  0.0867  0.2978
15236W        W30705  11.341   2.395   2.525  0.2700 -0.1123  0.2232
15237W        W30706   6.449  13.219   3.726 -0.0432 -0.0447 -0.1193
15238W        W30707   7.989  17.364  13.543 -0.3312  0.0574 -0.1455
15239W        W30708  16.669  17.018  13.394  0.2280 -0.1517 -0.0072
15240W        W30709  14.686   5.532  11.703 -0.1272 -0.0169  0.1893
15241W        W30710  12.637  17.665   2.501 -0.1113 -0.1815  0.0303
15242W        W30711  10.983  10.769  16.027  0.0385 -0.4942 -0.3993
15243W        W30712  17.628  17.385   2.012  0.0420  0.0462  0.0363
15244W        W30713   5.512   8.935   1.928  0.1069  0.1097  0.2571
15245W        W30714   8.429   0.658   4.073  0.0336 -0.3193 -0.1419
15246W        W30715   7.187   4.729   3.105 -0.1298  0.3994 -0.2839
15247W        W30716  16.031   2.169   2.223 -0.4081  0.0240  0.0619
15248W        W30717  11.621   0.177   4.725  0.1108 -0.1673 -0.1303
15249W        W30718   8.302  17.081  10.567 -0.3594 -0.3191 -0.0937
15250W        W30719  16.344   0.116  12.989 -0.1886 -0.1477  0.1166
15251W        W30720   7.484   1.552  14.652  0.0650  0.2093 -0.1513
15252W        W30721  11.518   9.190   3.986 -0.1414  0.0060 -0.0126
15253W        W30722  13.718   2.857  11.991  0.0355  0.1085  0.2533
15254W        W30723  15.987   1.280  15.396 -0.2678  0.2821 -0.0127
15255W        W30724   0.443  11.068  11.594 -0.0329 -0.0797  0.0725
15256W        W30725  16.014  13.306   0.596 -0.1954 -0.0158 -0.1617
15257W        W30726  14.621   8.429  16.556 -0.1254 -0.0923  0.3065
15258W        W30727  16.571   0.882   4.141 -0.0537 -0.0054 -0.0643
15259W        W30728   4.605  12.292  14.402  0.2126 -0.0186  0.2600
15260W        W30729  11.972   4.092   1.404 -0.0333  0.1079  0.4196
15261W        W30730  16.224   7.932  13.528  0.0467 -0.0488 -0.1839
15262W        W30731  16.322   8.626  12.329  0.0879 -0.0324  0.3946
15263W        W30732  12.571   0.563  14.817  0.1738  0.2301 -0.1777
15264W        W30733  16.817   4.259  14.642  0.0132  0.4796 -0.3805
15265W        W30734   4.050   6.584  13.061  0.0544 -0.2060 -0.1573
15266W        W30735   8.050   8.355  13.060 -0.1509  0.1961 -0.2786
15267W        W30736   6.010   7.071   1.314  0.1289 -0.1541  0.0203
15268W        W30737   7.657   4.387   3.201  0.0137 -0.1830 -0.2001
15269W        W30738  17.865  13.305   3.820 -0.2188  0.1089 -0.0203
15270W        W30739  13.667   5.045  14.182  0.0535 -0.0544  0.0329
15271W        W30740  13.057   7.063  14.765  0.0340 -0.0294  0.2618
15272W        W30741   5.053   8.026   4.276  0.1392  0.0277 -0.4575
15273W        W30742  11.243   0.919  14.012 -0.0008 -0.3473 -0.1310
15274W        W30743   9.897  15.019   1.044 -0.3390  0.0761 -0.1664
15275W        W30744   0.237   5.704  14.428  0.1329  0.0016 -0.1134
15276W        W30745   3.695  16.804  14.998 -0.0970 -0.1651 -0.1941
15277W        W30746  10.537   6.315  11.083 -0.2153 -0.1358 -0.0244
15278W        W30747  15.622  16.042  14.938 -0.0656 -0.1458 -0.0502
15279W        W30748  10.583   5.917   3.157 -0.0323  0.2182 -0.2914
15280W        W30749   7.119   6.559   1.934 -0.1666  0.1110 -0.1293
15281W        W30750  15.533  10.397   4.043  0.1016  0.0795 -0.2094
15282W        W30751   4.742  11.349  14.485 -0.4766  0.0305 -0.3304
15283W        W30752  14.007  16.556  11.777  0.1771  0.1195  0.2597
15284W        W30753   1.165   7.411   1.831  0.0384  0.1434  0.0838
15285W        W30754   5.622  10.959   1.145  0.0718  0.1934 -0.1967
15286W        W30755  11.199   3.136   1.393  0.0056 -0.1664  0.0362
15287W        W30756   5.852   9.615   2.568  0.1689  0.0844  0.1877
15288W        W30757   3.635   6.676   0.364  0.1316 -0.1679  0.1615
15289W        W30758  12.646  15.049   2.080  0.0725  0.1413  0.2722
15290W        W30759  10.540   7.478   2.275  0.2474 -0.0921  0.1247
15291W        W30760  11.194  12.183  14.495 -0.0155  0.0154  0.4738
15292W        W30761   2.378  17.762   1.309 -0.1208  0.0882 -0.1182
15293W        W30762   2.212  11.832  13.941  0.3138  0.0193  0.1179
15294W        W30763  10.564   9.403   1.111  0.0929  0.0934 -0.1193
15295W        W30764  16.084   4.336   2.735  0.2426  0.2589  0.0372
15296W        W30765   4.360   0.516  16.238  0.1305 -0.4442 -0.3153
15297W        W30766  13.412  14.675   1.633  0.1558  0.3257  0.1127
15298W        W30767  16.497  17.450   2.841 -0.0697  0.1461 -0.0955
15299W        W30768   4.692   3.044  12.903  0.0528  0.0398  0.0938
15300W        W30769  11.654   1.642  12.563 -0.1469  0.1129  0.1822
15301W        W30770  16.749  12.010  13.552 -0.3809 -0.1451  0.1030
15302W        W30771  11.094   6.208  12.853  0.0693 -0.1276  0.0309
15303W        W30772   0.182   2.079   4.873 -0.3752 -0.2779  0.0092
15304W        W30773   3.224   0.524   3.654  0.3199 -0.2691 -0.0766
15305W        W30774   8.650  15.354   5.347  0.3250 -0.1459  0.1424
15306W        W30775  13.452  16.286   4.136 -0.1233 -0.1837 -0.1401
15307W        W30776   5.741  10.503   2.670  0.0948  0.0257  0.2062
15308W        W30777   4.244  10.551  16.096  0.0451 -0.2005 -0.4321
15309W        W30778  16.164   3.646   5.799  0.1639  0.0077  0.0936
15310W        W30779   1.822   4.387  12.252  0.1525 -0.4852  0.3039
15311W        W30780  10.997   4.388  13.994 -0.3693 -0.0095 -0.1183
15312W        W30781   2.653  13.034   1.833 -0.3338 -0.1317 -0.2038
15313W        W30782  12.353  15.810  15.244 -0.0951  0.2690 -0.2095
15314W        W30783  10.568   1.998   5.287 -0.0778  0.0758 -0.2131
15315W        W30784  14.923  11.221  13.419 -0.1244  0.4672 -0.1011
15316W        W30785   7.655   5.604  14.769  0.0496 -0.0637 -0.1177
15317W        W30786  10.051  14.104   3.092 -0.0304  0.0244  0.3080
15318W        W30787   9.770  14.657   6.486 -0.0873  0.0685 -0.4632
15319W        W30788   5.348   0.744   4.303 -0.2072  0.2146  0.1855
15320W        W30789  11.792  15.211  14.657  0.2129  0.0074  0.0716
15321W        W30790  12.123   5.318  11.287  0.0983 -0.2142 -0.1668
15322W        W30791  16.650   5.090  15.896  0.1228 -0.0688 -0.2377
15323W        W30792   2.441   6.929  15.754  0.2168 -0.0289 -0.2850
15324W        W30793   4.200   6.917   0.413 -0.0222  0.0329 -0.3658
15325W        W30794  16.875  14.634   1.869 -0.0132 -0.2730 -0.0869
15326W        W30795  16.279   3.704  13.878 -0.0821 -0.0778 -0.1602
15327W        W30796   3.025   3.938  12.133 -0.0199  0.2710  0.2002
15328W        W30797   8.138   1.161   5.984 -0.0022 -0.3384  0.0983
15329W        W30798   6.084  14.483  12.376  0.1127 -0.2469 -0.1097
15330W        W30799  17.166  14.235   2.308 -0.0899 -0.0796  0.2272
15331W        W30800  14.220  14.734  12.237 -0.2474  0.1472  0.0779
15332W        W30801   8.247  17.957   2.451 -0.0646  0.1843  0.2349
15333W        W30802  17.077  13.021   4.198  0.1175  0.2650  0.2078
15334W        W30803   4.532  15.361   0.394 -0.1003 -0.0705 -0.0637
15335W        W30804  13.578   8.019  13.725  0.0086 -0.0135 -0.0040
15336W        W30805  16.622   9.809  10.596 -0.0184 -0.1320  0.0293
15337W        W30806  11.481   8.763  14.830  0.0031 -0.1207  0.0367
15338W        W30807  16.820   8.316  14.250 -0.0374  0.0378 -0.3581
15339W        W30808   8.171  17.167  11.886 -0.2627  0.0148  0.1037
15340W        W30809  12.445  14.710  11.603 -0.0131  0.1167  0.0809
15341W        W30810  14.911  12.870   5.751 -0.0676 -0.0410  0.2906
15342W        W30811   8.025   3.513   1.932 -0.1927 -0.1879 -0.2252
15343W        W30812   6.399  10.830   5.691  0.3418  0.0423 -0.1742
15344W        W30813   6.944  13.897   4.484  0.0150 -0.0505 -0.1374
15345W        W30814  12.739   6.233   2.270 -0.0315 -0.0767  0.0345
15346W        W30815   7.383   9.748  11.590 -0.2524 -0.0963 -0.0651
15347W        W30816  12.231   7.953   3.716 -0.0798 -0.2346 -0.0209
15348W        W30817  17.310   8.610  13.417  0.1116 -0.0867  0.0692
15349W        W30818   4.507  17.663   4.050  0.0575  0.1898 -0.0485
15350W        W30819   7.554   0.522   1.814  0.1923 -0.1107 -0.3246
15351W        W30820   1.050  15.608   3.115  0.0018  0.1346  0.0161
15352W        W30821   9.780  10.003   0.652 -0.4142  0.2586 -0.0033
15353W        W30822  16.810  11.352  15.889  0.0442 -0.0123 -0.1611
15354W        W30823  13.703   6.315  13.299 -0.0154 -0.0683 -0.0125
15355W        W30824  12.757   3.606  15.761  0.2208 -0.0894 -0.1875
15356W        W30825  16.540  10.962   3.594  0.1086  0.1371 -0.2786
15357W        W30826   3.207  10.219  13.670  0.1856  0.0553 -0.1510
15358W        W30827  13.668   6.760  12.864 -0.3170  0.0487  0.0665
15359W        W30828  17.059  12.935   5.796 -0.3298  0.0245  0.1017
15360W        W30829  11.330  16.069   4.726 -0.0105 -0.2850  0.0736
15361W        W30830   2.105   0.204   5.337  0.0455 -0.1177 -0.0829
15362W        W30831   5.998  11.489  11.471 -0.1766 -0.0795  0.0654
15363W        W30832  12.180   8.506   3.681  0.0139  0.1810  0.3570
15364W        W30833   2.971  15.077  14.540 -0.3438 -0.2761  0.0223
15365W        W30834  13.062   4.726  14.522  0.3504 -0.2325  0.0918
15366W        W30835  10.106  14.909  14.584  0.0321 -0.1581 -0.3276
15367W        W30836   8.072  16.957   3.762 -0.3190  0.3000  0.0317
15368W        W30837  10.984  16.116   5.071 -0.0308 -0.1072 -0.2065
15369W        W30838  15.400  11.496  11.309 -0.1346  0.1104  0.1590
15370W        W30839   7.743   5.233  16.156  0.2706  0.1197  0.0043
15371W        W30840   1.546  13.224  11.849 -0.0435  0.4244 -0.2463
15372W        W30841  11.524   2.790   6.359  0.0391 -0.2973 -0.2071
15373W        W30842  15.313   8.072  13.888 -0.1062 -0.3204  0.1036
15374W        W30843   6.357  16.380   2.977  0.3384 -0.3117  0.0339
15375W        W30844   3.356   5.788   2.817  0.1167 -0.0140  0.2245
15376W        W30845   3.272   7.882  12.958  0.3118 -0.0863  0.1222
15377W        W30846  10.207  16.895  15.635 -0.2689 -0.0283 -0.0566
15378W        W30847  13.343   0.125   3.191  0.2573  0.2096  0.1791
15379W        W30848  10.580   1.952  16.049 -0.2604 -0.2252  0.1485
15380W        W30849   2.438   9.600  11.842 -0.0765  0.1059  0.0301
15381W        W30850   6.341   0.741   1.840  0.1003  0.1571 -0.2930
15382W        W30851   6.353   2.426   6.281 -0.0074  0.0987  0.0399
15383W        W30852  13.666   5.888  11.433  0.0754  0.0961  0.0472
15384W        W30853  17.051  15.022   0.261 -0.1116  0.2677  0.1267
15385W        W30854   4.028   9.686  16.527  0.4528  0.1641 -0.2491
15386W        W30855   6.059   1.588  11.880 -0.1937 -0.0490  0.0173
15387W        W30856   0.282  15.428  14.859 -0.1370  0.1894  0.0698
15388W        W30857  16.956   8.684  14.505  0.0940 -0.2515  0.0020
15389W        W30858   3.177   0.876  13.079 -0.1278  0.0976  0.0370
15390W        W30859   6.148   3.078   5.424  0.2203  0.3222  0.1653
15391W        W30860   4.623   7.357  13.430 -0.1912 -0.0236 -0.0304
15392W        W30861   4.216   7.797  12.748 -0.1284  0.1044  0.0109
15393W        W30862   1.433  14.517   3.435  0.3906 -0.0178 -0.0070
15394W        W30863   5.803   5.546  15.053 -0.0574  0.0310 -0.0988
15395W        W30864  12.550  12.510   4.238  0.0008  0.2380 -0.0182
15396W        W30865  17.385   5.607  12.279  0.1435  0.0819  0.3184
15397W        W30866   6.329  12.168  12.089  0.3673 -0.1332 -0.2323
15398W        W30867   3.148  14.394  11.795 -0.1417  0.0365 -0.1420
15399W        W30868   9.842   9.543   4.233 -0.4667 -0.0970  0.0417
15400W        W30869   4.426  11.110  14.808  0.3111  0.2462  0.3051
15401W        W30870   9.735  13.631  13.541 -0.1935 -0.1035  0.1212
15402W        W30871  12.926   2.246   5.419  0.0181  0.0294 -0.0078
15403W        W30872  17.029  17.003  14.364  0.0604 -0.0575 -0.1083
15404W        W30873  11.334   3.878   5.910  0.2863  0.1839  0.1188
15405W        W30874  11.822  12.685   3.005 -0.0712  0.0734  0.0377
15406W        W30875   6.839  17.852  12.672  0.1033  0.0280  0.1064
15407W        W30876  16.480   3.469   1.898  0.0832 -0.0988  0.4420
15408W        W30877  11.732   9.970  14.494  0.1046 -0.0432 -0.1894
15409W        W30878  15.173   3.792   3.791 -0.0265  0.3193  0.1055
15410W        W30879   2.331   3.464  11.964 -0.0847  0.0859  0.0989
15411W        W30880  13.833  13.490  14.795 -0.0692  0.0687 -0.0838
15412W        W30881   0.434  17.686   3.779  0.1520  0.4327 -0.5823
15413W        W30882  16.273   5.461   1.227  0.0820 -0.1558 -0.0589
15414W        W30883  13.615  16.042  15.227  0.1461  0.1582 -0.0228
15415W        W30884  11.541  16.551   4.780 -0.5266 -0.0078  0.1890
15416W        W30885   9.366  17.785  15.001  0.1579  0.1004 -0.1053
15417W        W30886   5.833   4.022   0.144  0.3902  0.2731  0.0624
15418W        W30887   4.095   2.401   4.415  0.1572  0.3714 -0.0060
15419W        W30888  15.619   7.196  12.260  0.0140  0.1714 -0.0054
15420W        W30889  10.777   9.445   0.655  0.0000 -0.0612 -0.0061
15421W        W30890   6.591  17.738  16.033  0.1121  0.2340 -0.0129
15422W        W30891  11.740  12.822  14.737 -0.1771  0.1544 -0.1795
15423W        W30892  10.046   9.956  15.803  0.0894 -0.1166 -0.0572
15424W        W30893  10.350  12.925  16.375  0.0795 -0.4511 -0.5386
15425W        W30894  12.081   8.266   5.461 -0.1156 -0.1029  0.1266
15426W        W30895   4.710   4.197  15.119 -0.1481  0.1605 -0.1366
15427W        W30896   1.907  15.284   3.910  0.0498  0.1751  0.0319
15428W        W30897   4.075  12.227   4.041  0.1213  0.2856  0.2754
15429W        W30898   9.906   2.486  13.344 -0.0916  0.0060 -0.1721
15430W        W30899  13.460  13.559   3.370 -0.4873 -0.0482  0.2910
15431W        W30900  16.902  11.441  12.181 -0.0254  0.1067 -0.1812
15432W        W30901   4.036  12.348  12.108  0.0496 -0.3178 -0.2877
15433W        W30902  12.857   6.292   3.075 -0.2142 -0.0601  0.0108
15434W        W30903   8.146   3.334   0.558 -0.3130 -0.0528  0.0446
15435W        W30904   8.888   2.129  16.191  0.3893  0.0694 -0.0931
15436W        W30905   6.751   9.430  13.362 -0.1761 -0.1146 -0.0615
15437W        W30906   3.488  11.957   5.994 -0.1234  0.1383 -0.0080
15438W        W30907   0.251   2.960  11.316  0.1312  0.1549 -0.0878
15439W        W30908   2.581   0.147  12.733 -0.4280 -0.0264 -0.0607
15440W        W30909   3.244   4.815  13.876 -0.4052 -0.0450  0.0078
15441W        W30910  16.126  15.975  14.930  0.0946  0.0384 -0.1495
15442W        W30911   4.076  11.897  10.127 -0.2319  0.0257 -0.0050
15443W        W30912   8.914   1.055  16.034  0.0973  0.0561  0.0178
15444W        W30913   2.931  14.921  16.310 -0.0167  0.1820 -0.1659
15445W        W30914  17.386   1.535  15.253 -0.0657 -0.1425 -0.0452
15446W        W30915   6.276   0.196   2.793  0.0902  0.2155 -0.0330
15447W        W30916  14.316   1.168  12.601 -0.0966  0.2040  0.0644
15448W        W30917   6.607  13.422   3.285  0.0329  0.0291 -0.1030
15449W        W30918   2.233   7.849  11.597  0.2352 -0.1619 -0.1220
15450W        W30919  13.277   8.968  14.435 -0.1223 -0.1353  0.1489
15451W        W30920   7.926  17.623  16.002  0.1024 -0.0510  0.0907
15452W        W30921   3.092  11.450  14.141 -0.2324  0.0120 -0.1261
15453W        W30922   7.276  11.353  11.883 -0.1994  0.0924 -0.1068
15454W        W30923  13.174  13.338   2.424 -0.0547  0.1209  0.0897
15455W        W30924   7.648   2.625   2.494 -0.1223 -0.1497 -0.4058
15456W        W30925   3.853  10.844   2.320  0.0287  0.0955  0.0655
15457W        W30926   1.273   5.925  12.742  0.1399 -0.1349  0.1989
15458W        W30927   2.946  14.538   4.494 -0.0110  0.1206 -0.0423
15459W        W30928   5.844  12.368   2.968 -0.0697 -0.1403  0.2917
15460W        W30929  12.372   4.229  15.750  0.0853 -0.1548  0.2300
15461W        W30930   3.330  17.936   3.152 -0.0378  0.1135 -0.0123
15462W        W30931   0.619  17.073   5.074 -0.1829 -0.0420  0.1899
15463W        W30932  10.809   8.892   1.768 -0.0185  0.0594  0.0841
15464W        W30933   6.925   5.146   2.564  0.0207  0.1686 -0.0318
15465W        W30934  13.777  14.647   0.801  0.2842 -0.1764 -0.2676
15466W        W30935   5.296   4.131  11.693  0.2613 -0.2198  0.3160
15467W        W30936  14.653   6.152   1.702 -0.2525  0.2855 -0.1190
15468W        W30937   5.432  17.936  12.795  0.0873  0.1403 -0.2280
15469W        W30938   4.930   4.070   1.598 -0.4326 -0.2025 -0.1790
15470W        W30939   1.884   8.749  11.409  0.1458  0.0041 -0.3891
15471W        W30940   1.829   0.535   2.826  0.0172  0.0334 -0.0930
15472W        W30941   5.209  14.940   1.722 -0.2777  0.2765  0.0366
15473W        W30942   0.715   2.381  15.363  0.2773 -0.4998  0.1998
15474W        W30943  12.164  14.016   0.382  0.3834 -0.1027 -0.3127
15475W        W30944   0.660   3.256  16.190 -0.0019  0.0680  0.1679
15476W        W30945  13.533  11.310  13.697 -0.1307 -0.0274  0.0395
15477W        W30946  17.601   7.893  12.869 -0.1346 -0.0715  0.0319
15478W        W30947   6.387   3.452  12.945 -0.1586 -0.5942  0.2602
15479W        W30948  14.817   9.968   0.711  0.0418 -0.0237  0.3133
15480W        W30949  11.726  12.278   4.561 -0.1648 -0.0628  0.1161
15481W        W30950   2.023   0.704   1.540 -0.0046  0.0394 -0.2053
15482W        W30951   8.590   0.823  14.527  0.2546 -0.0224  0.2133
15483W        W30952  16.921  11.194  10.898 -0.1019 -0.0482 -0.1413
15484W        W30953  11.907  13.045  15.720  0.0759  0.0027  0.0936
15485W        W30954  14.279   2.532   0.626 -0.2498 -0.2858 -0.0659
15486W        W30955  15.762   8.936  12.842  0.0343 -0.1459 -0.1278
15487W        W30956  14.776   3.337   2.016  0.0563 -0.2760 -0.0460
15488W        W30957  16.906   9.783   1.730 -0.0094  0.3887  0.1645
15489W        W30958   2.642  17.539   3.660  0.1068 -0.1338 -0.2446
15490W        W30959  15.644  16.587   2.025  0.1076 -0.1466 -0.2129
15491W        W30960  17.534  11.278   4.356 -0.0565 -0.3580  0.0963
15492W        W30961   8.989  13.966  15.358  0.1664  0.3707 -0.1368
15493W        W30962   4.093  16.600  15.289  0.0966  0.1509  0.1940
15494W        W30963   5.919   4.291  14.506  0.0079  0.1367 -0.1166
15495W        W30964  15.237   4.264  13.874  0.0526 -0.1397  0.0639
15496W        W30965   3.856   8.363   3.453 -0.1731 -0.0758  0.0746
15497W        W30966   4.387   3.439   3.776  0.1441 -0.2995 -0.1815
15498W        W30967  11.728   7.324   3.484  0.3643  0.1073  0.1687
15499W        W30968   9.153   0.196   3.514  0.3372  0.0252 -0.2743
15500W        W30969   2.620   5.861  16.462 -0.1451  0.0077 -0.1441
15501W        W30970  16.569   0.373   3.309  0.0535 -0.0645  0.0126
15502W        W30971   0.060   8.533   4.844 -0.3275  0.1922  0.0806
15503W        W30972   7.970   0.833   0.454  0.0194  0.1856 -0.0561
15504W        W30973  15.308  14.411   0.295 -0.2695  0.2317  0.2388
15505W        W30974   8.452  14.624   2.547 -0.0137  0.2179  0.1700
15506W        W30975  12.141   7.174   4.577 -0.2042 -0.1793 -0.0666
15507W        W30976  14.814  12.180  14.976 -0.0230 -0.1002  0.0842
15508W        W30977   9.023  15.341  15.275  0.2498 -0.2116 -0.0588
15509W        W30978   2.413  16.364  11.764 -0.4408 -0.3912  0.1642
15510W        W30979   1.159   5.674  12.259 -0.2304  0.1029 -0.1484
15511W        W30980  11.813  17.713   1.601 -0.1988  0.2154  0.2095
15512W        W30981   0.796   0.626   4.040 -0.1387  0.2319  0.0154
15513W        W30982   9.414  13.879   5.156  0.0380 -0.0785 -0.0031
15514W        W30983   4.668   6.385  15.849  0.0482  0.0037 -0.2770
15515W        W30984   3.289   6.980   2.795  0.0427  0.0776  0.1640
15516W        W30985   2.002  13.732  13.440 -0.0179  0.1241 -0.1112
15517W        W30986   3.427  14.676   5.866 -0.0021  0.0849  0.2206
15518W        W30987  16.119   3.397   5.245  0.1842  0.2308  0.3262
15519W        W30988   0.169  12.206  10.692  0.0921  0.2603  0.0899
15520W        W30989  13.930   1.582   5.716 -0.0216  0.0640  0.1201
15521W        W30990   6.347   5.798  15.751  0.2034  0.1289 -0.1424
15522W        W30991  14.421   9.147  11.302 -0.1044 -0.2472 -0.1491
15523W        W30992   1.545   0.193  14.203 -0.4162 -0.0289 -0.2235
15524W        W30993  15.485  17.108  14.159 -0.0759  0.0173 -0.2368
15525W        W30994  11.223   5.690  12.370 -0.2049 -0.0702 -0.2318
15526W        W30995   8.944  14.818  14.448  0.2866 -0.4152  0.3316
15527W        W30996   7.226   4.583   1.315 -0.1787  0.2047  0.0175
15528W        W30997  16.038  15.952   1.555 -0.2876  0.0971  0.0709
15529W        W30998   3.391  12.902   1.523  0.1845  0.0298  0.1065
15530W        W30999   0.547  16.036   5.970  0.0038  0.0757 -0.0315
15531W        W31000  14.419  11.831  14.815 -0.1015 -0.3906  0.0831
15532W        W31001   6.685  12.163   4.740  0.0167 -0.1388  0.1357
15533W        W31002   8.091  12.645  11.022  0.2104 -0.2332 -0.3076
15534W        W31003   0.097   2.287  12.312  0.0455  0.4654  0.0632
15535W        W31004  11.104   4.746   0.178 -0.0135 -0.1069  0.2685
15536W        W31005  13.215   2.597   2.957 -0.0424  0.4319  0.0200
15537W        W31006   8.269   9.680  11.614  0.1599 -0.0974 -0.0208
15538W        W31007  14.256  14.258   4.414 -0.0649  0.1875  0.0383
15539W        W31008   8.052   3.681   4.929  0.1932  0.0232  0.0003
15540W        W31009  14.878   5.137   2.042  0.0116  0.0885 -0.0396
15541W        W31010   8.862  11.978   3.988  0.0009  0.0743 -0.1176
15542W        W31011  14.141   7.113   5.270  0.1988 -0.1560  0.1176
15543W        W31012   0.444  13.134  15.558 -0.0566  0.1611 -0.0120
15544W        W31013  13.954  10.365   6.100  0.0776 -0.0610  0.1604
15545W        W31014  12.585   6.486  14.517 -0.0401  0.2491 -0.0195
15546W        W31015   8.990   0.586  15.260 -0.1814 -0.1559 -0.2036
15547W        W31016   3.022  11.335   0.031 -0.3741  0.1501 -0.1197
15548W        W31017  15.263  12.610  11.375 -0.1512  0.0869 -0.1163
15549W        W31018  15.263  14.264   5.987 -0.2065 -0.0817  0.3324
15550W        W31019   5.945  15.893   2.452 -0.1473  0.3621  0.2339
15551W        W31020   4.659  16.063   2.545 -0.0328  0.0416  0.0914
15552W        W31021  12.948   7.855   3.220 -0.0979 -0.0998  0.0471
15553W        W31022  10.156  15.073   1.619  0.1598  0.0386 -0.0590
15554W        W31023  13.440   7.774  12.204 -0.3493  0.0879  0.0403
15555W        W31024  16.087  15.526  13.182  0.0952 -0.2148  0.1645
15556W        W31025  14.934   7.648   2.402  0.0578 -0.2245 -0.2086
15557W        W31026   3.336  16.819  15.817  0.0067  0.0529  0.0165
15558W        W31027   4.274  10.846   0.459  0.1763 -0.1178  0.0228
15559W        W31028   7.098   7.282   4.543 -0.1197 -0.2444 -0.0026
15560W        W31029  15.204  14.405  11.554  0.0247  0.1570  0.0501
15561W        W31030  10.446   2.386   4.426  0.0426  0.1128  0.2179
15562W        W31031  13.502  17.149  12.934  0.0200  0.0369 -0.1097
15563W        W31032  12.251   2.867  13.930  0.2858 -0.3259 -0.2574
15564W        W31033  17.000   3.481   4.788 -0.1361  0.1388  0.2849
15565W        W31034  12.562   1.815  15.364  0.1033 -0.1971  0.3094
15566W        W31035  17.348   2.386  12.974 -0.3091 -0.1049 -0.0991
15567W        W31036  11.023   8.073  12.176 -0.0523 -0.0541  0.1585
15568W        W31037  17.151   7.712  10.310 -0.1619 -0.0665 -0.1241
15569W        W31038  16.202   7.374  15.970  0.4367  0.1583  0.0946
15570W        W31039  10.016   9.459  11.121 -0.2646  0.0002 -0.2106
15571W        W31040   8.648   7.391  12.806  0.0988 -0.0073  0.0781
15572W        W31041  12.102   6.612   5.415 -0.0514  0.1592 -0.0627
15573W        W31042   7.860   6.578  13.332  0.1154  0.2253  0.0139
15574W        W31043   3.022   2.520   5.517  0.3267  0.2816  0.2040
15575W        W31044   3.084   7.751  11.287  0.0962 -0.2368 -0.2347
15576W        W31045   5.773   6.359  11.920 -0.4502  0.0128  0.1348
15577W        W31046   7.858  16.605   2.562  0.1409  0.0664 -0.3515
15578W        W31047   2.874  10.525   4.992 -0.1586 -0.0357 -0.1252
15579W        W31048   7.721   9.133   0.669  0.1505  0.0486 -0.3788
15580W        W31049   3.279   9.967  11.737 -0.0787  0.0641 -0.0404
15581W        W31050   1.616  13.602  14.590  0.1058  0.1389 -0.1999
15582W        W31051   1.013  17.770  13.288  0.0975 -0.1202 -0.1015
15583W        W31052   7.653  12.024  13.687 -0.1886 -0.0853 -0.2411
15584W        W31053   5.288   6.111  16.394  0.0032  0.1441  0.1024
15585W        W31054   1.404  13.078   1.793  0.3994 -0.2616  0.2569
15586W        W31055   5.170   0.270  16.612 -0.1918  0.0929  0.1202
15587W        W31056   7.938   7.367   4.739 -0.0795  0.0162  0.2047
15588W        W31057  12.595   7.208   5.877  0.1111  0.0667  0.1506
15589W        W31058  11.816   8.673  14.469 -0.0460  0.2515  0.0156
15590W        W31059   1.997   1.789  13.193  0.1511  0.1312  0.0685
15591W        W31060   4.278  10.798   3.542 -0.0471 -0.0863 -0.0630
15592W        W31061   9.394   0.535   1.579 -0.1185  0.0507  0.2992
15593W        W31062   3.404   8.442   2.487 -0.1698 -0.2185  0.1156
15594W        W31063   3.347   3.737  13.902  0.0532  0.0835  0.0744
15595W        W31064   6.045   0.348   1.903 -0.0679 -0.1048 -0.0662
15596W        W31065   7.685  16.989   2.817 -0.0898  0.0245 -0.0562
15597W        W31066   0.082   6.263  15.923  0.3981 -0.0230 -0.1689
15598W        W31067   1.608   4.255  13.321  0.2086  0.0098  0.1006
15599W        W31068  11.384   9.556  12.182  0.1047  0.1589 -0.2481
15600W        W31069   3.861   3.057   0.781 -0.0147  0.0594 -0.0599
15601W        W31070  13.174   9.292   3.602  0.1240  0.3272  0.1277
15602W        W31071  13.357   1.587  14.493  0.0231 -0.4075 -0.2984
15603W        W31072  13.207  11.227   5.541  0.0581  0.0450  0.1469
15604W        W31073   9.487  17.298  16.579 -0.0410  0.1147 -0.3047
15605W        W31074   3.171   3.891   4.877  0.0454 -0.3090 -0.1452
15606W        W31075   4.682  14.812   4.573 -0.0080 -0.0035 -0.0683
15607W        W31076   3.882  13.639   4.640  0.1939  0.1043  0.0570
15608W        W31077  10.740   1.590  16.386 -0.2832 -0.4269  0.0662
15609W        W31078   1.051   0.507  14.127 -0.0911 -0.0765 -0.1896
15610W        W31079  12.143   4.476   3.861 -0.0087  0.1633  0.0713
15611W        W31080   4.565   5.208  12.945 -0.1338 -0.1486  0.1160
15612W        W31081   5.475   4.078  14.617 -0.0453 -0.1244  0.1406
15613W        W31082   7.261  16.596  12.933 -0.1814  0.0713 -0.1683
15614W        W31083   9.499   5.725  13.346  0.0639 -0.0175  0.3919
15615W        W31084   1.558   4.319  14.624  0.1374 -0.1370  0.1989
15616W        W31085   1.965   4.144  13.823  0.1188  0.0385 -0.0666
15617W        W31086   2.354   2.774   0.988  0.0973  0.0044 -0.1213
15618W        W31087  11.291   9.112   4.941  0.0008  0.0690 -0.0359
15619W        W31088  11.596  16.080   2.497  0.1448  0.0289 -0.1439
15620W        W31089   8.527   1.789   1.192  0.2297 -0.2817 -0.2012
15621W        W31090   0.983   0.330  12.683  0.1385 -0.1065 -0.0067
15622W        W31091   4.778   6.037   1.023  0.1470  0.0994 -0.1057
15623W        W31092   3.908   6.766  15.763 -0.1342  0.2737  0.1494
15624W        W31093  14.241   1.405  13.681  0.1715 -0.3544  0.1655
15625W        W31094   1.214  17.295  13.391 -0.0209 -0.0321 -0.2427
15626W        W31095  12.994   8.760   0.029 -0.0742 -0.1530  0.0368
15627W        W31096   6.191   6.565   0.331  0.1358  0.1664 -0.2287
15628W        W31097   2.547  11.217  14.436 -0.2091  0.1941 -0.0415
15629W        W31098   5.803  10.904  13.698  0.0079  0.1397 -0.1808
15630W        W31099   1.369   4.218   3.571 -0.0633  0.1744  0.1104
15631W        W31100   2.744   3.473   4.123 -0.0268 -0.1226 -0.2386
15632W        W31101   9.585  11.607   2.850  0.0245 -0.0193 -0.0520
15633W        W31102   8.756   2.445  13.862 -0.1086  0.1648  0.1635
15634W        W31103  11.899  17.840  12.274  0.4631  0.2225 -0.1600
15635W        W31104   3.762   3.985   3.230 -0.0054 -0.0829 -0.1175
15636W        W31105  16.754  14.824  12.998 -0.0920 -0.3093 -0.1216
15637W        W31106  17.419   0.165   5.912 -0.0649  0.2150 -0.0049
15638W        W31107  16.689  15.850  12.694  0.2462  0.4171 -0.1003
15639W        W31108   9.864  14.815  13.619 -0.1352 -0.3021 -0.1947
15640W        W31109   4.301   2.804   4.609 -0.0105  0.3047 -0.0159
15641W        W31110  16.823  13.958   3.753 -0.1122  0.0296 -0.1908
15642W        W31111   6.449   1.491   4.550 -0.0124  0.2072  0.1052
15643W        W31112   3.378   4.265   2.446 -0.1627  0.1357 -0.1875
15644W        W31113  14.408  15.790  14.560  0.1544 -0.0846  0.0083
15645W        W31114   7.880  13.931  14.069 -0.0843  0.2558 -0.0326
15646W        W31115   0.756  17.201  13.603 -0.0829 -0.1216  0.1758
15647W        W31116   2.054  16.793   2.678 -0.0719  0.2302 -0.2289
15648W        W31117  17.950  13.583  14.570 -0.0293  0.4890  0.1195
15649W        W31118  15.988  10.776  10.946 -0.0656 -0.1770 -0.0974
15650W        W31119   7.151   8.197   5.328  0.2543 -0.0929 -0.0759
15651W        W31120   3.491   0.844  15.782  0.0012  0.0781  0.1838
15652W        W31121  17.421  11.414  11.855  0.0342 -0.0529  0.0449
15653W        W31122   5.436   3.288  12.005  0.1264  0.1151 -0.0025
15654W        W31123   9.325   2.359  13.243 -0.0191  0.1469 -0.2386
15655W        W31124  13.975   4.427   4.576 -0.1635 -0.2017 -0.3294
15656W        W31125  10.888   5.011  13.405  0.0045 -0.0833 -0.2627
15657W        W31126  11.466  15.920   3.412  0.3417  0.1930 -0.3403
15658W        W31127  15.827  10.701   0.719 -0.0330  0.1225 -0.0042
15659W        W31128  14.236   7.926   0.776 -0.0932 -0.3034  0.0630
15660W        W31129  12.850  14.311  12.355 -0.1203 -0.0412  0.0491
15661W        W31130   8.686   8.023   4.106  0.2303 -0.0922  0.1803
15662W        W31131   3.809   0.528   3.231 -0.0379  0.2539 -0.0078
15663W        W31132   6.012  11.389   2.559  0.2821 -0.3346  0.3569
15664W        W31133   0.303  10.342  10.503 -0.0232 -0.1019  0.0741
15665W        W31134  13.471   2.478   0.349 -0.0575 -0.0668  0.1061
15666W        W31135   3.306   4.046   0.134 -0.0311 -0.0883 -0.0209
15667W        W31136  16.386   8.686   3.903  0.4280  0.0881 -0.0641
15668W        W31137  12.067   7.974  12.815 -0.0157  0.2437  0.0029
15669W        W31138   0.744   3.433   4.295  0.0698  0.1166 -0.0980
15670W        W31139   9.811  13.638   3.275  0.0904  0.0833 -0.5110
15671W        W31140  11.898   6.894  15.503 -0.1519  0.2661  0.0206
15672W        W31141  14.314   3.343   3.434 -0.0172 -0.1906 -0.0500
15673W        W31142   9.224  11.091   4.659 -0.1126 -0.1282 -0.2966
15674W        W31143   4.091  12.249  11.608  0.2822 -0.1436 -0.1005
15675W        W31144   1.792  12.943   2.984  0.2622  0.5716 -0.1402
15676W        W31145   6.762   9.145   1.434 -0.1603 -0.1440 -0.0609
15677W        W31146  16.248   0.367   2.783 -0.1898 -0.0203  0.0220
15678W        W31147  17.179   6.208  14.366 -0.3442  0.3352 -0.2043
15679W        W31148   6.429  11.664  11.754 -0.0591  0.2262  0.2924
15680W        W31149   1.705  13.022  13.421  0.1922 -0.2500  0.0018
15681W        W31150  10.194   5.277   0.234  0.1447  0.3636  0.2733
15682W        W31151   7.391  10.471  12.322  0.1041 -0.1941 -0.2452
15683W        W31152  15.422  13.342  15.135  0.0740 -0.0315 -0.1690
15684W        W31153  14.038   5.230  14.519 -0.0714  0.1937 -0.2676
15685W        W31154  15.146  13.345   5.617 -0.2575  0.2870  0.0170
15686W        W31155   5.832   8.797   0.204  0.1141 -0.0948  0.0489
15687W        W31156   9.675   3.435  14.745  0.0235  0.0271  0.0967
15688W        W31157   1.798   9.471   0.865  0.0230 -0.1566  0.0467
15689W        W31158  17.557  10.291  13.302 -0.1364  0.0605 -0.1954
15690W        W31159   1.571  11.069   4.694 -0.0476  0.1077 -0.2355
15691W        W31160   6.687   5.071  16.346  0.3490 -0.4543 -0.1463
15692W        W31161   7.246   8.510  11.042  0.2102 -0.1615  0.0971
15693W        W31162  15.039  11.806  16.348  0.1931  0.1730  0.1175
15694W        W31163  11.496  11.713  12.141  0.1120  0.1673 -0.1660
15695W        W31164   2.526   9.069  14.181  0.1415 -0.1527 -0.0968
15696W        W31165   1.976   4.228  11.190 -0.1590  0.1283  0.1339
15697W        W31166   0.212  12.107   4.436  0.0841 -0.3411  0.1043
15698W        W31167   4.507  16.623   5.634  0.2610  0.1833  0.2153
15699W        W31168  14.111  14.989  16.612 -0.2461  0.2592  0.2028
15700W        W31169  12.499   0.137   5.387  0.2520 -0.1241  0.0387
15701W        W31170  10.347   1.786   0.676  0.0591 -0.0813 -0.0254
15702W        W31171  12.003   6.669   0.106  0.0228  0.0842  0.1205
15703W        W31172   7.693  11.033   4.523 -0.0191 -0.0139 -0.3851
15704W        W31173   2.227   9.915   2.276 -0.0467  0.2354  0.0920
15705W        W31174   9.181  16.960  15.917  0.1434  0.0978  0.1224
15706W        W31175  14.993  12.171  15.538  0.2002  0.0092  0.0532
15707W        W31176  10.351   3.596  11.719 -0.1148 -0.0606 -0.0574
15708W        W31177  15.170  13.808  12.487 -0.2344  0.2389  0.0807
15709W        W31178  13.882   7.589   3.862  0.0332  0.2042 -0.1484
15710W        W31179  14.963   0.631  14.731 -0.2008 -0.1158 -0.2582
15711W        W31180  13.444   8.955   3.357  0.1375 -0.0263  0.0065
15712W        W31181  13.210  13.478   2.924 -0.0954  0.2224  0.1370
15713W        W31182  13.528  16.162   2.103 -0.1506  0.0145 -0.0925
15714W        W31183   0.398   4.099  12.912 -0.4264 -0.1328 -0.0606
15715W        W31184   9.266   2.552  15.165 -0.0967 -0.2634  0.3280
15716W        W31185   1.535  10.511   3.366 -0.2820 -0.0457  0.1136
15717W        W31186   9.819  14.641   5.956  0.1509 -0.0978  0.0131
15718W        W31187   6.649   3.049   2.706  0.2120  0.2253  0.2859
15719W        W31188  13.691   5.736   2.901  0.2200  0.0327  0.1826
15720W        W31189   1.632   8.213   1.347  0.3410  0.0709 -0.0229
15721W        W31190   3.298   0.183   5.813 -0.0719  0.1904  0.2172
15722W        W31191  12.373  15.921   0.334 -0.0397  0.0926 -0.2042
15723W        W31192  10.295  11.104   4.980 -0.0400  0.2893 -0.1869
15724W        W31193   5.967   2.105   6.403  0.2864 -0.1190  0.1808
15725W        W31194   6.205   7.213  13.890  0.1228  0.2430 -0.2518
15726W        W31195   5.405  14.740   0.055 -0.1753  0.1721 -0.1550
15727W        W31196   6.764  13.774  14.540  0.0785  0.0015 -0.0329
15728W        W31197  11.042   4.077  14.700  0.1188  0.1111  0.2761
15729W        W31198   8.444   8.562  12.149 -0.2062  0.4496 -0.0580
15730W        W31199   9.709   7.760   3.149 -0.1251 -0.1241  0.0161
15731W        W31200  13.061   1.836   0.334 -0.0759 -0.3201  0.0581
15732W        W31201   6.081   6.915  10.622 -0.2169 -0.1084 -0.2338
15733W        W31202  15.842   0.307   1.485  0.2395 -0.1428 -0.1188
15734W        W31203   3.472   1.227  16.219  0.0420 -0.3611 -0.1693
15735W        W31204  16.363   8.575   1.333 -0.0303 -0.3253 -0.2827
15736W        W31205   2.452  16.702   2.176  0.1833  0.0186 -0.0158
15737W        W31206  10.201  17.315  15.954 -0.2306  0.0561 -0.2268
15738W        W31207  11.175   3.180  13.281  0.2054 -0.0319  0.0738
15739W        W31208   4.376  16.855   5.229 -0.1645 -0.0297 -0.0087
15740W        W31209  14.273   6.945   0.894  0.0214 -0.0849  0.1539
15741W        W31210   4.568   8.130  12.847  0.0658 -0.1964  0.0304
15742W        W31211   0.185  13.374  11.829  0.2361  0.3826  0.0602
15743W        W31212  12.149  14.255   2.052  0.2801 -0.1915 -0.3016
15744W        W31213   1.099   0.578   2.734 -0.2094  0.0377  0.1384
15745W        W31214   8.288   8.147   1.847  0.2280 -0.2664 -0.0995
15746W        W31215  13.277   9.055  16.031  0.2176  0.1502 -0.1730
15747W        W31216   5.966   5.528  13.523 -0.0516  0.0083 -0.3186
15748W        W31217  14.429   2.793  15.365 -0.2214  0.1435  0.3837
15749W        W31218   6.134   3.664  15.136  0.2251 -0.1362  0.1821
15750W        W31219  15.062   5.453  16.425  0.1605 -0.0319  0.0845
15751W        W31220   3.316  12.290   0.869  0.2234 -0.0017 -0.0018
15752W        W31221   3.076   6.510  11.095  0.1999 -0.3078  0.2094
15753W        W31222  16.172  14.072  13.746 -0.3231  0.1023 -0.0049
15754W        W31223  15.312   5.286  15.548 -0.1041 -0.2896 -0.1988
15755W        W31224  14.178   8.243   1.948 -0.1805 -0.0144  0.0889
15756W        W31225   2.090   8.345   1.291 -0.0206  0.1443  0.1314
15757W        W31226   7.780   8.084   2.071  0.1829  0.0298 -0.0274
15758W        W31227  11.826  13.506  15.388  0.2459 -0.1567 -0.2216
15759W        W31228  13.283  17.321  11.719  0.0939 -0.0458  0.1710
15760W        W31229   5.684  15.124   1.466  0.3147 -0.1930  0.0544
15761W        W31230  15.118  12.952   0.786 -0.3083 -0.0217 -0.2708
15762W        W31231   1.570   7.439  15.442  0.3064  0.1994 -0.0468
15763W        W31232   4.111  13.171   2.027  0.3608  0.0699 -0.1451
15764W        W31233  10.154  10.711   1.922  0.2521 -0.2174 -0.1088
15765W        W31234   8.309   5.968  12.745 -0.0410  0.0577  0.3114
15766W        W31235  12.044  17.675  13.780 -0.2690  0.1378 -0.0824
15767W        W31236   2.525   4.523   5.203 -0.3491 -0.0838 -0.0174
15768W        W31237   8.463   4.724  12.625 -0.0944  0.0798  0.2752
15769W        W31238   3.131   9.374  14.539  0.1773 -0.0240 -0.0357
15770W        W31239  15.580   8.341  11.965 -0.0038 -0.3070 -0.0526
15771W        W31240   8.770  15.684  12.824  0.1206 -0.1606  0.0882
15772W        W31241   9.905  12.245  15.977  0.2750 -0.0357 -0.2743
15773W        W31242   1.837   6.135   1.807  0.2623 -0.2759 -0.2088
15774W        W31243   7.591  15.341  15.485  0.3683 -0.0104 -0.0266
15775W        W31244  14.247  10.889   4.256  0.1854  0.0722  0.1932
15776W        W31245  10.680  11.915   1.021  0.1168 -0.0969 -0.0558
15777W        W31246   8.797   0.534   1.610 -0.0644 -0.1211 -0.2128
15778W        W31247   1.360   9.503  10.785  0.2365 -0.0743 -0.1580
15779W        W31248   3.328   6.080  13.182 -0.2432  0.2486 -0.1463
15780W        W31249   6.157  17.958   3.706 -0.1470 -0.1268  0.2794
15781W        W31250   1.217  11.206  14.568 -0.1248 -0.5443  0.1476
15782W        W31251  15.568  15.345   0.217  0.0833 -0.2788 -0.1002
15783W        W31252   5.314  11.256  12.520  0.2880  0.0895 -0.1485
15784W        W31253   4.097  15.849   1.212 -0.2457 -0.0727 -0.1460
15785W        W31254   0.621  14.386  14.779 -0.0861 -0.2517  0.3926
15786W        W31255   3.465  16.330   2.391 -0.0494  0.0663 -0.3711
15787W        W31256   6.819   9.093  11.480 -0.1991 -0.2012  0.0719
15788W        W31257  11.248  13.080   1.686  0.0190  0.0874  0.3496
15789W        W31258   3.667   5.509   2.080  0.0112 -0.1323  0.0278
15790W        W31259  11.189   4.393  12.768  0.0057  0.0986  0.2969
15791W        W31260   8.907   1.581  13.550  0.0046  0.1186 -0.1340
15792W        W31261  15.613   2.976   2.068  0.2737  0.0798 -0.5164
15793W        W31262   3.006   7.547   2.059  0.1292 -0.2410 -0.1914
15794W        W31263   7.035   6.860   3.123  0.0031 -0.0637 -0.1943
15795W        W31264   9.137   1.342  13.118  0.0976  0.3087 -0.2046
15796W        W31265  18.002   4.075  13.833 -0.4684 -0.0451  0.0293
15797W        W31266   6.446   2.048   0.209  0.3073  0.0523  0.1223
15798W        W31267   3.497  12.890   4.377 -0.4829  0.1339 -0.0580
15799W        W31268   9.712   5.678   0.676  0.0022  0.2431 -0.1393
15800W        W31269  10.122  14.189  14.539 -0.4285  0.0452 -0.0300
15801W        W31270   3.133   2.549  14.392  0.3836  0.2402 -0.0478
15802W        W31271  17.857   7.066   1.155 -0.3164  0.0354 -0.2760
15803W        W31272   7.446   4.103   2.525 -0.3884 -0.1236 -0.0908
15804W        W31273  17.781   1.950   3.870 -0.0521 -0.0148  0.1931
15805W        W31274   1.802   1.618  11.375  0.0069 -0.0820 -0.2788
15806W        W31275  10.500   2.327   0.595  0.0162  0.1834 -0.1075
15807W        W31276   6.278   2.626   1.915  0.1568  0.0407  0.0492
15808W        W31277  13.048  15.397  16.395 -0.0871  0.1746 -0.3921
15809W        W31278  17.941   2.487  14.204  0.1420  0.2307 -0.0470
15810W        W31279   1.517  16.762   3.910 -0.1071  0.0479 -0.2129
15811W        W31280   3.815  14.989   5.670 -0.1262 -0.0991 -0.2478
15812W        W31281  13.129   5.298   4.698  0.2161 -0.1972  0.1180
15813W        W31282   4.650   4.269  14.633  0.0257 -0.2980 -0.1058
15814W        W31283  16.568  13.856   1.355  0.0646  0.0757  0.0359
15815W        W31284  10.059   8.681  15.522  0.1359  0.2273 -0.0505
15816W        W31285  13.496   3.427   5.510 -0.2799 -0.0135 -0.2480
15817W        W31286   9.686   4.313   1.156 -0.1632  0.2298  0.1998
15818W        W31287   5.038   3.835   0.599  0.1766 -0.2602 -0.1753
15819W        W31288   0.980   1.067  10.645  0.2005  0.0578  0.1930
15820W        W31289   8.355   3.585  11.776 -0.2477  0.0126  0.1227
15821W        W31290   2.692  16.937   1.824 -0.2670 -0.0538 -0.2932
15822W        W31291   1.723   3.841   2.342  0.0752  0.1201  0.3429
15823W        W31292   9.515  15.520  14.640 -0.0017  0.2284  0.1932
15824W        W31293   1.987  15.906  16.385 -0.0827  0.1750  0.1686
15825W        W31294  10.116   7.083  11.783 -0.0758  0.0487 -0.0862
15826W        W31295  15.709  12.931   2.139 -0.2464  0.4661 -0.0426
15827W        W31296   5.043  13.696  12.830  0.1485 -0.1490  0.2498
15828W        W31297   1.162   7.574   0.768  0.3820  0.1691 -0.1942
15829W        W31298   4.712   6.082  13.199 -0.1033 -0.1567  0.0367
15830W        W31299   8.913   8.114   0.236  0.0617  0.2134 -0.0032
15831W        W31300  15.472   4.690  14.358  0.2118 -0.1908  0.1886
15832W        W31301  11.256  15.312   3.550 -0.2752  0.0206 -0.2165
15833W        W31302   1.283   3.973   4.839 -0.2189  0.0627  0.3477
15834W        W31303  15.725  17.014   0.821 -0.3472 -0.2008  0.1104
15835W        W31304  16.247  13.694   2.922 -0.2806 -0.0484 -0.2299
15836W        W31305  17.550  15.222   1.525  0.0109 -0.3898  0.0712
15837W        W31306   9.063  11.075  16.035 -0.2133 -0.0491  0.3287
15838W        W31307   1.175  11.256   2.942  0.1163 -0.1025 -0.1230
15839W        W31308   5.919  12.988  14.971  0.0722  0.0497 -0.2950
15840W        W31309  15.041  17.779  14.917 -0.2216 -0.1554  0.0894
15841W        W31310   1.095   4.422  15.552  0.1459 -0.1557  0.2661
15842W        W31311   3.534  16.946  13.340 -0.4212 -0.0827 -0.2279
15843W        W31312   9.371  13.506  14.804 -0.2321  0.0662  0.0432
15844W        W31313   1.913  15.620   4.974  0.1321 -0.0249 -0.1652
15845W        W31314   4.231   0.102   2.598  0.0762  0.0095 -0.0809
15846W        W31315  15.416   4.417   0.492  0.1657 -0.1792 -0.2451
15847W        W31316   7.900  11.673   3.068 -0.0419  0.0661  0.2532
15848W        W31317   4.870  14.408  13.500  0.1657  0.2152 -0.2723
15849W        W31318   2.685   3.636   0.646 -0.0701  0.3088 -0.0163
15850W        W31319   9.648   5.829   4.665  0.0697  0.2597 -0.0833
15851W        W31320   6.688  15.622  12.917  0.2360  0.1111  0.2453
15852W        W31321   5.624   2.864  16.264  0.3335  0.2719  0.2006
15853W        W31322  17.452   4.710   0.625  0.0666 -0.0775 -0.1257
15854W        W31323   2.114   6.763  10.935 -0.1561 -0.1568 -0.0619
15855W        W31324   2.341  11.845   5.668  0.2419  0.3920  0.2071
15856W        W31325  11.402   6.626   2.347 -0.2637  0.0337  0.2022
15857W        W31326   4.710   0.550  15.054  0.0240 -0.2280  0.1229
15858W        W31327   3.308  12.045  13.733  0.1269  0.0869 -0.1028
15859W        W31328   6.724   9.671   2.488 -0.1022  0.0172  0.0341
15860W        W31329   7.586  10.617  14.082  0.0945  0.0289 -0.0454
15861W        W31330   7.482   7.673  16.377  0.1234 -0.0526 -0.2027
15862W        W31331  15.573   1.737  16.080  0.0931  0.1692 -0.0673
15863W        W31332   4.146   3.040  14.818 -0.3636 -0.1158 -0.1841
15864W        W31333  14.492  16.289   5.319 -0.0307 -0.1457 -0.0120
15865W        W31334   5.745   2.680   1.716  0.1560 -0.1378  0.1141
15866W        W31335  17.427  12.825  11.842 -0.1185  0.1215  0.3365
15867W        W31336   9.893   2.327  13.957  0.1265  0.1630  0.2727
15868W        W31337  10.882   3.014   2.718 -0.1765  0.2569 -0.0497
15869W        W31338   9.550  10.335   3.573  0.0796  0.0855  0.1792
15870W        W31339  12.599  10.833  15.914 -0.0302 -0.3637 -0.1411
15871W        W31340  13.190   6.515   3.885 -0.0103  0.0644 -0.0846
15872W        W31341  16.530  10.496  15.739  0.0235 -0.2407  0.1064
15873W        W31342   3.053   5.183  16.107 -0.0628 -0.1213 -0.1654
15874W        W31343   3.054  12.251   1.879 -0.1252  0.1457 -0.0459
15875W        W31344  10.150   2.177   0.245  0.3193 -0.1289 -0.3871
15876W        W31345  16.761   3.764  13.958  0.2222  0.1015  0.2245
15877W        W31346   1.378  15.433   4.181  0.2375  0.0498 -0.0430
15878W        W31347   7.691  13.977  14.744  0.0636 -0.1013  0.3550
15879W        W31348   0.456   2.158  11.897 -0.4777  0.2618  0.1235
15880W        W31349   8.853  10.162  11.124 -0.0032 -0.0626  0.0289
15881W        W31350   6.915   4.362  15.631  0.1617 -0.2632  0.0598
15882W        W31351  12.980   2.495  12.219 -0.3471 -0.1866  0.0155
15883W        W31352   4.565   5.043  16.033 -0.0695  0.3353  0.1246
15884W        W31353  12.890   0.983   4.870  0.0519  0.0797  0.2789
15885W        W31354   7.221  12.108   3.251  0.4135  0.1612 -0.2705
15886W        W31355   9.544  14.594   4.608 -0.1394 -0.0339 -0.5394
15887W        W31356  11.142   1.707   5.594 -0.0808  0.1158 -0.0167
15888W        W31357  10.150   2.253  12.885  0.5598  0.1412 -0.0702
15889W        W31358  10.452  10.672  13.415 -0.0795 -0.1290 -0.2265
15890W        W31359  11.618   1.296   3.264  0.1111  0.4328  0.2773
15891W        W31360   8.910  10.079   0.152  0.0132 -0.0489  0.0871
15892W        W31361   0.730   6.063   4.247 -0.0792  0.0507  0.0387
15893W        W31362   4.065   3.269   3.393  0.0463  0.1936 -0.0338
15894W        W31363  16.483   0.712   2.361  0.2081  0.1801 -0.4077
15895W        W31364   6.907   0.746   6.449  0.2807 -0.0956 -0.0344
15896W        W31365  17.296   0.405   2.861  0.0191 -0.5301  0.1329
15897W        W31366  12.598   2.874   5.024  0.1752 -0.0573 -0.0488
15898W        W31367  12.789   9.867   5.329  0.2773 -0.0091 -0.0350
15899W        W31368  10.784   9.084   4.146  0.0197 -0.1526  0.0207
15900W        W31369   7.859   9.639  12.618  0.2201 -0.1150 -0.1525
15901W        W31370  14.056  11.184   0.065 -0.0789  0.2375  0.1936
15902W        W31371   0.532  13.048   1.641  0.1379 -0.0623 -0.2894
15903W        W31372   5.843   9.791  12.138  0.3421  0.2246  0.3475
15904W        W31373   4.365   3.829  11.648 -0.1858 -0.1008  0.1613
15905W        W31374   8.583   0.952   4.709  0.0186 -0.2276  0.2624
15906W        W31375   6.861   4.798  12.752  0.0967  0.0462  0.0671
15907W        W31376   7.221   2.025  13.176  0.0950 -0.2288 -0.0445
15908W        W31377   1.583   6.258   3.953  0.0915  0.0164 -0.0743
15909W        W31378  10.512  17.447   0.476 -0.0546  0.2778 -0.0576
15910W        W31379  10.359   1.376   4.431 -0.0323  0.0827  0.1117
15911W        W31380  15.657  13.424   3.275 -0.0978 -0.1437  0.1809
15912W        W31381  16.136   8.950   0.114  0.1185  0.1575 -0.0693
15913W        W31382   3.981   3.482   2.577  0.0716  0.1067  0.0768
15914W        W31383   6.477   6.195  11.445 -0.1584 -0.0639  0.3016
15915W        W31384   3.069   9.674  13.578  0.0416  0.2404 -0.1191
15916W        W31385  10.209   8.421   1.255 -0.2690  0.1409  0.1002
15917W        W31386   9.350   5.782   0.157 -0.0227 -0.2575 -0.0275
15918W        W31387   8.411   3.177   5.720  0.2020 -0.0853  0.1330
15919W        W31388   4.024  14.902   1.738  0.1612  0.1403 -0.0010
15920W        W31389   8.273   3.788   0.182  0.2053 -0.0440 -0.0568
15921W        W31390  14.623  16.525   1.945 -0.2560  0.2452 -0.0965
15922W        W31391  14.240  12.476   1.018  0.4235 -0.3055 -0.0516
15923W        W31392  12.455   8.107  13.254  0.2544  0.0820  0.1072
15924W        W31393   9.711  17.316   4.158  0.1363 -0.0563 -0.2953
15925W        W31394  16.008  10.963   5.473 -0.1008  0.0139  0.2646
15926W        W31395  14.166  17.457  14.950 -0.1461 -0.0529 -0.2877
15927W        W31396   5.263   2.012   1.989  0.2251  0.2837  0.0687
15928W        W31397  16.700   3.456   2.454  0.2932 -0.2367  0.1055
15929W        W31398   8.378  13.948  14.951 -0.1298  0.3007 -0.1932
15930W        W31399  10.551   5.991   1.606  0.0448  0.0450 -0.1337
15931W        W31400   1.361  11.235  12.156 -0.0493 -0.2906 -0.1580
15932W        W31401  16.683   1.315   0.890  0.1745 -0.1266  0.2100
15933W        W31402   6.110   8.175  13.350 -0.0788 -0.0041 -0.0667
15934W        W31403  17.350  13.991   5.303  0.1581 -0.1937 -0.2600
15935W        W31404   1.801   0.836  13.606 -0.1057 -0.0750 -0.1788
15936W        W31405   0.707   7.261   5.014 -0.0417  0.0650 -0.2680
15937W        W31406  10.617  10.792  12.136  0.1844  0.0501 -0.2679
15938W        W31407   3.656   9.164  14.432 -0.2542  0.6065 -0.1852
15939W        W31408   1.834   0.553   5.773 -0.2178 -0.1448  0.3254
15940W        W31409   4.248  14.316  15.675 -0.0587 -0.0232  0.1018
15941W        W31410  13.890  12.417   2.123 -0.1547  0.0600 -0.1159
15942W        W31411   6.468   8.690  11.283  0.1114  0.1394 -0.1158
15943W        W31412  15.290  10.681   0.698  0.1614  0.2930  0.3228
15944W        W31413  11.346  11.881   0.313 -0.3124  0.1793  0.1501
15945W        W31414   8.350   7.598  14.157  0.0662  0.0380 -0.2770
15946W        W31415  17.380   5.110  11.336  0.0638  0.0775  0.0325
15947W        W31416   3.885  11.810  12.706  0.0841  0.4880  0.1977
15948W        W31417  12.859   5.428  11.927  0.3095 -0.3900  0.1659
15949W        W31418  17.504   8.816  12.596  0.1297 -0.0905  0.0251
15950W        W31419  15.084   7.587  16.469 -0.0111 -0.2148 -0.1283
15951W        W31420  11.018  17.609  11.803 -0.0258  0.1679 -0.1998
15952W        W31421   5.348  13.322  12.838 -0.1027  0.1647  0.1367
15953W        W31422   8.011   7.566  12.398  0.1885 -0.2684  0.1615
15954W        W31423   8.775  16.073   5.815  0.0918  0.1073  0.3021
15955W        W31424   7.690  11.143  14.465 -0.1800 -0.2135  0.1036
15956W        W31425   8.793  13.366   1.555  0.0093  0.0398 -0.0033
15957W        W31426   3.113   9.995   2.656  0.1587 -0.1971 -0.1376
15958W        W31427  15.881  13.419   2.716 -0.2653  0.0940  0.3167
15959W        W31428  16.294   6.336   5.035 -0.1905 -0.0010 -0.0968
15960W        W31429   9.787  10.788  14.536  0.0826  0.2670  0.0753
15961W        W31430   1.377   0.682   5.523 -0.0401 -0.3802 -0.2003
15962W        W31431   7.178  16.655   2.845 -0.1368  0.0467 -0.1089
15963W        W31432   0.865   7.930  14.259 -0.2820 -0.1173  0.1912
15964W        W31433   8.560  13.552  12.168  0.3135 -0.0003 -0.1828
15965W        W31434   8.482   0.429  14.087  0.2264 -0.4454  0.1293
15966W        W31435   0.726   0.989   4.376 -0.1930 -0.1679 -0.2223
15967W        W31436   1.661   8.017   4.237 -0.1062 -0.1526 -0.0419
15968W        W31437   4.369   8.898  14.970  0.1940 -0.1085  0.2708
15969W        W31438   8.624   7.001  16.033  0.2230 -0.0111  0.1424
15970W        W31439   0.388  13.681   1.766 -0.1519 -0.4060 -0.1254
15971W        W31440  14.327   5.384  13.485  0.0994  0.0707 -0.3483
15972W        W31441  15.120   2.919  12.494 -0.1188 -0.2783  0.0712
15973W        W31442   8.864  10.384   2.407  0.0014 -0.1366 -0.1679
15974W        W31443   6.084   7.556  15.668  0.1886 -0.0086  0.2761
15975W        W31444   5.812   5.867   5.576 -0.2399 -0.0734 -0.4026
15976W        W31445  16.804  14.869   5.055 -0.0750  0.1144 -0.3380
15977W        W31446  15.674   9.467  12.765 -0.1656 -0.0200  0.2581
15978W        W31447   5.648  10.319   0.273  0.0395 -0.0504  0.0725
15979W        W31448  16.305  14.947  11.807 -0.0547  0.0300 -0.0569
15980W        W31449  12.178  12.622  16.432  0.0184 -0.1022  0.1758
15981W        W31450   9.013   6.121   3.466  0.2407  0.1470  0.0652
15982W        W31451   3.199  16.204   1.220  0.1077  0.0476  0.1118
15983W        W31452   1.246   1.384  15.539 -0.0316 -0.0971  0.1058
15984W        W31453   6.380   1.304  10.981 -0.1259 -0.2417 -0.0849
15985W        W31454   5.037  16.186   4.911  0.0385  0.0271 -0.1864
15986W        W31455   4.852   1.726  14.200 -0.1398 -0.2126  0.0129
15987W        W31456   4.004  15.920   1.734 -0.1073 -0.1324  0.1256
15988W        W31457  16.252   8.382  13.311 -0.0992 -0.1784  0.0767
15989W        W31458  15.619  12.995   0.990 -0.4988 -0.0092  0.1927
15990W        W31459  16.219   0.328  14.887  0.0909 -0.4699  0.2341
15991W        W31460   7.528  16.323  15.392  0.2227 -0.0601  0.1116
15992W        W31461   4.645   7.769   3.695 -0.1767  0.2160  0.1420
15993W        W31462   8.635   1.516   3.635  0.2185  0.1148 -0.0229
15994W        W31463  17.660  16.604  12.366  0.0739 -0.1157  0.1030
15995W        W31464  17.856   3.667   0.009 -0.0197  0.3031  0.0363
15996W        W31465  16.199  10.395   1.196 -0.2262 -0.0333  0.0116
15997W        W31466   6.830   1.114  16.185  0.0083  0.2817 -0.0808
15998W        W31467  17.182   1.282  12.000  0.3679 -0.0594  0.0895
15999W        W31468  17.172   9.188  11.928  0.0676  0.0115 -0.0240
16000W        W31469  14.279  12.150   2.358 -0.1370 -0.1955 -0.0059
16001W        W31470  12.714   7.800   1.116  0.1655 -0.1209  0.3023
16002W        W31471   8.875   2.635   5.789 -0.0701  0.0044  0.1015
16003W        W31472  14.401   0.942  13.521 -0.0965  0.2565 -0.1434
16004W        W31473   2.705  11.147   0.707  0.2418 -0.1068 -0.1486
16005W        W31474  13.540   1.586   4.997 -0.0909 -0.2923  0.1028
16006W        W31475  12.246   0.725  11.941 -0.1961 -0.0127 -0.1086
16007W        W31476   3.365   7.807  12.324  0.1075 -0.1642  0.0550
16008W        W31477  17.020  11.662  10.278  0.1905 -0.3223 -0.1233
16009W        W31478  12.272  13.211  11.469 -0.0788  0.1057  0.1742
16010W        W31479  16.431   4.098  15.600 -0.0807 -0.1381 -0.0281
16011W        W31480   3.741   4.921  15.554 -0.2231 -0.2839  0.1331
16012W        W31481  11.575   2.149  12.530  0.1320 -0.1191  0.2250
16013W        W31482   3.351  14.184  16.030  0.0789  0.0783 -0.0581
16014W        W31483   4.367  10.418  12.967 -0.0179  0.0950  0.1260
16015W        W31484  15.596  16.452   0.798 -0.0341 -0.1336 -0.3482
16016W        W31485  15.184  12.005  10.351  0.1960 -0.0887  0.0437
16017W        W31486  16.945  17.066  10.996 -0.2938 -0.3643  0.1757
16018W        W31487  12.152   1.129  13.188  0.0361 -0.0198 -0.3323
16019W        W31488  10.061  12.018  12.294 -0.3574  0.2571 -0.3060
16020W        W31489  15.727   9.160  14.573  0.3105 -0.2340 -0.0137
16021W        W31490  13.922   9.893   1.791 -0.0268 -0.2416  0.1030
16022W        W31491   9.095  12.340  12.012 -0.2140 -0.1518  0.3195
16023W        W31492  13.166   4.825   2.086  0.1563  0.0984  0.0464
16024W        W31493  13.378   7.265   4.969 -0.2404 -0.2348 -0.0292
16025W        W31494   4.376   2.457   1.583 -0.0166  0.0371 -0.1178
16026W        W31495  17.892   8.120  16.242 -0.1025 -0.0629 -0.2087
16027W        W31496  15.077   0.910   3.031 -0.2612 -0.0904 -0.1208
16028W        W31497  10.249   3.826   0.553 -0.1645 -0.1322 -0.1553
16029W        W31498   7.701  12.891   0.088 -0.0911 -0.1704  0.1891
16030W        W31499  16.174  16.572  12.724 -0.0782  0.2150  0.2673
16031W        W31500   2.050  16.254   3.310 -0.1752 -0.2042 -0.1143
16032W        W31501   4.695   0.595   3.405 -0.2920 -0.0486 -0.1035
16033W        W31502   7.979   5.689   3.187  0.1900  0.1128 -0.1052
16034W        W31503   7.152   2.341  11.740 -0.1293  0.0649 -0.0243
16035W        W31504   3.438   1.864  11.662  0.0291  0.1498 -0.2517
16036W        W31505   9.048  17.752   5.256  0.1353  0.0802  0.3708
16037W        W31506  16.583  12.970   0.071  0.0183 -0.0438  0.1677
16038W        W31507   8.067   5.908   4.875  0.0999 -0.3395  0.1533
16039W        W31508  17.137  16.054   2.766 -0.2064  0.1129 -0.3856
16040W        W31509  15.384   9.268   2.987  0.0892 -0.1956 -0.0189
16041W        W31510   9.426  16.778  15.383 -0.0194 -0.1374 -0.0533
16042W        W31511   4.405   2.999   2.510 -0.1443  0.0579 -0.0639
16043W        W31512   1.547   1.580  14.260 -0.2527  0.3520  0.0218
16044W        W31513  13.196  16.394   1.331  0.0183 -0.0185 -0.2008
16045W        W31514   2.558  16.659   0.156 -0.0509 -0.0989  0.1307
16046W        W31515  12.930  14.205   0.555  0.2736  0.0705 -0.0295
16047W        W31516   9.991   6.627   3.092  0.1477 -0.0281 -0.0400
16048W        W31517   1.556  12.166  14.465 -0.0457  0.0136  0.1652
16049W        W31518   0.922   2.540   2.474 -0.2419  0.0036 -0.0235
16050W        W31519   8.716   7.023   2.596 -0.0150 -0.0215 -0.1654
16051W        W31520  12.511   9.591  13.240  0.0753 -0.0583 -0.1460
16052W        W31521  14.321   3.443  11.483  0.1149 -0.0011 -0.0314
16053W        W31522   0.144  17.531   6.129 -0.0441 -0.1536 -0.1620
16054W        W31523  12.917   8.797  12.804  0.1278 -0.2471  0.1126
16055W        W31524   5.448  15.645   5.706 -0.0980 -0.0919  0.0140
16056W        W31525   2.863   1.594   3.914 -0.1158 -0.2084 -0.2284
16057W        W31526  17.959   6.273  12.592 -0.0238 -0.0080 -0.1751
16058W        W31527  17.375  13.593  13.349 -0.0321  0.0598  0.0010
16059W        W31528  13.285   0.377   5.350  0.3163  0.0723  0.2895
16060W        W31529   0.550   3.342   1.133 -0.2002  0.1518 -0.1266
16061W        W31530   4.632  15.329  14.866  0.0182  0.0385 -0.0379
16062W        W31531   3.870   7.830  16.501 -0.1812 -0.1427 -0.0282
16063W        W31532  12.862  16.132   1.528  0.2947  0.0120 -0.3175
16064W        W31533   1.987  12.331  14.799  0.0696 -0.1405 -0.2799
16065W        W31534   2.384  16.468  13.002  0.0079 -0.1911 -0.1361
16066W        W31535   6.278   9.033   3.487 -0.1964  0.1134  0.1201
16067W        W31536   1.368  10.191  13.889 -0.0037 -0.1639 -0.2370
16068W        W31537   2.893  17.312   0.160  0.1925  0.0076 -0.1150
16069W        W31538  14.209   2.792  12.158 -0.1341  0.5013  0.1763
16070W        W31539   9.614   5.314  11.897 -0.1508 -0.1430 -0.3433
16071W        W31540   0.078  11.457  11.636  0.0664 -0.1387 -0.1355
16072W        W31541   9.046   8.876   5.188  0.2463  0.1300 -0.3761
16073W        W31542  11.427  15.580  14.495  0.1901  0.1522 -0.1092
16074W        W31543   9.580   6.582  11.185  0.0552 -0.1371  0.0187
16075W        W31544   5.168   6.103  12.405  0.2807  0.0177  0.0529
16076W        W31545   1.678   4.858   4.010  0.2109 -0.0748  0.0063
16077W        W31546  15.912   8.588  14.520  0.0282  0.0940 -0.2974
16078W        W31547   8.204   8.024   0.224 -0.0128  0.2270 -0.1610
16079W        W31548   4.620   0.236   2.101 -0.0121  0.3878 -0.0440
16080W        W31549   2.906   1.050  12.691 -0.0215 -0.1840 -0.2117
16081W        W31550   5.922  13.270  10.470 -0.0601 -0.0296  0.1184
16082W        W31551  15.765   3.393  12.001  0.1542  0.0399 -0.4612
16083W        W31552  11.068   9.842   0.134 -0.2246  0.0039  0.0380
16084W        W31553   8.407   0.267  12.370 -0.0813 -0.0815  0.2084
16085W        W31554   3.610  12.732   0.473  0.1567 -0.1379  0.1018
16086W        W31555   2.891   4.145   3.391 -0.3750 -0.1817 -0.1272
16087W        W31556  15.010   6.509   4.152  0.2715 -0.2233  0.2310
16088W        W31557  17.949   6.760  15.794 -0.2738 -0.0396 -0.0926
16089W        W31558  15.467   1.003  13.349  0.0357  0.0614  0.0142
16090W        W31559  11.026   9.327   3.703  0.1798  0.0781  0.2262
16091W        W31560   9.402   4.661  11.810  0.0525 -0.0019 -0.2990
16092W        W31561  16.029  17.899  15.336 -0.1953 -0.0418 -0.1517
16093W        W31562   7.468   0.173  13.320  0.3136 -0.5066  0.1173
16094W        W31563   0.308   1.922  15.519 -0.0492 -0.0064  0.2380
16095W        W31564   9.142   5.352  13.193  0.1396 -0.2138  0.0368
16096W        W31565   0.114  15.218   4.021  0.3619 -0.0017  0.1035
16097W        W31566  16.843   1.103  14.425  0.1719 -0.1196 -0.1076
16098W        W31567   5.690   6.994  14.022 -0.1119  0.1956  0.1697
16099W        W31568  11.088   1.261   3.126  0.1082  0.2701 -0.1431
16100W        W31569  13.708   7.262  14.361  0.2347  0.1639  0.2392
16101W        W31570   9.406   0.730   5.056 -0.1481 -0.2363  0.1046
16102W        W31571   3.862   7.434   1.566 -0.1578  0.0937 -0.3506
16103W        W31572  12.793  14.654  13.625  0.3704 -0.2669 -0.1600
16104W        W31573  16.053   9.790  13.978 -0.0996  0.3150 -0.3266
16105W        W31574   8.467  13.525  15.239  0.0922  0.5293  0.1545
16106W        W31575   5.979  16.247  13.988 -0.1612  0.1726  0.0159
16107W        W31576  15.188   3.981   4.277 -0.1476  0.1858 -0.2196
16108W        W31577   2.455   7.041   1.809 -0.2063  0.1997 -0.2689
16109W        W31578  12.660   7.330   4.469  0.2733 -0.0563 -0.0514
16110W        W31579  15.686  13.545   0.807  0.2804  0.0336 -0.1374
16111W        W31580   1.079  15.293   0.103 -0.5192 -0.1857 -0.0815
16112W        W31581   0.543  15.844  10.881  0.0910  0.0622  0.1004
16113W        W31582   1.106  16.524   2.574 -0.2083 -0.0428 -0.1128
16114W        W31583   3.184   4.745   1.839  0.3461  0.0559 -0.2251
16115W        W31584  10.819   0.117   3.943  0.3131 -0.5442  0.0092
16116W        W31585   3.754  10.276  13.476  0.0427 -0.1174  0.1130
16117W        W31586  17.203  17.960  14.035 -0.3130 -0.1234 -0.0577
16118W        W31587   9.040   8.607   0.344  0.2267 -0.1666 -0.1355
16119W        W31588  13.399  16.528   2.457  0.1729  0.0312  0.1492
16120W        W31589   2.371   0.466   4.157  0.2188 -0.1826 -0.0285
16121W        W31590   7.507  16.739  15.085 -0.3264  0.0968  0.0307
16122W        W31591   0.892  13.769  13.997 -0.0274 -0.3814  0.1897
16123W        W31592  12.907  16.511   6.564  0.0863  0.1060  0.0372
16124W        W31593   0.404  17.247  15.851 -0.1530  0.2214  0.0416
16125W        W31594   1.062   0.669   0.595  0.3111 -0.0473  0.0462
16126W        W31595   8.147   0.626   5.965  0.0709 -0.2030 -0.0835
16127W        W31596  14.852   4.858   1.615  0.1651  0.0616 -0.1331
16128W        W31597  17.439  13.044   5.300 -0.1678  0.1252  0.1343
16129W        W31598   3.695   6.585  11.459  0.0389  0.1303 -0.2902
16130W        W31599   3.912   0.999  12.456 -0.3207 -0.0163 -0.0036
16131W        W31600   1.519  16.243  16.324  0.1905 -0.0068  0.0529
16132W        W31601  12.388   4.306  11.335 -0.1167 -0.0240 -0.0458
16133W        W31602   0.324   1.024  15.325  0.2595  0.0745 -0.1658
16134W        W31603   7.365   4.176  13.170 -0.1203  0.0830  0.1658
16135W        W31604   9.816  14.852  15.057  0.0922 -0.0814  0.0988
16136W        W31605   7.788  16.365   0.704 -0.3055  0.0013 -0.1934
16137W        W31606  13.482   4.548   3.470  0.0704 -0.1740  0.0183
16138W        W31607   4.497   2.223  13.733  0.2246 -0.1273  0.1816
16139W        W31608   2.987  17.234  13.345 -0.2185 -0.0957 -0.0773
16140W        W31609   2.627  12.480   6.024  0.0027  0.0907  0.1788
16141W        W31610   2.586   0.599   4.651 -0.2536 -0.1546 -0.0566
16142W        W31611  17.628   1.481   4.314 -0.5267 -0.2059  0.3943
16143W        W31612   5.943   8.455  12.031 -0.1635  0.2083 -0.0438
16144W        W31613  11.451   2.344   1.643 -0.0032  0.0075 -0.1659
16145W        W31614  15.731   9.152  16.421 -0.0062 -0.0757 -0.1920
16146W        W31615   4.929   3.118  15.479 -0.1229 -0.0037  0.1066
16147W        W31616  15.109   5.570   0.744 -0.0444  0.0787  0.0122
16148W        W31617   6.738  11.288   0.435 -0.0328 -0.2132  0.0876
16149W        W31618  11.167  13.282  12.267 -0.0948  0.4503 -0.0406
16150W        W31619  16.951   5.559  15.869 -0.3538 -0.2872  0.0505
16151W        W31620  17.715   6.236  11.783 -0.0955  0.0052 -0.1057
16152W        W31621   9.624   0.655   4.034  0.1217 -0.0095 -0.0799
16153W        W31622  14.462  13.416  16.206  0.0316 -0.2358  0.0452
16154W        W31623   5.181  14.653  12.730 -0.0099  0.0481  0.2851
16155W        W31624  17.970   4.629  10.091 -0.3522 -0.0378 -0.1867
16156W        W31625   0.034   3.699   4.804 -0.1223  0.2165 -0.4212
16157W        W31626   7.120   1.887  14.614  0.2902 -0.1928 -0.0670
16158W        W31627   1.934   3.718   5.808 -0.0196 -0.0061  0.1470
16159W        W31628  10.005  16.201   3.922  0.1052  0.0700  0.1343
16160W        W31629   0.627  11.381   3.220 -0.3232  0.1250 -0.1074
16161W        W31630  16.682   4.618   5.390 -0.1116  0.0324 -0.0542
16162W        W31631   8.543  13.674   4.834 -0.0614 -0.3334 -0.2733
16163W        W31632  15.068  11.022  16.335  0.0551  0.0846  0.0418
16164W        W31633   0.158   6.754  11.252 -0.1090 -0.2644 -0.2815
16165W        W31634   9.760  10.328   4.002 -0.1073 -0.0808 -0.0677
16166W        W31635   0.062   5.469   3.489  0.2455  0.0728 -0.0861
16167W        W31636   6.966  13.763   0.951 -0.0980 -0.0715  0.1691
16168W        W31637  15.905  13.712  11.864  0.1373  0.0261  0.0001
16169W        W31638  16.678  11.635   0.192 -0.0647 -0.0120 -0.4993
16170W        W31639   6.417   0.789  14.800 -0.1709 -0.1012 -0.1670
16171W        W31640   7.677   1.749   0.503 -0.0419 -0.1175 -0.2574
16172W        W31641  11.648   2.265  12.045  0.0110  0.0012 -0.1483
16173W        W31642  11.750  14.157  16.030  0.2086  0.1758  0.0558
16174W        W31643   7.660   7.697  12.857 -0.1001 -0.3012  0.5124
16175W        W31644   8.310  17.802  15.871 -0.1793  0.0404  0.0239
16176W        W31645  15.827  12.600  12.275  0.2178  0.1433  0.3747
16177W        W31646  12.501   3.885  12.690  0.2997 -0.1301  0.0771
16178W        W31647  16.960   0.902  12.981 -0.1383 -0.1188 -0.1305
16179W        W31648  11.953   6.859  13.718  0.0567  0.0299 -0.0755
16180W        W31649   2.878  13.992  14.485  0.3220 -0.1869 -0.0049
16181W        W31650  13.298   0.194   0.288 -0.1949  0.0885  0.3330
16182W        W31651   7.903  11.148  13.998  0.3837 -0.0573 -0.1571
16183W        W31652  16.573  15.994   1.915 -0.2479 -0.0235  0.0184
16184W        W31653   0.263   4.665  15.314 -0.1176  0.1058 -0.0385
16185W        W31654   0.874  12.671  10.414 -0.0284  0.2241  0.2114
16186W        W31655   6.099  15.131  12.063 -0.0453 -0.1732 -0.0061
16187W        W31656   9.850  13.869  14.027 -0.3628 -0.1677 -0.1483
16188W        W31657   9.214   2.941   6.288  0.0817 -0.0174  0.0537
16189W        W31658   6.677  17.474  16.544 -0.1438 -0.3104 -0.1966
16190W        W31659   2.885   9.906   1.459 -0.1483 -0.1103 -0.1280
16191W        W31660   9.570   1.510  14.357 -0.0049 -0.1075  0.2803
16192W        W31661  16.916  17.430   6.139  0.0908 -0.1794 -0.1373
16193W        W31662  10.828   4.298   3.990  0.3755  0.0628  0.2190
16194W        W31663   7.572   3.033  11.875  0.2792  0.2175  0.2603
16195W        W31664   1.397   3.499   2.244 -0.2132  0.0152  0.0402
16196W        W31665   3.175  16.405  11.990  0.4706 -0.1696  0.0449
16197W        W31666   7.419  15.626   5.775  0.1082  0.1513  0.1145
16198W        W31667   2.892   2.282  13.061  0.0285 -0.2785  0.0959
16199W        W31668  16.278   8.212  15.465  0.0470 -0.0198 -0.1166
16200W        W31669   3.131   6.679  16.142  0.1174  0.0634  0.0581
16201W        W31670   1.085   2.919  15.071  0.1119  0.0606  0.0406
16202W        W31671   8.767   9.667  11.172  0.0562  0.2448  0.2440
16203W        W31672   2.176  15.620  13.630 -0.1421  0.3133  0.0695
16204W        W31673  11.726   2.846   5.876  0.0805  0.0657 -0.1025
16205W        W31674   5.335  17.798  15.656 -0.2106 -0.0928  0.4301
16206W        W31675   6.182  12.496  14.343 -0.1177 -0.0081 -0.1043
16207W        W31676   7.197  10.500   0.504  0.0792  0.3552 -0.1462
16208W        W31677  12.904   0.073   5.676  0.2091  0.1457 -0.1711
16209W        W31678   5.134   8.453   2.154  0.0246 -0.0145  0.0354
16210W        W31679   4.718  15.577  12.865  0.3547  0.0602 -0.0796
16211W        W31680  10.204  10.160   0.999 -0.0895 -0.2424  0.0944
16212W        W31681  17.100  17.650   1.218  0.1851  0.1676 -0.1187
16213W        W31682  10.420   1.179  14.306  0.1487 -0.2175  0.0862
16214W        W31683  11.446   0.965  15.584 -0.0337  0.2409 -0.0644
16215W        W31684   0.985   4.894   1.868  0.1480  0.0177 -0.1227
16216W        W31685   9.658  15.221  12.637  0.1175  0.1406 -0.2643
16217W        W31686   5.313  14.379   5.351 -0.0054  0.2439 -0.1424
16218W        W31687  11.669   3.555  15.374 -0.2144 -0.2976  0.0500
16219W        W31688  12.985  14.353   0.982  0.1274 -0.1534  0.1962
16220W        W31689  14.113  13.250   3.872  0.0320 -0.1515 -0.1483
16221W        W31690  10.573  11.862   0.405 -0.0241 -0.1623 -0.1945
16222W        W31691   4.838  11.532   1.575 -0.3245  0.0322  0.1959
16223W        W31692   0.177   3.300  16.038  0.0621  0.0230 -0.3146
16224W        W31693   6.392  12.262   3.704  0.0874  0.3318 -0.0981
16225W        W31694   7.586  16.066   5.928 -0.2977  0.2114 -0.2708
16226W        W31695  11.796  14.309   0.642 -0.2674  0.0806 -0.1012
16227W        W31696  14.061   7.899  16.449  0.1109  0.1505 -0.1140
16228W        W31697  16.542  14.687  14.151 -0.0334 -0.1518 -0.2239
16229W        W31698  15.081   1.069  15.041  0.0077 -0.3168  0.1369
16230W        W31699   9.004  13.093   1.945 -0.0375  0.0483 -0.0140
16231W        W31700   6.910   2.118   2.573 -0.1688 -0.1091  0.3207
16232W        W31701   2.530  13.373   4.285  0.0916  0.2207 -0.1455
16233W        W31702   9.853  12.921   0.871  0.2777 -0.3229  0.1897
16234W        W31703  11.654  10.708   1.006  0.1691  0.0205  0.0122
16235W        W31704  15.370  10.999  13.310 -0.1187  0.0055  0.0811
16236W        W31705  14.965  17.401   6.594 -0.0959  0.3063  0.0190
16237W        W31706  16.722   1.349  11.675 -0.2903 -0.1961  0.2201
16238W        W31707  17.921   9.382  10.959 -0.1175  0.0200  0.2378
16239W        W31708  13.198   9.344  12.624 -0.0218 -0.2270 -0.0851
16240W        W31709   0.837   4.166  11.027 -0.0113  0.1454  0.0005
16241W        W31710   3.824   4.064   1.034  0.1412 -0.0923  0.2590
16242W        W31711  16.202  11.330   3.674  0.1789 -0.2815  0.1698
16243W        W31712  16.756   1.737   1.826 -0.2636  0.3567 -0.1161
16244W        W31713   2.429   5.785  15.143  0.1683 -0.1366  0.4167
16245W        W31714   3.519   0.530  13.079 -0.2448  0.2011  0.3421
16246W        W31715   3.535  12.956  14.123  0.2632 -0.2219 -0.0870
16247W        W31716   7.755   8.012  15.938 -0.0125  0.0452 -0.3132
16248W        W31717   8.889   6.595   3.802 -0.1915  0.1241  0.3647
16249W        W31718  17.418  12.188   2.241  0.1244  0.0730  0.2854
16250W        W31719   4.164   9.553   3.595 -0.0503 -0.0220 -0.0136
16251W        W31720   0.303   6.057  13.729 -0.0233  0.0344 -0.0153
16252W        W31721  10.583   5.506   3.952  0.0339  0.2752 -0.1564
16253W        W31722   6.934  12.881   3.099  0.2072 -0.1482 -0.1812
16254W        W31723   0.262   5.030   2.547 -0.0542  0.3260 -0.1011
16255W        W31724   3.163  10.828   3.693 -0.4661  0.1846  0.0751
16256W        W31725   9.392   9.544   5.499  0.2496 -0.1639 -0.0592
16257W        W31726  11.116   7.253  12.876 -0.1022 -0.0446 -0.4220
16258W        W31727   8.043   8.851   2.525 -0.2470 -0.0870 -0.2182
16259W        W31728   8.821   1.096  12.789  0.1125  0.0706 -0.0456
16260W        W31729  13.725   2.370   3.049  0.3607  0.2593 -0.1494
16261W        W31730  13.224  14.541  11.829 -0.0650  0.1888 -0.0064
16262W        W31731  12.480   9.078   1.815  0.1577 -0.1417  0.0130
16263W        W31732  17.364  17.397   0.202 -0.0300  0.1632 -0.0119
16264W        W31733   4.009   9.999   4.159  0.1526  0.0186  0.0718
16265W        W31734  13.134   4.864   4.467  0.2914  0.0611 -0.2063
16266W        W31735   4.394   8.525  13.668 -0.0438 -0.3362 -0.0069
16267W        W31736  17.352   0.192   3.347  0.2324  0.0408  0.0657
16268W        W31737  10.479  17.157  15.166 -0.3708 -0.0067  0.1082
16269W        W31738  13.840   3.712   3.205  0.0113 -0.0799 -0.3458
16270W        W31739   4.401  10.885   2.299 -0.2594  0.0648 -0.0510
16271W        W31740  14.658   3.367  11.143 -0.1012 -0.1638 -0.2536
16272W        W31741   9.727   5.196  11.370 -0.2218 -0.0687  0.1716
16273W        W31742   7.791  13.661  13.652  0.0577  0.0062  0.0611
16274W        W31743   3.128  11.218  15.149  0.0288 -0.2014 -0.3542
16275W        W31744   1.106  15.125  10.733  0.0521 -0.3578 -0.1111
16276W        W31745  12.170   2.595  15.179  0.2482 -0.1020  0.0685
16277W        W31746  16.909  16.007   1.099 -0.2608  0.0300  0.1981
16278W        W31747   2.958  10.996   4.642  0.0029  0.0020  0.0638
16279W        W31748  10.765  17.408  13.324  0.0672 -0.1745 -0.3119
16280W        W31749   7.272   8.500  12.730 -0.2234 -0.0169  0.1812
16281W        W31750   5.140  13.453  13.319 -0.0551 -0.0258  0.2199
16282W        W31751   2.191   1.068   1.994  0.1069 -0.2623  0.1923
16283W        W31752  14.863   8.325  11.111  0.1390  0.1300 -0.2979
16284W        W31753   5.209   2.884  15.111  0.1765 -0.2351 -0.3711
16285W        W31754   0.478   3.126   5.122  0.0137 -0.2282  0.0033
16286W        W31755   6.843   0.711  12.715 -0.0550 -0.3718 -0.1472
16287W        W31756  13.848  16.209   3.220 -0.1186  0.0028  0.2682
16288W        W31757   7.119  14.456  11.706  0.1194 -0.2519 -0.0332
16289W        W31758   5.881   6.552  15.202  0.2765  0.1252  0.2112
16290W        W31759   4.737   0.940   2.932  0.0254  0.0802 -0.0912
16291W        W31760   4.828   7.281   1.274  0.0227 -0.0648 -0.4612
16292W        W31761   6.185   3.368   1.936  0.1822  0.1247  0.2509
16293W        W31762  17.074   7.293   2.295 -0.1314  0.1961  0.0530
16294W        W31763  12.839   0.256  13.862  0.4042  0.0862 -0.0912
16295W        W31764   8.425   7.119   4.255 -0.2938  0.3027 -0.4120
16296W        W31765  11.594  17.838   3.524  0.2032  0.1676  0.1803
16297W        W31766  14.304   3.022  11.119  0.2405 -0.0238 -0.1070
16298W        W31767  10.060   5.123  16.276  0.0107 -0.0157  0.1565
16299W        W31768  12.829  12.425   1.050  0.0086  0.2759 -0.0892
16300W        W31769  16.351   6.028   0.187 -0.0900 -0.0576  0.1940
16301W        W31770  14.477  15.900   5.745 -0.1808 -0.1553  0.2288
16302W        W31771   9.069   9.207   1.024 -0.0413  0.0385 -0.1255
16303W        W31772   2.019  14.408  15.748 -0.0666 -0.0817  0.5205
16304W        W31773   4.542   9.810  15.677 -0.1811 -0.0276  0.2655
16305W        W31774   2.445   9.811  15.806  0.1032  0.3451 -0.1161
16306W        W31775   7.542   2.432  13.168  0.0600 -0.1743 -0.2371
16307W        W31776  17.428   3.390   0.144 -0.3342 -0.1286  0.1532
16308W        W31777   0.181  17.244   4.971 -0.1811  0.0583  0.1627
16309W        W31778   2.631   1.122   2.673  0.0273 -0.1512  0.0499
16310W        W31779   1.401  17.657   2.568 -0.0853  0.2128 -0.3291
16311W        W31780  17.084  15.996   0.568  0.0415  0.2269  0.0052
16312W        W31781   5.140   5.683  11.000 -0.0338 -0.2489 -0.1123
16313W        W31782   9.213   0.373   3.950  0.0586 -0.3403  0.1611
16314W        W31783  10.205   4.579  13.659 -0.0434  0.1978 -0.1840
16315W        W31784  12.767  13.772  12.613 -0.0151 -0.0293 -0.1778
16316W        W31785   7.859   2.519  13.622  0.1052  0.0643 -0.1239
16317W        W31786  14.964   0.025  14.440  0.2531 -0.1592  0.1842
16318W        W31787   8.978   4.829   5.241 -0.0285  0.0909  0.1758
16319W        W31788  11.445   1.023  15.078 -0.1765  0.1779 -0.3376
16320W        W31789   0.273   7.483  12.931  0.0687  0.1239  0.2328
16321W        W31790   4.331   0.128  15.951 -0.1999  0.1790  0.0815
16322W        W31791   8.643  14.938   0.194  0.0988 -0.0625  0.1391
16323W        W31792   3.858  10.629  11.626  0.1258  0.2155  0.3225
16324W        W31793   2.527  17.665   4.592 -0.0813 -0.1296  0.0721
16325W        W31794  15.034  10.028   3.356 -0.0313  0.1245  0.1375
16326W        W31795  15.304   7.137   0.899  0.0603 -0.3330 -0.0606
16327W        W31796   2.044   8.760  14.501  0.0290 -0.3272  0.3781
16328W        W31797  11.637  13.065   0.627 -0.2184  0.2232  0.0312
16329W        W31798   8.349  11.389  12.048  0.2413  0.0797  0.1986
16330W        W31799  15.741  14.493   6.026  0.0957 -0.1154 -0.4861
16331W        W31800   9.836   4.264  15.327  0.1121 -0.1346 -0.0768
16332W        W31801  10.294   1.179  15.852  0.2565 -0.0651 -0.0558
16333W        W31802  14.750   4.427   1.844 -0.0933  0.0399  0.1932
16334W        W31803  12.322   7.150  12.809 -0.1520 -0.2421  0.1317
16335W        W31804   4.615   7.824   2.383 -0.2879  0.2766 -0.0395
16336W        W31805   5.003  12.417   1.673 -0.1191 -0.0885 -0.4103
16337W        W31806  12.507  13.883   0.808 -0.2617 -0.1251  0.0541
16338W        W31807   6.069   9.076   2.502 -0.1493  0.0340 -0.0430
16339W        W31808   1.387   2.548  14.640 -0.1414  0.1376 -0.2547
16340W        W31809  16.210  13.072   5.200  0.0667  0.0533 -0.5171
16341W        W31810  10.023  12.631   2.968 -0.0245  0.2863  0.2383
16342W        W31811   1.475   1.534  15.138  0.1375 -0.0300 -0.1058
16343W        W31812   4.734  11.365  11.279 -0.1223 -0.0990  0.0442
16344W        W31813   4.001   1.675   5.260 -0.1602  0.0299 -0.0748
16345W        W31814  11.544  12.975   3.920 -0.0793 -0.1070  0.2056
16346W        W31815  15.192  17.328   3.041 -0.1071 -0.1819 -0.2394
16347W        W31816   5.756   7.644  12.023 -0.0119 -0.3288  0.1209
16348W        W31817  11.983   5.547   3.958 -0.0117 -0.1993  0.1579
16349W        W31818  17.620   6.938  13.872 -0.0083  0.0376 -0.2829
16350W        W31819   1.826  14.850  13.609  0.3540 -0.4528 -0.3584
16351W        W31820   5.107   7.033   2.592 -0.1824 -0.0881  0.2034
16352W        W31821   6.290  13.188  15.297 -0.5373  0.1523 -0.1397
16353W        W31822  11.741   2.438   0.466  0.0202 -0.1395  0.1583
16354W        W31823  10.729   7.269   0.111  0.7167  0.2109 -0.0918
16355W        W31824   2.964  14.986  15.456  0.3407 -0.0499  0.1731
16356W        W31825  17.490  13.411   3.546  0.2046  0.0025 -0.1513
16357W        W31826   2.079   4.671   1.101  0.1962 -0.2177  0.3602
16358W        W31827   7.666   6.559  15.885  0.0940 -0.0150  0.0540
16359W        W31828   9.552   9.501  11.852  0.1978  0.0318 -0.0125
16360W        W31829   8.226   9.710  15.752 -0.3774 -0.2204 -0.1259
16361W        W31830   3.792   8.288   0.176  0.2230  0.0894 -0.0009
16362W        W31831   6.771   9.986  16.393  0.1296 -0.1148  0.3366
16363W        W31832  17.937  17.115   2.339  0.1929  0.1860 -0.0515
16364W        W31833   0.096  11.217  12.429 -0.4135 -0.1863  0.1228
16365W        W31834   9.277  10.937   0.939  0.1304  0.1019 -0.3128
16366W        W31835  13.786   0.677   5.143  0.0234 -0.0205 -0.2872
16367W        W31836   7.450   3.470   0.733  0.3813 -0.0024  0.1522
16368W        W31837  11.785   5.802   1.159  0.2351  0.0696  0.1651
16369W        W31838   9.265   8.441  14.872  0.0636 -0.1012 -0.0449
16370W        W31839  12.606  17.747  12.065  0.2528  0.0986 -0.0731
16371W        W31840   4.402  13.192   1.609 -0.0029 -0.2418  0.2696
16372W        W31841   0.956  14.295   3.722 -0.1861 -0.0202 -0.0391
16373W        W31842  16.970   6.419   4.673  0.2580 -0.1705  0.1842
16374W        W31843  16.485  16.240  14.648  0.1156 -0.2540  0.1813
16375W        W31844  16.480  10.423   2.784  0.0107  0.3887 -0.2971
16376W        W31845   5.977  15.847  14.772  0.1817 -0.1682 -0.0191
16377W        W31846  15.813  17.741  13.580  0.1027 -0.0228 -0.1228
16378W        W31847   2.819   0.565  12.941 -0.0149 -0.0585  0.2027
16379W        W31848  16.822  14.989  12.055  0.2791 -0.1284 -0.0317
16380W        W31849   4.071   7.829   4.229 -0.1288  0.0482 -0.2577
16381W        W31850   9.862   1.365   1.346 -0.1879  0.0359  0.2657
16382W        W31851  16.063   0.211   5.606 -0.0341 -0.0004  0.1965
16383W        W31852   6.511   3.330  16.246  0.0951 -0.0404  0.1229
16384W        W31853   1.048   4.188  11.535  0.0191  0.2668 -0.2959
16385W        W31854   3.523   6.368  10.962  0.2039  0.1119  0.1529
16386W        W31855   9.177  16.753  13.189 -0.0271 -0.1787  0.0095
16387W        W31856   0.369   0.884  14.731 -0.0404 -0.2160  0.0314
16388W        W31857   3.846   2.029  14.329 -0.0769  0.2099  0.1422
16389W        W31858  10.746   2.582  13.627  0.0150 -0.1789  0.1568
16390W        W31859  11.835   3.052   4.766 -0.0870 -0.1262 -0.2337
16391W        W31860   2.764   6.712   0.687  0.2268 -0.1565  0.1909
16392W        W31861  16.028   6.740  11.662  0.0138 -0.3612  0.1297
16393W        W31862   1.998  13.057   3.443  0.1906 -0.2295 -0.1519
16394W        W31863   3.163  17.858   6.246 -0.0360 -0.4054  0.1200
16395W        W31864   8.654   5.766   0.598  0.3199 -0.0153 -0.1002
16396W        W31865  16.075   3.466  10.996  0.2076 -0.0196 -0.1704
16397W        W31866  17.130  13.728   2.564  0.0481  0.1829 -0.0538
16398W        W31867   3.967   6.207  16.258  0.1481 -0.0872  0.0674
16399W        W31868  14.169   4.930   3.771 -0.0848 -0.0122 -0.3147
16400W        W31869   7.836   5.855   2.296  0.0728  0.4105  0.1076
16401W        W31870  15.039  12.792  16.327  0.0279  0.1706  0.3077
16402W        W31871  15.749  17.016  14.883 -0.0029 -0.1552 -0.0454
16403W        W31872  12.360  14.886  13.957 -0.1184 -0.2786 -0.2704
16404W        W31873  15.669  12.971  12.600 -0.0138  0.1076  0.2152
16405W        W31874  15.301   0.320   0.255  0.3482  0.0208  0.0427
16406W        W31875  11.448  17.712   5.057  0.4725 -0.1756 -0.0726
16407W        W31876  10.420  13.209  13.796 -0.0184 -0.3333  0.3389
16408W        W31877   7.009   7.610  12.063 -0.0675 -0.0884  0.4804
16409W        W31878   3.954  16.294   2.313  0.2173  0.1599  0.0146
16410W        W31879   8.349   3.422   5.288  0.1756  0.2644 -0.0976
16411W        W31880   6.036   0.208  13.573 -0.1653 -0.3125  0.2471
16412W        W31881   1.509   4.215   4.410  0.0426  0.0656  0.0357
16413W        W31882  11.485   8.724  15.776  0.1551  0.3015 -0.0122
16414W        W31883   8.925  13.984   0.320  0.2819  0.0316 -0.2606
16415W        W31884  13.699  17.339   4.041 -0.2639  0.1936 -0.0286
16416W        W31885   9.854   7.866  12.893 -0.0243 -0.0557 -0.1332
16417W        W31886  17.398  12.479   3.581 -0.2749 -0.4908 -0.3322
16418W        W31887   5.668  16.761   4.921  0.2285  0.0178  0.3215
16419W        W31888  12.503   1.881  14.685  0.0255 -0.1265  0.1640
16420W        W31889   8.710   5.556  11.410 -0.1657  0.2250  0.0477
16421W        W31890  13.080   0.138   3.647  0.1775  0.3510 -0.0951
16422W        W31891  13.667   3.492   1.085  0.2973  0.3203  0.0761
16423W        W31892  12.271   4.845   5.421  0.3409  0.0847 -0.0070
16424W        W31893  17.864   0.268  14.458 -0.1118  0.2942  0.0025
16425W        W31894   4.019  13.481   1.495 -0.3090 -0.0320  0.0638
16426W        W31895  15.127   5.304  11.962 -0.0807  0.0031 -0.0749
16427W        W31896   5.524  11.671  12.307 -0.0798  0.0837 -0.1828
16428W        W31897  11.559  17.122  12.926 -0.2548  0.0607 -0.2609
16429W        W31898   7.534  17.335  15.970 -0.1578 -0.0716  0.0434
16430W        W31899   0.245   5.387   3.038  0.0880  0.0329  0.1504
16431W        W31900  10.353  11.152   2.071  0.0975 -0.0123 -0.1138
16432W        W31901   3.060  12.222   1.338 -0.0207 -0.2031 -0.1987
16433W        W31902  11.957   8.401  11.304 -0.0708 -0.0032 -0.1384
16434W        W31903  15.517   4.225   5.099 -0.2428  0.3384 -0.0391
16435W        W31904  16.724   5.340  15.449 -0.6159 -0.0930 -0.0535
16436W        W31905  11.095   1.871  16.602 -0.0134  0.1589 -0.0002
16437W        W31906   7.185   3.260  13.277 -0.2306  0.0425  0.0896
16438W        W31907   9.176  13.122  13.014  0.0493  0.0409  0.1297
16439W        W31908  14.739  14.884   0.038  0.1053  0.2314  0.0317
16440W        W31909   0.496  17.694   0.086  0.0683 -0.0946  0.0243
16441W        W31910   7.735  14.266  15.651 -0.0252 -0.3302 -0.1966
16442W        W31911   9.982   4.278   2.260  0.0188 -0.0436  0.0057
16443W        W31912   4.127   7.785  15.536  0.0621 -0.3088  0.1478
16444W        W31913  17.558   8.306  12.027  0.0655 -0.1154 -0.0887
16445W        W31914   5.099   3.132   4.759 -0.1696  0.0571 -0.0305
16446W        W31915  10.501  13.996   1.922  0.0243 -0.2384 -0.0054
16447W        W31916   0.724   7.082   1.193  0.3913 -0.0785 -0.2651
16448W        W31917   9.351   8.594  16.446 -0.1697 -0.1259 -0.1548
16449W        W31918   0.592   9.831  15.915  0.0203  0.0477  0.0426
16450W        W31919   9.849   9.982   2.670 -0.1630 -0.2442 -0.0340
16451W        W31920  15.098  12.314   2.413  0.1493 -0.0992 -0.1822
16452W        W31921  12.878   7.811   0.052  0.2778  0.0201  0.0372
16453W        W31922  10.148  10.598   0.832 -0.2144  0.0986 -0.2399
16454W        W31923   3.462   5.223  13.613 -0.0588 -0.0493  0.0176
16455W        W31924  12.176  13.932   4.690  0.0637  0.0012 -0.2156
16456W        W31925   6.479   8.438   2.079  0.1516 -0.0011  0.0524
16457W        W31926   6.793  13.420   2.793  0.0596 -0.1952  0.0768
16458W        W31927  15.875  15.101  14.356  0.1859 -0.1079  0.1698
16459W        W31928   6.738   1.047   4.583  0.0826 -0.0594 -0.0652
16460W        W31929  10.226  13.652  13.560 -0.1401 -0.0892  0.3874
16461W        W31930  17.478   7.657   3.762 -0.2206  0.1797  0.1477
16462W        W31931   8.196   1.367   4.790  0.0736  0.2363  0.0287
16463W        W31932   1.555   9.714  13.258 -0.0357  0.2156  0.3217
16464W        W31933   6.312  15.853   3.136  0.0255 -0.0310 -0.0154
16465W        W31934   9.978  14.058   1.742  0.0374 -0.0331  0.4057
16466W        W31935   1.444   1.748  12.079 -0.2350  0.2154 -0.1616
16467W        W31936  15.207  10.930  12.257  0.0611  0.0675 -0.3543
16468W        W31937   5.415   7.655   0.686 -0.2005  0.2762 -0.2510
16469W        W31938   6.353   8.094   6.104  0.0191 -0.2447  0.2047
16470W        W31939   6.312   9.535   2.779  0.1502 -0.0061 -0.2158
16471W        W31940   5.718  14.804  12.871  0.1655  0.1080 -0.2183
16472W        W31941   9.615   2.428  15.518 -0.1767  0.1746  0.0436
16473W        W31942   8.360   5.890  15.768  0.1889 -0.1787 -0.0227
16474W        W31943  13.644   3.515   1.738 -0.2311 -0.1701  0.1989
16475W        W31944  14.660   8.801  13.857 -0.1149  0.5021 -0.2599
16476W        W31945  17.067  10.371   0.457 -0.1191  0.0565 -0.2053
16477W        W31946   3.035   8.657  12.096 -0.1208 -0.0314 -0.0774
16478W        W31947   3.733  14.653   3.785 -0.1434  0.0296  0.2794
16479W        W31948  16.886   2.631   2.744  0.1107  0.0316 -0.3509
16480W        W31949   8.057  16.290  15.483  0.0956 -0.3522 -0.1363
16481W        W31950  11.912   5.355   2.622 -0.0056 -0.2641  0.1703
16482W        W31951   7.393  14.522  16.446 -0.1496 -0.0068 -0.1913
16483W        W31952   9.985   9.595   2.979 -0.0350  0.0791  0.0046
16484W        W31953  12.740   6.473   1.806 -0.3316  0.2366  0.1831
16485W        W31954  10.918   1.478  13.102 -0.0962 -0.0259  0.1488
16486W        W31955   0.473  17.775  13.036  0.0323  0.2787 -0.0352
16487W        W31956   7.792   2.510  14.702  0.0810 -0.3027  0.0229
16488W        W31957  11.418   3.451  16.558 -0.3803  0.4385  0.0046
16489W        W31958   0.417   4.610   4.029 -0.0252 -0.0904 -0.2021
16490W        W31959  11.525  17.083  16.268  0.0288  0.0818 -0.0933
16491W        W31960   8.197  13.897  11.971 -0.0651  0.1728 -0.1988
16492W        W31961  15.994  12.469   0.328 -0.2027 -0.3504  0.0994
16493W        W31962  11.652   7.830  13.627  0.0957  0.0627  0.1051
16494W        W31963  11.977   8.805   0.626  0.0928 -0.1171 -0.2657
16495W        W31964  14.455  10.232   0.393  0.0014  0.0113  0.0439
16496W        W31965   7.867   6.350   5.232  0.0947  0.0245  0.1465
16497W        W31966   8.051   8.585  11.364 -0.1497 -0.0980 -0.0288
16498W        W31967  12.036   5.836  12.622 -0.5006  0.1689 -0.1237
16499W        W31968   9.391  13.914  12.242  0.4458  0.0544 -0.0957
16500W        W31969  13.166   7.166   2.335  0.0167  0.1258  0.2784
16501W        W31970   4.496  11.402  16.344  0.2678 -0.0393  0.0409
16502W        W31971   1.885   9.509   2.188  0.2793 -0.1996 -0.0019
16503W        W31972  10.885   6.766   5.315  0.1773  0.2871 -0.1528
16504W        W31973   4.309   8.818   4.860  0.2813  0.0812  0.0916
16505W        W31974   6.227   0.103   0.453 -0.0875  0.2005 -0.2045
16506W        W31975  13.694  11.213  15.409  0.1608 -0.0399 -0.0320
16507W        W31976  11.411  12.623   3.363 -0.0925  0.0949 -0.1637
16508W        W31977   8.935  17.039  16.336  0.1786 -0.1152  0.0237
16509W        W31978   5.697  14.124  12.646  0.0721 -0.2209 -0.0910
16510W        W31979  13.238   0.672  15.919 -0.2930  0.0014  0.0534
16511W        W31980   3.215   3.127  11.155 -0.1781 -0.0117  0.2114
16512W        W31981   5.312   8.918   3.655  0.1247  0.0848  0.0094
16513W        W31982  10.273  15.550   6.513 -0.1651  0.0085 -0.1645
16514W        W31983   5.486  10.728   3.580  0.2864  0.4392  0.0825
16515W        W31984  16.568   8.554  16.060 -0.1685  0.1530  0.0993
16516W        W31985   3.287   1.619   2.261  0.0593  0.0497 -0.2744
16517W        W31986   3.644   7.466   4.058  0.0202 -0.0640 -0.1608
16518W        W31987   2.287   9.352   0.723 -0.0804  0.0220 -0.2449
16519W        W31988  15.334  12.435  15.284  0.2615  0.0891  0.1296
16520W        W31989   3.082   4.663  14.781  0.0448  0.0140 -0.1851
16521W        W31990  10.261   5.641   0.631  0.5274  0.0816  0.3205
16522W        W31991   5.507   7.783   4.374 -0.0324 -0.0360  0.1459
16523W        W31992   6.257   9.867  15.174 -0.1084 -0.1344  0.0173
16524W        W31993   5.115   9.738   3.536  0.1216 -0.0245  0.3328
16525W        W31994   0.076   6.356   3.476  0.5036  0.3553  0.0240
16526W        W31995   6.856  12.702   0.090 -0.3259  0.0260 -0.2040
16527W        W31996   9.564  13.405  12.126 -0.1037 -0.0215  0.1972
16528W        W31997   4.537   0.785  13.699 -0.3723  0.0715 -0.0058
16529W        W31998  11.412  10.972  16.599 -0.1262  0.1063  0.1764
16530W        W31999  16.204  17.207  14.711 -0.0823  0.1621  0.2180
16531W        W32000  10.913   2.373   4.383  0.1855 -0.0141  0.0894
16532W        W32001   6.723  12.058   2.425 -0.0093 -0.1645 -0.0907
16533W        W32002   3.485   1.481  15.772  0.0640 -0.2127  0.6616
16534W        W32003   7.359   3.469  15.993 -0.0710  0.0055  0.0175
16535W        W32004   1.859   6.046  11.096  0.3145 -0.1366  0.3740
16536W        W32005  14.146  13.841   2.803 -0.1724 -0.0227 -0.0165
16537W        W32006   5.955   8.922  13.845  0.4494  0.0758  0.1652
16538W        W32007  15.937  11.842  14.620 -0.0766  0.2384 -0.0609
16539W        W32008  11.957  14.974   3.837  0.0665 -0.0029  0.0638
16540W        W32009   8.392   7.878   2.269 -0.0823 -0.0970 -0.1358
16541W        W32010   9.687   2.564  14.948  0.0384  0.1720 -0.0055
16542W        W32011   8.938  10.093   0.818  0.0984 -0.0144  0.2853
16543W        W32012   1.385   1.431   1.778  0.2012 -0.3364 -0.1027
16544W        W32013   0.288   0.234   5.276  0.1031  0.0498  0.1448
16545W        W32014  16.497  12.896   4.870 -0.0183  0.1593  0.1472
16546W        W32015   6.923   4.498   3.949 -0.0176 -0.0073 -0.0026
16547W        W32016  14.539  11.555  14.433 -0.2032  0.1628 -0.4389
16548W        W32017   0.540  14.357   4.095 -0.0041  0.1201 -0.0076
16549W        W32018  11.973  12.643  12.512 -0.0795 -0.1143  0.0714
16550W        W32019  15.392   2.952  15.223 -0.1445  0.0523 -0.1167
16551W        W32020   1.802   8.417  16.598 -0.3476  0.2263 -0.2282
16552W        W32021  17.403   1.405  12.405  0.0458  0.0734 -0.0847
16553W        W32022   5.433   8.591  16.319 -0.0880  0.1079  0.0470
16554W        W32023  11.665  15.406  15.547  0.2393  0.0952  0.0429
16555W        W32024   7.869   6.707  12.825  0.0699 -0.1421 -0.0065
16556W        W32025   9.550   5.546  12.375 -0.1387 -0.0010  0.1079
16557W        W32026  16.555   3.570  13.408  0.5114  0.1781  0.1767
16558W        W32027  16.756   9.555  13.630 -0.0879 -0.2917 -0.0892
16559W        W32028  17.784   3.808  11.042 -0.0715  0.5218 -0.1748
16560W        W32029   4.906   4.810   1.515 -0.1431  0.0314  0.2454
16561W        W32030   9.897  13.374   4.633  0.1706 -0.0900 -0.2222
16562W        W32031   2.400  14.339   5.452 -0.0235 -0.1270  0.2490
16563W        W32032   8.522  16.350  16.347  0.2145 -0.0429 -0.4699
16564W        W32033   5.215   1.926   3.365 -0.1253  0.0910  0.1598
16565W        W32034   2.068   1.127  11.963  0.3408 -0.1909  0.0832
16566W        W32035   8.078  10.326  12.998  0.2821  0.1354  0.2818
16567W        W32036   3.317   5.833  11.081  0.1199 -0.3708  0.0740
16568W        W32037  17.398   7.462  11.438 -0.4983 -0.0412  0.0150
16569W        W32038  17.678  12.251   2.722  0.1599  0.0197 -0.0705
16570W        W32039   2.633  10.791  16.575  0.0594 -0.1153 -0.0629
16571W        W32040  15.125  10.052  13.026  0.0048 -0.0690  0.0176
16572W        W32041  14.736  10.288  15.253  0.1334 -0.0341  0.0214
16573W        W32042  17.373  13.253  12.934 -0.0496 -0.1670  0.1737
16574W        W32043  12.154   3.257  13.009  0.0772  0.0268  0.0563
16575W        W32044   0.959  10.628   1.541 -0.4258  0.0744  0.0643
16576W        W32045   1.834  15.445   2.062  0.1320  0.1402  0.3057
16577W        W32046   8.234   6.948   1.450 -0.1301 -0.0762  0.1299
16578W        W32047   7.136   8.015   3.988 -0.2716 -0.2666 -0.1474
16579W        W32048  17.777  13.378   2.597  0.3255 -0.0197 -0.0303
16580W        W32049   3.945   4.101  12.544  0.1689  0.1311 -0.1722
16581W        W32050  16.743   5.879  13.647 -0.1650 -0.1317 -0.0973
16582W        W32051  11.027  14.246   0.946  0.0560  0.0163  0.1942
16583W        W32052   1.642   4.334   3.943  0.1669 -0.0613 -0.1038
16584W        W32053   9.465  12.716  12.865 -0.0385 -0.1713 -0.0964
16585W        W32054   8.580   2.270   3.382 -0.1263  0.0870  0.2344
16586W        W32055   6.408  16.464  13.941 -0.1146  0.2169  0.1372
16587W        W32056   2.897   0.380   0.965 -0.1369  0.1334 -0.3999
16588W        W32057   2.311  12.137   0.669 -0.0273  0.1366 -0.3205
16589W        W32058  17.510  11.463  15.231  0.0074 -0.1665  0.1174
16590W        W32059  15.038   6.041   1.057  0.1732  0.1246 -0.0404
16591W        W32060   4.608   0.534   0.600  0.0665 -0.1878 -0.2780
16592W        W32061   2.442  12.601   3.062 -0.0356 -0.3349  0.0436
16593W        W32062   6.078   8.181  12.841  0.0221 -0.2991 -0.0381
16594W        W32063   3.332   7.856   3.735  0.2889  0.1965 -0.1267
16595W        W32064  11.748  12.847  15.279  0.1470  0.1643  0.0356
16596W        W32065   0.689   5.604  13.100 -0.0007  0.0184 -0.0072
16597W        W32066   7.365  12.414  10.896 -0.0084  0.3633  0.0237
16598W        W32067  16.291   9.440   3.281 -0.3033 -0.1568 -0.1331
16599W        W32068   5.864  10.081  16.525 -0.1641  0.1768  0.1676
16600W        W32069   8.533   8.667   0.406 -0.0347  0.2486  0.0806
16601W        W32070  16.557   9.423   1.821 -0.2292  0.4870  0.0374
16602W        W32071   1.278   9.434   2.974 -0.1166 -0.0723  0.0474
16603W        W32072   6.425   9.413  15.676 -0.1405 -0.1341 -0.0342
16604W        W32073  17.924  12.903   4.273 -0.0715 -0.0451 -0.2064
16605W        W32074  17.348   2.916   1.966  0.2033 -0.0579  0.0991
16606W        W32075   8.146  15.833   6.450  0.1127 -0.3421 -0.0882
16607W        W32076  13.078   5.059  14.930  0.1973 -0.3507 -0.3495
16608W        W32077   2.447   0.549   3.207 -0.0324  0.0698 -0.2311
16609W        W32078   0.184   7.609  14.829 -0.1834 -0.0467  0.0929
16610W        W32079   5.261   7.112   5.308 -0.0159 -0.0876 -0.0968
16611W        W32080  16.513   1.573   4.887  0.1025  0.0102  0.1523
16612W        W32081   0.167   1.123  13.101  0.1566 -0.1439 -0.0553
16613W        W32082  14.315   8.934  14.196 -0.0933 -0.2799 -0.0241
16614W        W32083   7.127   7.385  13.681  0.1206  0.2096  0.0817
16615W        W32084   4.070   0.934  15.497  0.3542  0.1997  0.1135
16616W        W32085  14.088   5.075  10.882  0.2478  0.0948 -0.2646
16617W        W32086  10.308   0.221   0.030 -0.2927  0.2572 -0.3574
16618W        W32087  17.554  17.408   4.628  0.1022 -0.3729 -0.1225
16619W        W32088  16.543  16.690   1.340  0.0791 -0.1548  0.0902
16620W        W32089  10.076   4.215  16.363 -0.0204 -0.1900  0.1891
16621W        W32090  16.479  13.750  16.400  0.0521 -0.1288  0.0861
16622W        W32091   4.813   2.890   4.389 -0.0744 -0.0101 -0.0009
16623W        W32092   2.902  17.948   1.865 -0.3588 -0.1338 -0.1188
16624W        W32093   5.276   7.369   1.096 -0.0330 -0.3653  0.1604
16625W        W32094   3.349   6.390  10.161 -0.0163  0.0947 -0.0399
16626W        W32095  16.186  17.203   4.054  0.0174  0.1351  0.0662
16627W        W32096  10.212  14.951   0.055 -0.0394 -0.0561 -0.2774
16628W        W32097   0.586  13.421   5.430  0.4418  0.1439  0.1891
16629W        W32098   5.672  16.686  16.404 -0.2052 -0.0941 -0.3443
16630W        W32099   0.675   0.894  14.280 -0.1620 -0.1906 -0.1709
16631W        W32100  16.619   5.866  15.490  0.0007 -0.1314 -0.1102
16632W        W32101  14.361   9.664  15.806 -0.2103  0.0398  0.1386
16633W        W32102  12.099  11.965  13.156  0.4058 -0.1589  0.0903
16634W        W32103  16.300  12.939  11.395 -0.0062 -0.1255  0.2740
16635W        W32104  11.055   5.730  14.643  0.1764  0.3549 -0.0525
16636W        W32105   1.119   3.817  13.384 -0.1696 -0.0430  0.0030
16637W        W32106   3.255   7.998  15.462  0.0848 -0.2566  0.1769
16638W        W32107   5.140  11.514   0.145  0.1654  0.0031  0.1101
16639W        W32108   2.382  15.425   5.141 -0.2397  0.1694  0.0233
16640W        W32109  10.836   0.355   3.134 -0.0294  0.1435  0.1208
16641W        W32110  10.601  16.728  11.866 -0.1444  0.1155  0.0347
16642W        W32111  17.392   1.367  11.406  0.0051 -0.2420 -0.4105
16643W        W32112   7.579   3.906   1.023  0.1151 -0.0076 -0.0248
16644W        W32113   4.344  13.758   5.965  0.0150 -0.3511  0.2238
16645W        W32114   1.559   1.888   2.031 -0.1145  0.2919  0.0638
16646W        W32115  15.827   6.552   0.535  0.3891  0.1550  0.4544
16647W        W32116  13.515  16.038   0.998  0.1351 -0.1190 -0.1444
16648W        W32117   0.341   9.115   3.024 -0.1368 -0.0106  0.0615
16649W        W32118  11.428   0.087   1.508 -0.3751 -0.2419 -0.2635
16650W        W32119  12.596  15.785   1.218  0.3943 -0.0137 -0.2173
16651W        W32120  11.617  17.639  14.865  0.0002 -0.1820 -0.1644
16652W        W32121  17.811   9.904   4.451 -0.1515 -0.2565  0.2611
16653W        W32122   6.457   4.340  15.949 -0.0699 -0.3597  0.0621
16654W        W32123  11.894  11.833  15.495  0.1507  0.2752 -0.3787
16655W        W32124   1.190  15.092  12.005  0.0725 -0.0824 -0.1182
16656W        W32125  17.478   2.694   0.789 -0.1563 -0.2164  0.0754
16657W        W32126  16.591  13.903  12.590  0.1730  0.0085  0.1933
16658W        W32127   1.512   4.357   2.318  0.0467  0.2525 -0.2987
16659W        W32128  11.377   7.726  15.607  0.1187  0.2233  0.0624
16660W        W32129  17.195   4.404  10.820 -0.2534 -0.3519  0.2814
16661W        W32130  12.629  11.448  11.644  0.1917  0.2770  0.1158
16662W        W32131   9.013   1.950   1.345 -0.2038 -0.0644  0.1995
16663W        W32132  11.062  11.803   5.339 -0.0511 -0.1506  0.1182
16664W        W32133   8.384  14.147   0.168  0.1906  0.6270  0.2415
16665W        W32134   6.506  13.333  10.823 -0.1514  0.0489 -0.0926
16666W        W32135   6.233  16.732   1.220  0.0897  0.1370 -0.0575
16667W        W32136   1.227   0.854  15.770 -0.1062  0.0856  0.1078
16668W        W32137  10.332   8.519  12.574 -0.0180 -0.1871 -0.0652
16669W        W32138  13.532   6.236  12.798  0.0194 -0.2117 -0.0082
16670W        W32139  16.941  15.634   2.105 -0.2926 -0.1601 -0.3693
16671W        W32140  17.695   0.687  15.968  0.1153 -0.0735  0.3262
16672W        W32141   6.667  12.526  11.819  0.1381 -0.1696  0.3020
16673W        W32142  11.059  12.295   5.148  0.0129  0.3820  0.1226
16674W        W32143   1.185   8.354  15.115  0.0564  0.1874  0.1098
16675W        W32144  11.495  12.133   5.402 -0.0170  0.0416 -0.1430
16676W        W32145  16.117   8.619   3.472  0.2117  0.0547  0.1909
16677W        W32146   0.841  15.837   0.748  0.0940  0.0348  0.0533
16678W        W32147  10.834   1.903   0.820 -0.2326 -0.1044  0.0242
16679W        W32148   9.201  11.121  13.952  0.0212  0.1333 -0.0072
16680W        W32149  15.257  15.481   3.514 -0.2466  0.0265  0.0922
16681W        W32150   6.596   9.152   2.651 -0.1408  0.0250  0.0216
16682W        W32151   4.549   9.102   2.428  0.2583 -0.1540 -0.2269
16683W        W32152   4.052  16.585  10.702  0.0021  0.0530 -0.1008
16684W        W32153   5.739   4.924  12.390 -0.2990 -0.1867  0.0108
16685W        W32154   3.168   3.818  14.401  0.0294  0.2222 -0.2101
16686W        W32155   3.133  13.784  15.586  0.0356 -0.0973 -0.1792
16687W        W32156   3.117   6.468   5.676 -0.2530 -0.1406 -0.0074
16688W        W32157   9.976  11.230  12.709  0.1042  0.2694 -0.1072
16689W        W32158  10.354   1.968  14.347  0.3508 -0.3928  0.1019
16690W        W32159   6.535  12.054   1.432  0.2619 -0.0528  0.0960
16691W        W32160  10.700   9.540   4.137  0.3295  0.2074  0.1738
16692W        W32161   7.391   0.314  11.823 -0.1874 -0.2185  0.0136
16693W        W32162   8.174   6.345  14.100 -0.0633  0.1196 -0.1034
16694W        W32163   3.269   7.942   2.825  0.0767  0.0471 -0.1122
16695W        W32164  11.815   2.135   2.597 -0.1033 -0.0508  0.1725
16696W        W32165  10.567   4.935   4.442  0.1917 -0.1850  0.1636
16697W        W32166   0.714  15.855  16.418 -0.1870 -0.0189 -0.1966
16698W        W32167   6.826   5.977   1.482  0.0224  0.0717  0.0572
16699W        W32168   1.390  14.036  12.887  0.0667 -0.1876  0.0253
16700W        W32169   3.940   5.854  12.144 -0.0859 -0.0804 -0.0397
16701W        W32170   3.780  13.920  13.006  0.0098  0.1080 -0.1720
16702W        W32171  13.116   9.231  16.498  0.1028  0.0317  0.1493
16703W        W32172   2.058   5.265  12.456 -0.0539  0.0276  0.1442
16704W        W32173  17.842   5.219   2.796  0.0661 -0.0594  0.1989
16705W        W32174  14.405   1.272  14.522  0.2095 -0.0395 -0.0100
16706W        W32175   0.470   8.115   0.941 -0.0522 -0.0536  0.0387
16707W        W32176   6.819  12.917   0.572  0.0939 -0.0012  0.2775
16708W        W32177   5.120   0.066  13.721  0.0184 -0.1354  0.3685
16709W        W32178  14.809   8.111   4.493 -0.0278  0.0546  0.1131
16710W        W32179   2.627  16.618   6.780  0.1296  0.3306  0.0215
16711W        W32180   3.820   9.737   2.493  0.2411  0.3361  0.3354
16712W        W32181   6.729   5.549   6.459 -0.3417 -0.0532  0.2631
16713W        W32182   7.947  17.365   1.647 -0.0188 -0.2085 -0.1936
16714W        W32183  17.643   0.120  13.342  0.0922 -0.0585  0.2655
16715W        W32184   7.711   0.978  14.359  0.1464 -0.0847 -0.0040
16716W        W32185  11.288   7.955  16.106  0.1530  0.0914  0.2093
16717W        W32186   9.063   5.672  12.267 -0.1606  0.0129  0.1377
16718W        W32187   8.105  12.212   2.683  0.1228  0.0354 -0.0466
16719W        W32188   8.550  14.117   3.000  0.0536 -0.1510  0.3604
16720W        W32189  15.995   7.800   3.505  0.0116 -0.0793  0.0179
16721W        W32190   4.721   5.421  10.996  0.1775  0.1955  0.0598
16722W        W32191  17.488   9.402   3.042 -0.0620 -0.3404 -0.1042
16723W        W32192  10.741   0.603   1.566 -0.1628 -0.0126 -0.2695
16724W        W32193   1.288   0.066  11.429  0.2769  0.0572 -0.2489
16725W        W32194   6.622   2.539  10.843  0.1450  0.1845 -0.2236
16726W        W32195   9.250  17.413   4.097  0.3236 -0.0778 -0.1080
16727W        W32196   3.395  12.460   5.734  0.0541  0.0547 -0.1518
16728W        W32197  12.534   5.474   4.635  0.0027 -0.0094 -0.0471
16729W        W32198  12.206  12.940   0.677  0.1320  0.0511 -0.3083
16730W        W32199   9.955  10.722  13.365  0.1916  0.5283  0.3042
16731W        W32200   5.473   1.131   6.301  0.1824  0.0720 -0.2130
16732W        W32201   2.467   2.798   3.580  0.1275 -0.1528 -0.2022
16733W        W32202   5.826  12.426   4.601  0.2338  0.1863  0.2038
16734W        W32203   0.278  11.116  16.263 -0.0774  0.2527  0.2352
16735W        W32204   9.845  16.584  15.548 -0.0408 -0.0657 -0.0826
16736W        W32205  11.149  14.580   6.038  0.0089 -0.0981  0.0570
16737W        W32206   2.340   0.075  15.067 -0.1557 -0.0806 -0.0768
16738W        W32207   8.518   6.874  14.017  0.1416  0.0934 -0.2623
16739W        W32208  15.202   5.752   4.308  0.3364 -0.0971 -0.2453
16740W        W32209  17.151  11.196  15.482 -0.3562 -0.0545  0.1374
16741W        W32210  10.337   5.581   3.478  0.0936 -0.0389  0.4703
16742W        W32211  11.807   9.570  15.158 -0.4441  0.0943 -0.1875
16743W        W32212   8.527   8.336   0.026  0.0975  0.0180  0.0366
16744W        W32213  13.070  16.201   3.700 -0.0803  0.1224 -0.3241
16745W        W32214  10.315   4.996  14.010 -0.1671 -0.2153 -0.0257
16746W        W32215   3.430  12.621  11.464  0.0630 -0.1817 -0.1764
16747W        W32216  14.760  13.716   2.004 -0.1037 -0.1076 -0.2072
16748W        W32217  13.359   9.410   5.807 -0.1382  0.1154  0.3384
16749W        W32218   4.627  13.994  14.001 -0.1104 -0.1390  0.0296
16750W        W32219  17.668   8.926   4.077  0.5087 -0.0401 -0.1838
16751W        W32220  10.503   2.791   3.596 -0.0122 -0.0338  0.2768
16752W        W32221   1.960   5.349   2.570 -0.0356  0.1039 -0.1082
16753W        W32222  14.010   7.180  15.241 -0.0594 -0.4989 -0.3000
16754W        W32223  17.389   5.346  16.009  0.3109  0.0914  0.0945
16755W        W32224   7.250   2.400  14.546 -0.2656 -0.0117  0.0243
16756W        W32225   3.438   5.837  15.983  0.1278 -0.2065  0.1464
16757W        W32226   8.455  16.875   4.341 -0.0815  0.3386  0.0105
16758W        W32227   8.903   5.135  15.555  0.0296 -0.3171  0.0468
16759W        W32228   6.190   6.628  15.618  0.1996  0.3399  0.1486
16760W        W32229   6.447   1.369   2.681 -0.0665 -0.1681  0.0659
16761W        W32230   5.836  15.319  13.049  0.3073  0.0493  0.2202
16762W        W32231  14.796   3.082  10.716  0.2773  0.2927  0.1019
16763W        W32232   0.080   2.286   0.921  0.2578 -0.2314 -0.1434
16764W        W32233   3.033   8.697   3.977 -0.0077  0.1073 -0.0655
16765W        W32234   4.157  14.026  14.791 -0.0754 -0.1007  0.0933
16766W        W32235   6.412  11.097   3.975 -0.3632  0.1386 -0.2420
16767W        W32236   9.448   7.797   1.360  0.0421  0.2275 -0.3219
16768W        W32237   5.011   6.974   3.432  0.1865  0.0498 -0.0945
16769W        W32238   3.075   9.703  16.382  0.0587  0.1849  0.1742
16770W        W32239  11.082  13.187  10.651  0.1126  0.0947 -0.0685
16771W        W32240   5.048   8.048  12.950 -0.0591 -0.2180 -0.4207
16772W        W32241  13.225  15.750   4.022 -0.0991 -0.0226 -0.0488
16773W        W32242   1.550  10.354  14.713  0.0712 -0.2127 -0.0764
16774W        W32243  16.548   3.617  11.677  0.0634  0.0702 -0.4118
16775W        W32244  16.996   5.479   1.583 -0.2309 -0.0407  0.1735
16776W        W32245  10.715  13.163   0.546 -0.1112  0.1198 -0.0691
16777W        W32246  14.709   2.520   3.482  0.2214 -0.1029 -0.0791
16778W        W32247   9.889   1.498   4.081  0.1011 -0.2829 -0.2320
16779W        W32248  13.445  14.246   0.904  0.0154  0.2388  0.2391
16780W        W32249  15.848   8.110  13.053 -0.1285  0.0910 -0.0889
16781W        W32250  16.466   9.641  16.210  0.1838  0.1689 -0.2829
16782W        W32251  11.860   1.725   2.016  0.0702 -0.1000  0.1877
16783W        W32252   8.145   9.951   5.630  0.0328 -0.0552 -0.1005
16784W        W32253   4.171  16.344   5.813  0.0030 -0.2248 -0.1545
16785W        W32254   5.612  17.757   3.241  0.2485 -0.1357  0.1313
16786W        W32255   0.450   5.054  16.540  0.0375  0.0649  0.1710
16787W        W32256   3.454   3.855   1.755  0.0100  0.0009  0.4659
16788W        W32257  12.103  11.633   4.665  0.1503  0.1268 -0.0908
16789W        W32258  15.870  13.713  13.177 -0.0311 -0.0065 -0.0524
16790W        W32259   2.393   9.542   4.621 -0.0829 -0.0729  0.0020
16791W        W32260   9.951   4.748  12.563 -0.1799 -0.0100 -0.1409
16792W        W32261   4.659  15.689  11.315 -0.2366  0.1264 -0.0435
16793W        W32262  11.120  10.229   1.472  0.2250 -0.1566  0.0287
16794W        W32263  12.540  16.768  15.020  0.3347  0.1176 -0.1453
16795W        W32264  10.842  17.335  15.782  0.1064 -0.0220 -0.0585
16796W        W32265   1.899  14.316   3.632  0.1638 -0.0272 -0.0085
16797W        W32266   3.404  10.427   0.489  0.1089  0.1493  0.0648
16798W        W32267  10.363  14.109  11.522  0.3270 -0.2856 -0.1877
16799W        W32268  10.644  15.568  12.775  0.1601  0.2059 -0.1770
16800W        W32269   8.889   0.014   0.345  0.1480  0.1139 -0.1707
16801W        W32270  17.811   0.205  15.911  0.0804  0.1142  0.2033
16802W        W32271   5.037  10.835  12.995  0.1502  0.1010 -0.1740
16803W        W32272  14.553  16.500   2.962 -0.0775  0.7519  0.0136
16804W        W32273  11.575   6.441   1.411  0.0445  0.0672  0.3213
16805W        W32274  12.495   1.298   6.087 -0.0823  0.3207 -0.1612
16806W        W32275   7.804   6.487  13.851  0.1349  0.2883  0.3165
16807W        W32276   3.584   5.174  11.841  0.0901  0.0915 -0.0153
16808W        W32277  16.846  12.509   0.334  0.1931  0.2549  0.1094
16809W        W32278   4.887   2.883   5.143  0.0765 -0.2871  0.0308
16810W        W32279   6.785   8.811   0.086  0.1661 -0.2970 -0.1976
16811W        W32280   4.624  15.135   4.006 -0.0764 -0.1726 -0.1214
16812W        W32281   0.553  13.118   3.008  0.0220  0.2233 -0.0484
16813W        W32282   9.551  11.323   3.955 -0.0412 -0.1771 -0.1361
16814W        W32283   0.490  15.980   4.309 -0.2340 -0.0460  0.2786
16815W        W32284   9.266  11.843  15.000 -0.0029 -0.0657 -0.0424
16816W        W32285   5.253   6.231  14.381  0.1851 -0.3189 -0.1354
16817W        W32286  15.378   3.019  11.968  0.0076  0.4512 -0.0729
16818W        W32287  13.412   1.901  16.033  0.0810 -0.1647 -0.3915
16819W        W32288  13.752  17.510  16.273 -0.1522 -0.2908 -0.0479
16820W        W32289   0.929  13.398   1.765  0.3242  0.1273  0.1029
16821W        W32290   4.029  17.407  14.217 -0.3627 -0.2214 -0.1344
16822W        W32291   0.515  14.601   4.519  0.0767 -0.2033 -0.1322
16823W        W32292   4.895   8.128   3.666 -0.1134 -0.2871  0.0016
16824W        W32293   4.741   5.727  11.702  0.2375 -0.2302 -0.1065
16825W        W32294  13.092  13.932  16.227 -0.4831 -0.2266  0.1110
16826W        W32295  12.544   4.451  12.814 -0.1906 -0.0591 -0.3635
16827W        W32296  14.203   7.569   0.202  0.1217  0.0857 -0.0120
16828W        W32297  12.494   8.949   9.993  0.2893 -0.1971 -0.0178
16829W        W32298  10.452   1.905   1.979  0.2420  0.1624 -0.0352
16830W        W32299   6.505  16.748   1.679  0.1151  0.0424 -0.0794
16831W        W32300  10.622   0.562   6.167 -0.1073 -0.3201 -0.1901
16832W        W32301   7.073  10.487  16.048 -0.1595 -0.3571  0.0307
16833W        W32302   0.532  12.209   4.848 -0.1815 -0.2830 -0.3183
16834W        W32303  14.927   7.963  10.395 -0.0977  0.0224  0.2164
16835W        W32304   0.770   8.743   1.744  0.0651  0.2868 -0.0458
16836W        W32305   3.798  17.556   0.929  0.0062  0.0393  0.1375
16837W        W32306  15.173   8.782   3.199 -0.1788  0.0194 -0.1954
16838W        W32307  12.932  12.593   3.769  0.0300 -0.0062  0.0108
16839W        W32308   8.873   3.566   4.534 -0.3572  0.0047  0.1418
16840W        W32309  16.055  12.533  15.973 -0.0506 -0.0080 -0.0105
16841W        W32310   4.607   5.660   0.149  0.3377 -0.2163 -0.2051
16842W        W32311   0.904  12.739  14.231 -0.0080  0.2276  0.0043
16843W        W32312  10.705   4.311   1.762  0.0468  0.0367 -0.0332
16844W        W32313   1.564  15.637  16.223 -0.1604  0.0096  0.1819
16845W        W32314   7.385  10.961   3.796 -0.0568  0.1770  0.0610
16846W        W32315  11.748   8.737   1.960  0.1132 -0.0025 -0.0843
16847W        W32316  14.361   1.402   0.416  0.1121  0.2179  0.0856
16848W        W32317  11.886   6.471  11.823 -0.1032  0.2072  0.0964
16849W        W32318   0.040   4.923   1.242  0.2278 -0.1163 -0.0648
16850W        W32319   3.735  13.444  13.161  0.0947 -0.0707 -0.3510
16851W        W32320   4.279  15.087  12.765  0.0267 -0.5259  0.4625
16852W        W32321   5.529  14.084  10.869 -0.0529 -0.1462 -0.1572
16853W        W32322  10.419  12.891   1.918 -0.2068  0.0573 -0.0076
16854W        W32323  15.817   4.775  11.964 -0.3157 -0.1757  0.1547
16855W        W32324   0.289   9.068  10.679  0.1683 -0.0008  0.1213
16856W        W32325   9.088   1.451  14.020  0.5368 -0.0124 -0.1199
16857W        W32326   3.363   1.978   3.237 -0.3337  0.1106  0.1376
16858W        W32327   2.623   8.557   1.138  0.1626  0.0372  0.0224
16859W        W32328   5.551   7.249   2.656 -0.1099 -0.1259  0.0527
16860W        W32329   3.777   2.159  13.189  0.1175 -0.1042 -0.1219
16861W        W32330   3.949  11.573   3.426 -0.1051  0.0600  0.1550
16862W        W32331   5.651   7.951  16.423  0.0192 -0.1030  0.0652
16863W        W32332  14.386  13.881  12.655  0.3973  0.2769  0.1813
16864W        W32333   0.144   5.237   0.791  0.2551  0.1261 -0.0397
16865W        W32334  11.103  11.512  15.018 -0.0005  0.3970  0.0570
16866W        W32335  10.151  13.261  15.357  0.0083  0.1434  0.3122
16867W        W32336  17.236  17.751  12.980  0.0996  0.1376 -0.1699
16868W        W32337  13.076   4.210  12.111 -0.0391  0.1908  0.0889
16869W        W32338  17.013  16.439   1.436 -0.1821 -0.2714  0.2911
16870W        W32339   8.559  15.537   4.467  0.3391 -0.1683 -0.2484
16871W        W32340  11.912  11.507  12.951 -0.2358  0.1182  0.2351
16872W        W32341   5.696  14.427   3.855 -0.1192 -0.2882  0.1541
16873W        W32342  16.304   5.357   5.040 -0.0432  0.0222  0.0253
16874W        W32343  14.465  10.577  11.506  0.1321  0.0742  0.0607
16875W        W32344   6.638   4.492  11.980 -0.0688 -0.1410 -0.0053
16876W        W32345   0.926  13.712   2.906 -0.1335 -0.0935 -0.0557
16877W        W32346   2.780   7.137   2.740 -0.0933  0.3618  0.0319
16878W        W32347   4.928  11.811  11.277  0.2466 -0.0730  0.2386
16879W        W32348  16.425   5.116  16.450 -0.2853  0.1689  0.1845
16880W        W32349   4.882   7.197   1.758 -0.1289  0.0206 -0.1952
16881W        W32350  13.721   9.412  13.092  0.3369 -0.0176 -0.1795
16882W        W32351   5.338   5.516   5.648  0.3283 -0.0475  0.3047
16883W        W32352   8.305   9.880   2.632  0.0494 -0.0405 -0.1154
16884W        W32353  10.401   5.025  13.182 -0.1600  0.1549 -0.1072
16885W        W32354  10.339   2.590   1.100 -0.0777 -0.0814  0.0182
16886W        W32355  12.564   7.287   1.869  0.0518  0.0303  0.0211
16887W        W32356   4.139   2.934   1.752 -0.0962 -0.0925  0.3568
16888W        W32357  11.597  10.822  11.807  0.1084 -0.2240 -0.0005
16889W        W32358  15.506  15.684  16.100  0.0167  0.2249  0.0977
16890W        W32359   5.958   3.665  13.855  0.1373  0.3640  0.0091
16891W        W32360  10.908  16.074  15.974 -0.1873  0.1280  0.0735
16892W        W32361   9.808   7.076  16.554 -0.2356  0.0234  0.0458
16893W        W32362  10.231   1.786   2.569 -0.3230  0.2332  0.0432
16894W        W32363  14.714   1.713  11.310  0.2093  0.1564  0.1528
16895W        W32364   4.082   5.893  14.470  0.0639  0.1494  0.0618
16896W        W32365  17.354  10.045  14.012 -0.0521  0.0355 -0.0866
16897W        W32366   1.924   1.381  12.821 -0.0640  0.1203 -0.0518
16898W        W32367   9.200   4.432  12.851 -0.0158 -0.2780  0.2151
16899W        W32368  16.815   8.545  10.721 -0.1317  0.2619 -0.1314
16900W        W32369  13.821  15.178  11.971 -0.1576 -0.4107 -0.0934
16901W        W32370   9.529  16.867   2.394  0.5442  0.2169  0.2386
16902W        W32371   0.585   7.688   4.852  0.1600 -0.1036  0.1766
16903W        W32372  11.643  15.742  12.302  0.0755 -0.4001  0.2265
16904W        W32373  13.059  13.449  11.774  0.0132  0.1487  0.2210
16905W        W32374   2.105  14.750   1.567 -0.4576 -0.2479  0.0515
16906W        W32375  12.925   8.803  15.728  0.1427 -0.2062 -0.0642
16907W        W32376   9.477  11.133  15.270 -0.2751  0.2066 -0.1952
16908W        W32377  16.677  13.607  14.442  0.0792 -0.4465 -0.1636
16909W        W32378  10.110   2.490   2.066 -0.1601 -0.0602  0.2529
16910W        W32379  14.146   2.348  15.899 -0.0401  0.2440  0.2729
16911W        W32380  12.683  12.489   3.291  0.1480  0.0068  0.0578
16912W        W32381  17.009   4.534  12.807  0.1704  0.0663 -0.1978
16913W        W32382  17.517  16.243   1.661 -0.0302 -0.2526  0.1511
16914W        W32383  12.221  15.256  16.502 -0.2767 -0.3902  0.2069
16915W        W32384   1.451   6.797  12.567  0.2066 -0.1033 -0.2106
16916W        W32385  16.293   6.525   3.070  0.0134  0.0657 -0.1127
16917W        W32386  16.533  14.899   2.125 -0.1852 -0.2072  0.1477
16918W        W32387  14.156   7.524   4.305 -0.2807 -0.1574 -0.2980
16919W        W32388   0.245   1.861   4.005  0.2619  0.3576 -0.0093
16920W        W32389   7.759   4.266  15.760  0.0050 -0.1306 -0.2536
16921W        W32390  13.811   8.700  12.291  0.1114 -0.1434 -0.1628
16922W        W32391  11.468   2.075   2.137  0.0888  0.2291  0.0791
16923W        W32392   4.509  11.809  15.280  0.0755  0.0005 -0.2147
16924W        W32393   8.970   8.704  11.021 -0.2427  0.0451 -0.2743
16925W        W32394   7.669   3.398   1.414 -0.1525 -0.0284  0.1040
16926W        W32395   0.733   2.834   4.440  0.1141  0.0811 -0.1067
16927W        W32396   2.591   3.829  12.334 -0.1230  0.0450 -0.3033
16928W        W32397   4.461   5.427  15.282  0.0385  0.1730  0.3077
16929W        W32398   5.299  13.178   4.544 -0.2127  0.1531 -0.1241
16930W        W32399   5.716   0.022   2.784  0.2413 -0.0457  0.0317
16931W        W32400  14.787  11.771  15.258 -0.1128 -0.1296 -0.1433
16932W        W32401  17.662  11.972   0.680  0.0358 -0.2521  0.0213
16933W        W32402   5.382  16.157   1.465 -0.0562  0.0758 -0.1950
16934W        W32403  16.651   8.277  15.045  0.1709  0.0129 -0.2013
16935W        W32404  13.871   2.168   4.174  0.0018 -0.2939  0.1147
16936W        W32405  14.853  14.026  15.686 -0.0958 -0.2021 -0.3192
16937W        W32406   1.185  17.164   0.385  0.2797 -0.1611  0.0633
16938W        W32407  14.097   9.398   3.359 -0.0065 -0.2083  0.0866
16939W        W32408  15.253   1.745  12.659 -0.0113  0.0438 -0.2561
16940W        W32409   9.877  15.073   5.718 -0.0249  0.1129 -0.0808
16941W        W32410  11.828   0.275   6.528 -0.1941  0.0051  0.2852
16942W        W32411  17.777   0.543  12.138 -0.1671  0.0602 -0.1057
16943W        W32412   5.231  13.494   4.947  0.2171 -0.0176 -0.2574
16944W        W32413   9.341   5.374   0.440 -0.2458  0.1411  0.3568
16945W        W32414   5.411   2.128  12.240 -0.1409  0.1607  0.0387
16946W        W32415  13.326  10.870  15.354 -0.0033  0.2989 -0.0257
16947W        W32416  10.740  13.489   0.110 -0.0041 -0.3260  0.0554
16948W        W32417  14.256  13.374  11.204  0.1088  0.0306 -0.0048
16949W        W32418   1.747   5.784  13.162  0.1079 -0.4496  0.0500
16950W        W32419   2.248  15.040   1.963 -0.2154 -0.2955 -0.2551
16951W        W32420  13.014   8.916  13.461 -0.0423  0.2397 -0.2885
16952W        W32421   1.514   9.382   3.533 -0.1636  0.0882 -0.0196
16953W        W32422   2.802   0.663   2.874 -0.1516  0.0755 -0.2056
16954W        W32423   1.270   7.165  13.759  0.1864 -0.1938 -0.2679
16955W        W32424   0.831   0.541  16.585 -0.1807 -0.1653 -0.0953
16956W        W32425   9.339   6.088   5.800  0.1715 -0.1302  0.0500
16957W        W32426  16.944  17.098  12.006  0.1355 -0.1173  0.1379
16958W        W32427  13.229  13.901  12.513  0.1866  0.1105 -0.0617
16959W        W32428   3.671  11.849  13.238 -0.1991  0.0338  0.1442
16960W        W32429   4.752  12.344   5.432  0.3157  0.1201 -0.2057
16961W        W32430   0.135   1.488  16.285 -0.0361  0.0179  0.1948
16962W        W32431  17.978  16.649   3.443  0.2031  0.1225 -0.0892
16963W        W32432  16.082  14.981  16.347 -0.2065  0.1429  0.1147
16964W        W32433  14.423   6.494  10.902  0.0896 -0.0032 -0.1377
16965W        W32434  13.417   6.545  15.028  0.2756 -0.1389  0.1054
16966W        W32435   0.222   7.768  11.278 -0.1411 -0.3190 -0.1089
16967W        W32436  16.254   0.362   0.141  0.3006 -0.0966  0.0591
16968W        W32437  15.296   4.591   3.325  0.2240 -0.0309  0.4630
16969W        W32438  14.161  12.827   4.930  0.1314  0.2264  0.1178
16970W        W32439  15.664  10.889  10.260  0.1570 -0.2988 -0.2117
16971W        W32440   1.810  16.881   5.224 -0.1360  0.0992  0.0863
16972W        W32441   1.323   3.496   0.643 -0.4018 -0.2720 -0.2598
16973W        W32442  15.492   6.341  12.410 -0.0485  0.3729  0.3265
16974W        W32443   3.074   8.226  12.612  0.2232 -0.1259 -0.1187
16975W        W32444  12.243   1.348   1.884  0.0754 -0.1679 -0.0519
16976W        W32445  10.165  10.843   0.353  0.0361 -0.0989  0.4712
16977W        W32446   9.847   1.971   3.198 -0.0078 -0.0574  0.3397
16978W        W32447   6.084  13.142   2.744 -0.0349 -0.0603 -0.3249
16979W        W32448   7.954   1.554  14.542  0.0275 -0.1356  0.0241
16980W        W32449   8.139   0.874   5.550  0.0644 -0.0214 -0.0397
16981W        W32450  15.263   9.240  10.436  0.1890  0.1481 -0.1409
16982W        W32451  13.459   0.062   2.031 -0.0679  0.2414 -0.0514
16983W        W32452  17.794  15.643   2.203  0.0120  0.0875 -0.0676
16984W        W32453   5.863  16.692  15.157 -0.0882  0.1399 -0.1209
16985W        W32454   0.784  11.692  14.326  0.1088  0.0947  0.2151
16986W        W32455   0.029  10.485  13.244  0.4607  0.0724 -0.2013
16987W        W32456   8.597  13.743   1.831  0.0104 -0.0398 -0.0377
16988W        W32457   7.050   6.140   4.996  0.1456  0.0648  0.0613
16989W        W32458  10.365   0.495  14.092 -0.1637 -0.0619  0.1329
16990W        W32459   2.918  16.855   4.224  0.2329 -0.0468 -0.0274
16991W        W32460   8.230   5.251  13.448  0.0189 -0.1226 -0.0713
16992W        W32461   8.355  17.490   2.365 -0.0480  0.0538 -0.0487
16993W        W32462   9.109   9.050   2.567  0.3010 -0.0829  0.0429
16994W        W32463  13.612  10.366   1.719  0.1559 -0.0599  0.0444
16995W        W32464  17.958  16.330  15.987 -0.0758 -0.4524 -0.0373
16996W        W32465   5.292  16.612   2.507 -0.1264 -0.3818 -0.2194
16997W        W32466   1.424   4.812   4.473  0.1696 -0.1192  0.0405
16998W        W32467  10.908  16.319  12.051 -0.0399  0.1939 -0.5438
16999W        W32468  11.507  12.159  15.777  0.0876  0.3408 -0.1224
17000W        W32469   0.597   3.799  15.382 -0.1497 -0.0856 -0.2534
17001W        W32470   5.433   7.292  15.786  0.0208  0.0498  0.1435
17002W        W32471  12.331  17.259   5.583  0.0844  0.0704 -0.1990
17003W        W32472  13.969   4.619  12.341 -0.0358  0.0098 -0.0808
17004W        W32473   6.613   1.862   1.331  0.0351 -0.0087  0.1398
17005W        W32474   9.361   4.120  15.174 -0.0218 -0.0123  0.0910
17006W        W32475  16.272  16.112   3.893 -0.1981  0.1937  0.4199
17007W        W32476   5.252   1.146   4.810 -0.2110  0.0989  0.1189
17008W        W32477  15.711   6.918   5.010 -0.0458 -0.0866  0.1931
17009W        W32478  15.608   8.460   3.160  0.2661  0.3024  0.1117
17010W        W32479   5.594  10.402   1.275  0.1627  0.0842 -0.3472
17011W        W32480   0.882   3.726  14.885 -0.2758  0.1074  0.1810
17012W        W32481   6.720   3.192  12.139  0.3637 -0.1653  0.3557
17013W        W32482  15.709   8.311   5.384  0.3520 -0.0616 -0.0991
17014W        W32483  14.640  12.556   0.117  0.1748  0.0393 -0.0180
17015W        W32484  10.021   0.995   1.074  0.0795 -0.0322  0.3261
17016W        W32485   3.288  15.423  11.746 -0.0755  0.0040  0.0660
17017W        W32486   1.013  13.043   5.258 -0.0239 -0.0874  0.1878
17018W        W32487   4.268  16.451   2.674 -0.2174 -0.2395  0.0309
17019W        W32488   1.781   9.545   5.269 -0.1207 -0.1030  0.3467
17020W        W32489   4.569   4.545  14.151 -0.0463  0.1438  0.1814
17021W        W32490   3.475   3.102  15.742 -0.2222  0.0968  0.1116
17022W        W32491  11.503  11.012   0.544 -0.2147  0.1627  0.2138
17023W        W32492  10.572   6.089  15.225  0.1835 -0.0026 -0.1786
17024W        W32493  12.091   9.646  14.352  0.2855 -0.1230  0.1463
17025W        W32494   9.504  12.401   2.819  0.0425 -0.2205 -0.1167
17026W        W32495   9.235   7.757  15.030  0.0026 -0.2222 -0.2339
17027W        W32496   2.677   9.132   4.705 -0.2194  0.3495  0.0071
17028W        W32497  12.596   3.517  13.012 -0.0288 -0.0534 -0.1932
17029W        W32498   6.737   5.363  12.873 -0.2012  0.1777 -0.0584
17030W        W32499   8.370   4.970  15.402  0.1804 -0.1522 -0.1471
17031W        W32500   9.312  17.844  14.034 -0.1923 -0.1111  0.1065
17032W        W32501  17.452   9.023   0.770 -0.1365 -0.0271 -0.1400
17033W        W32502   0.692   2.943   2.384  0.1007  0.3276 -0.1914
17034W        W32503  12.465  16.100  12.642  0.0076  0.0848 -0.1295
17035W        W32504   2.531  11.667  11.811  0.0542 -0.2721 -0.2718
17036W        W32505  16.603  10.556  14.754 -0.3171 -0.0920  0.1735
17037W        W32506  13.928   8.207   1.105 -0.1714  0.2776  0.1806
17038W        W32507  16.809  16.273  12.312 -0.2636  0.1207  0.1371
17039W        W32508   9.370  16.674  11.473  0.1195 -0.0301  0.0656
17040W        W32509   3.641  11.008  15.104  0.1195 -0.0823 -0.1756
17041W        W32510  17.773   1.815  12.425  0.2945  0.1529  0.0206
17042W        W32511  14.744  11.161   4.296 -0.1934  0.1611 -0.2438
17043W        W32512  17.095   0.681   0.238 -0.0232  0.0041  0.1114
17044W        W32513  10.971  16.240  14.013 -0.0141  0.1770 -0.0417
17045W        W32514   0.076  17.953   3.619  0.0408 -0.0218 -0.1151
17046W        W32515   4.804  11.551   4.834  0.0131 -0.2810  0.1658
17047W        W32516   3.192  12.539   0.365 -0.1121  0.1502  0.1762
17048W        W32517   4.478   5.249   3.183 -0.1764  0.0896  0.0710
17049W        W32518   5.056  17.606   2.234  0.1685  0.1432  0.1281
17050W        W32519  14.440  11.075  14.154 -0.0896 -0.1325 -0.3838
17051W        W32520   3.240  15.093  15.021 -0.0559 -0.0465  0.4104
17052W        W32521  15.066   9.937  14.534 -0.2099  0.1394  0.1520
17053W        W32522   3.939   1.208   0.466  0.1245 -0.0096 -0.0647
17054W        W32523   5.336  11.360  16.001 -0.2412 -0.1702 -0.4132
17055W        W32524   8.618   7.522   1.277 -0.2284  0.3512  0.1149
17056W        W32525  14.207   5.949   1.998  0.2081  0.3522  0.2695
17057W        W32526  17.571   5.446   3.160 -0.2715  0.4033  0.0096
17058W        W32527   2.967  16.839   5.587  0.0454 -0.1540 -0.0404
17059W        W32528  10.615   9.667   3.568 -0.0062  0.1095 -0.0952
17060W        W32529   8.842  10.537  14.770 -0.1224 -0.0341 -0.0007
17061W        W32530   4.081   5.678   3.842  0.1919  0.5174 -0.3732
17062W        W32531  11.702   1.378  14.762 -0.1240  0.0984 -0.0262
17063W        W32532  15.390   5.384   4.649 -0.1018 -0.1230 -0.2210
17064W        W32533   6.245  16.511  13.118 -0.0503 -0.0704  0.0661
17065W        W32534   5.543   8.430  15.125 -0.0513  0.2821  0.0477
17066W        W32535  15.273  16.599  13.575 -0.3241  0.0158 -0.1576
17067W        W32536   3.298   2.706   0.612 -0.1940 -0.0956  0.2542
17068W        W32537   7.635   7.353   3.914 -0.0531  0.1641  0.0215
17069W        W32538  17.508  11.286  14.435  0.0160  0.1305  0.3585
17070W        W32539   7.766  13.314   4.341 -0.0832 -0.1957  0.0134
17071W        W32540   6.557  16.863   4.686  0.2330  0.2449  0.1378
17072W        W32541  13.885   4.641   5.068  0.1372 -0.1301 -0.0032
17073W        W32542   3.706   3.743  13.457  0.1894 -0.2683  0.0473
17074W        W32543  11.377   3.436  10.902  0.0310  0.0313  0.1651
17075W        W32544  13.776   7.101   3.964 -0.0554 -0.0450  0.0207
17076W        W32545  10.791  13.664   2.250 -0.0183  0.2944 -0.0993
17077W        W32546   9.330   4.720   3.956 -0.0108  0.0450  0.1088
17078W        W32547   2.331  12.672   0.813  0.1815 -0.1756 -0.1915
17079W        W32548  12.747  15.158  12.980 -0.1955  0.2037 -0.0476
17080W        W32549  17.576   7.233   2.547  0.0463  0.0672 -0.0196
17081W        W32550   5.156  11.384   5.215  0.0261  0.2265 -0.1448
17082W        W32551  14.175   5.973  13.314  0.0546 -0.2945 -0.1008
17083W        W32552   8.777  11.053  10.854  0.0754 -0.2733 -0.1248
17084W        W32553   9.501  14.846  12.133 -0.3170 -0.0551 -0.1244
17085W        W32554   4.584  17.343  11.222  0.2797  0.0830 -0.0067
17086W        W32555   2.770   1.820   6.106  0.1612 -0.3672  0.0459
17087W        W32556   5.911   6.715   0.928 -0.0448 -0.2212 -0.0835
17088W        W32557  11.288  11.402   0.272  0.2954  0.1049 -0.0015
17089W        W32558  12.592  12.360  11.451  0.1952 -0.0953 -0.0309
17090W        W32559   3.295  12.408   3.454 -0.0326  0.1252 -0.1242
17091W        W32560   2.288   2.520   2.002  0.0552 -0.0798 -0.0532
17092W        W32561  12.783   8.818  14.449 -0.1676 -0.0322  0.2615
17093W        W32562   9.393  12.953   2.654 -0.3045 -0.2677 -0.1019
17094W        W32563  14.849   1.239   0.834 -0.3208 -0.3326  0.1401
17095W        W32564   5.187   1.845  14.587 -0.0713  0.1114 -0.0681
17096W        W32565  13.811  10.103   3.029 -0.0960 -0.2965 -0.2702
17097W        W32566   5.220  10.773  15.127 -0.0650 -0.2789  0.0089
17098W        W32567  17.317   9.269  15.777  0.0459  0.2079  0.3599
17099W        W32568   0.045  17.852   1.383 -0.1733  0.0644  0.2578
17100W        W32569  13.200  15.499   0.434 -0.1267  0.2250  0.0180
17101W        W32570  12.634  11.737   0.597  0.1338  0.0345  0.1578
17102W        W32571   0.656   0.394  14.404  0.3020  0.1577 -0.0377
17103W        W32572   8.481  16.881  15.485 -0.2402  0.1748  0.2024
17104W        W32573   4.565   6.148  12.670 -0.0194 -0.0118  0.0620
17105W        W32574   7.408   0.166   3.831  0.0686 -0.1854  0.0228
17106W        W32575   9.835   2.606   0.105 -0.2520 -0.0329  0.0001
17107W        W32576   3.389  17.562   0.135 -0.2197  0.3320  0.2829
17108W        W32577  12.209  15.045   5.750  0.1241  0.0195 -0.1188
17109W        W32578   4.241  17.329   0.821  0.1197 -0.0604 -0.1323
17110W        W32579  10.702   8.463  12.188 -0.0042 -0.1438  0.0020
17111W        W32580   5.398  17.517  14.512  0.0583 -0.0812  0.1215
17112W        W32581  13.683  10.853   5.761  0.0158  0.0338  0.0036
17113W        W32582  10.083  10.250   5.896 -0.0006  0.0841 -0.0933
17114W        W32583  11.273   3.024  15.033  0.1828  0.0602  0.0247
17115W        W32584  16.847   6.313   2.735  0.1748  0.1523 -0.0727
17116W        W32585  14.812  15.271   3.525 -0.1322 -0.3012  0.0577
17117W        W32586  17.712   3.444  12.168 -0.2832  0.3288 -0.2530
17118W        W32587  11.808  17.769   4.583 -0.0616 -0.1230  0.2183
17119W        W32588   7.891  16.846  14.537 -0.0897  0.2013 -0.1311
17120W        W32589  12.358  16.908  12.511 -0.0222  0.0204  0.0533
17121W        W32590  14.152  15.133  13.778 -0.1389  0.2301 -0.1822
17122W        W32591   5.171   0.652   1.382  0.2240 -0.1653  0.2106
17123W        W32592  14.190   2.715   1.785 -0.1374 -0.3238 -0.0278
17124W        W32593   8.744   5.248   2.917 -0.0466 -0.0966 -0.0571
17125W        W32594   3.346  13.248  14.992  0.1094  0.3576  0.0577
17126W        W32595   3.199  10.836  15.444 -0.4042  0.1550 -0.1833
17127W        W32596  15.385   7.088   0.074  0.0481 -0.1138  0.0815
17128W        W32597  16.773   6.785   4.322  0.4329  0.0575 -0.1578
17129W        W32598   6.264   5.446  14.785 -0.2609 -0.1511 -0.3152
17130W        W32599  13.449   2.803  15.408  0.4006  0.4668 -0.1003
17131W        W32600   6.809   9.942  13.149  0.1874 -0.1861 -0.1940
17132W        W32601   8.147   0.012  12.713  0.1447  0.1300 -0.2062
17133W        W32602   9.606   8.521   4.187 -0.0309 -0.2091  0.1258
17134W        W32603   5.379   0.843  10.715 -0.2024 -0.1776 -0.2569
17135W        W32604  12.553   8.038   5.017  0.0268 -0.0203 -0.0185
17136W        W32605  12.028   9.558   2.902 -0.1285  0.0083  0.1606
17137W        W32606  14.679  14.830  14.804  0.1367 -0.0092  0.1102
17138W        W32607  10.990   8.811  14.313  0.1439  0.1507 -0.1002
17139W        W32608   4.453  16.807  15.683  0.0384  0.1982 -0.3286
17140W        W32609   8.848   2.477   5.303  0.0167  0.0840  0.0405
17141W        W32610   9.531  14.471  10.645  0.0355 -0.2014 -0.0613
17142W        W32611   9.193   9.055  16.600 -0.0273 -0.0793 -0.3254
17143W        W32612   2.156   2.775  12.571  0.0310  0.0333  0.1319
17144W        W32613   7.173  14.337   4.380  0.3827 -0.0055  0.1629
17145W        W32614  14.053   1.574   4.989  0.0352  0.1676 -0.2639
17146W        W32615  10.191   9.198  13.856  0.0570 -0.0599  0.0650
17147W        W32616   2.448   5.207   1.114 -0.1848  0.3513  0.0344
17148W        W32617  17.872   1.348  12.657  0.0891  0.1488  0.1869
17149W        W32618  15.982   7.746   2.632  0.2209  0.0854  0.0151
17150W        W32619   4.650  13.462  14.161  0.3766 -0.1159  0.0732
17151W        W32620   9.028  12.946  14.004  0.0295  0.1651 -0.1283
17152W        W32621   3.163   6.239   2.550 -0.3157  0.0193  0.1262
17153W        W32622  11.245  13.966   0.608 -0.1848  0.2042 -0.2554
17154W        W32623  12.351   3.180  12.510 -0.3993 -0.1049  0.0114
17155W        W32624   9.951  11.886   4.262  0.3230  0.0358  0.0964
17156W        W32625  15.170   2.684   3.605 -0.1066  0.1078 -0.4900
17157W        W32626   2.623  15.876   0.559  0.0945  0.3911 -0.0984
17158W        W32627  14.851   2.832  14.944  0.0878  0.0532 -0.0715
17159W        W32628  13.796   0.534  13.376  0.1088  0.0925 -0.1666
17160W        W32629   3.188  12.965  13.780  0.1435 -0.2200  0.0175
17161W        W32630   7.921  16.310  14.901  0.1917 -0.2642 -0.1027
17162W        W32631   0.560   3.795  11.675  0.3665  0.1556  0.2049
17163W        W32632   0.910  17.709  15.256  0.1032  0.0972 -0.2603
17164W        W32633   1.150  12.550   3.787 -0.0755  0.1427  0.0160
17165W        W32634  14.564   7.503  14.684 -0.0441  0.1158 -0.2341
17166W        W32635   5.212  10.015   0.561  0.0686  0.3601 -0.1535
17167W        W32636  11.047   8.555   0.726  0.1828 -0.0049  0.0170
17168W        W32637   7.047  13.794  15.413 -0.0212  0.0070 -0.2074
17169W        W32638  15.110  14.916  16.229  0.1873  0.0653  0.2244
17170W        W32639  10.093   4.048  12.918  0.3244 -0.1740 -0.1119
17171W        W32640  13.221  17.573  12.146  0.0191  0.0266 -0.0020
17172W        W32641   4.661   4.718   1.005 -0.1553 -0.3208  0.1808
17173W        W32642   3.733   1.697   1.319 -0.0066 -0.2433 -0.0434
17174W        W32643   7.961   5.045  14.454  0.1390  0.3279  0.1455
17175W        W32644   2.084  12.162   5.415  0.0727 -0.0306  0.0318
17176W        W32645  15.126  10.302   0.921  0.0623  0.0042  0.3206
17177W        W32646   3.222  15.238  14.012  0.0613 -0.3184  0.2535
17178W        W32647  17.153   1.467  12.859 -0.0009  0.0028 -0.0332
17179W        W32648  17.281   7.759  13.707  0.2351  0.1824 -0.0150
17180W        W32649  10.372  17.992   4.360  0.1379 -0.1695 -0.2058
17181W        W32650   4.371  11.705  13.456 -0.1046 -0.0910 -0.2245
17182W        W32651   2.813  15.035   4.887  0.3158 -0.0801  0.0225
17183W        W32652   8.344   0.032   4.744  0.1629  0.1099 -0.0197
17184W        W32653   1.417  17.288  16.102 -0.1497  0.0448 -0.3316
17185W        W32654  14.325   3.886   3.163  0.2796  0.2888 -0.0495
17186W        W32655   7.941   2.979  14.351  0.0290 -0.3218  0.1061
17187W        W32656  15.999  10.206  13.538  0.2498  0.0522  0.0019
17188W        W32657  10.211   7.968   4.992 -0.1139  0.0093  0.2369
17189W        W32658  14.590  11.643  11.686 -0.1258  0.0717  0.1821
17190W        W32659   3.011   0.500  14.718  0.0567 -0.1079  0.1472
17191W        W32660   6.831   3.478   2.429  0.0570 -0.0185 -0.1903
17192W        W32661  12.865  15.606   0.759  0.1347 -0.0412 -0.4203
17193W        W32662  14.166   6.235  10.568 -0.0331  0.2126 -0.0853
17194W        W32663   4.458   5.275  13.801  0.0278 -0.2668 -0.1719
17195W        W32664  12.608  13.286   5.201  0.1681  0.1307 -0.0792
17196W        W32665  13.689   8.170   2.174 -0.0528  0.0233 -0.0789
17197W        W32666   7.176   6.127   1.142  0.1649  0.3316 -0.2964
17198W        W32667  12.741  11.624   5.140 -0.3425  0.3661  0.2113
17199W        W32668  16.233   1.318   5.921  0.2231 -0.1297  0.0637
17200W        W32669   7.780  10.354  11.115  0.2873 -0.1334 -0.0110
17201W        W32670   0.373   5.243  11.731  0.1554  0.0644 -0.0675
17202W        W32671   1.129   7.165  13.261  0.5823  0.0723  0.0481
17203W        W32672   9.790  15.402   1.848 -0.3214 -0.1009  0.2643
17204W        W32673  12.656  11.247  13.334 -0.3677  0.0305 -0.3533
17205W        W32674  15.666  10.378   1.813  0.0164 -0.0035  0.1081
17206W        W32675  15.262  17.974   1.743 -0.4913 -0.0950  0.1911
17207W        W32676   5.764   1.561   2.312  0.1553  0.1600  0.0202
17208W        W32677   9.489   7.727   4.498  0.2824  0.0349  0.1390
17209W        W32678  16.280  12.730  14.196  0.1942  0.2170  0.1664
17210W        W32679  15.637   5.135   0.674 -0.0849  0.0954  0.0039
17211W        W32680  13.358   5.069   0.640  0.1425  0.0710 -0.0113
17212W        W32681  12.518  10.975   3.999 -0.1417  0.1328  0.0058
17213W        W32682   8.122   7.349  12.892  0.3086 -0.2202 -0.1164
17214W        W32683  13.296   3.831   2.483  0.0572  0.3746 -0.3169
17215W        W32684   8.011  11.567   3.746  0.2067 -0.4176 -0.2629
17216W        W32685   6.429   5.811   4.936  0.1474 -0.1088  0.1777
17217W        W32686   2.854  14.025  12.979 -0.1887  0.2051  0.0787
17218W        W32687   3.204   3.785   0.560 -0.1283  0.2139 -0.0118
17219W        W32688   6.328  10.767   5.167 -0.0441  0.0150  0.0393
17220W        W32689  15.311  16.515   3.539  0.2656 -0.0128  0.2052
17221W        W32690  16.433   4.314   1.541  0.0147  0.0083  0.2919
17222W        W32691  11.814   2.688   1.498 -0.2860 -0.2424  0.3655
17223W        W32692   4.291  14.349   2.401  0.2402 -0.0503 -0.1083
17224W        W32693   0.548  15.445   0.012 -0.0340 -0.1315  0.0835
17225W        W32694   2.498   8.291  10.788  0.0224 -0.0259  0.0949
17226W        W32695  13.335  12.234  13.107 -0.3194  0.0658 -0.1694
17227W        W32696   1.278   8.826   2.966 -0.0357 -0.1290 -0.0969
17228W        W32697  10.879   2.830  14.755  0.0978  0.2067 -0.3119
17229W        W32698  15.703   3.639   1.280  0.0190  0.2360  0.0589
17230W        W32699   5.989  10.244  13.445 -0.0271  0.1285  0.0308
17231W        W32700  12.127   2.707  14.652 -0.0742  0.0391 -0.1283
17232W        W32701  15.411   9.711   3.397  0.2403  0.2903  0.0219
17233W        W32702   3.862  10.779  15.876 -0.0214 -0.1218 -0.2348
17234W        W32703  14.475  10.621  11.965 -0.0166 -0.0749 -0.2641
17235W        W32704   0.598   5.433   3.396  0.2883  0.3586  0.0772
17236W        W32705  11.244   3.427   3.121  0.3934  0.0767  0.0013
17237W        W32706  15.453   7.177  13.662  0.2984 -0.1130  0.1856
17238W        W32707   2.004  16.681   0.115 -0.2151  0.0096  0.1368
17239W        W32708   2.125  15.391   1.659 -0.3340  0.1515 -0.0004
17240W        W32709  13.207   4.160  14.580  0.2383  0.0396 -0.0896
17241W        W32710  13.061   1.348   0.299 -0.1111  0.0962 -0.0819
17242W        W32711  17.756  13.007   2.217 -0.1000  0.0646  0.0206
17243W        W32712   3.257   8.386  13.058 -0.2248 -0.0044 -0.2276
17244W        W32713  10.426   4.113   4.310  0.1013 -0.3189  0.0755
17245W        W32714  15.110  15.258   3.005  0.0339 -0.3273 -0.0328
17246W        W32715   9.589   1.543  14.985 -0.0602  0.2894  0.1243
17247W        W32716  14.026   4.921   1.771  0.1797  0.3677  0.2851
17248W        W32717  14.625  15.933  11.509 -0.2038  0.1399  0.1070
17249W        W32718   5.326   8.219  15.560  0.1235  0.0125 -0.2644
17250W        W32719   7.236  13.518  11.714  0.0461  0.3189  0.1891
17251W        W32720   9.891  11.654   5.660 -0.1792  0.2417  0.0737
17252W        W32721  17.833   0.307   1.206  0.0910 -0.0540  0.0512
17253W        W32722   4.127   7.707   3.356 -0.0502 -0.0431 -0.1115
17254W        W32723   8.956  13.902  12.574 -0.1323  0.0958 -0.1913
17255W        W32724   9.815   8.422  10.410 -0.1648  0.1242  0.0866
17256W        W32725   0.894   5.026  14.403 -0.1175  0.2437  0.3578
17257W        W32726  17.765   9.372   2.143  0.0353 -0.1370 -0.2788
17258W        W32727   1.346  13.524  14.038 -0.4170  0.1046  0.0586
17259W        W32728   5.841  12.999  15.542  0.3030  0.1448  0.1234
17260W        W32729   8.470   9.169   0.673  0.4670 -0.2031  0.0588
17261W        W32730   1.885  15.880   1.731 -0.0202  0.1665 -0.0140
17262W        W32731  10.846  14.208   1.462 -0.2033  0.0585  0.2251
17263W        W32732   8.012   6.929   6.380 -0.2694  0.1578 -0.3298
17264W        W32733   7.407  13.654   2.738 -0.0302  0.1798 -0.1085
17265W        W32734  17.971   1.295   4.951  0.1542  0.2474  0.0316
17266W        W32735  15.555  12.438   3.472  0.0853  0.0878 -0.0430
17267W        W32736  16.410  10.588  12.781 -0.0725 -0.0188  0.2197
17268W        W32737   5.432   4.574  16.082 -0.1086  0.0430  0.1592
17269W        W32738  15.599  10.978  16.590  0.2502  0.1305 -0.1535
17270W        W32739   5.156   8.096  13.854  0.0879 -0.3417  0.2419
17271W        W32740   2.000  16.694  13.523  0.0233  0.0471  0.0020
17272W        W32741   6.626  14.356   2.914 -0.0961  0.0087  0.2823
17273W        W32742  15.117   0.097  15.501 -0.2309  0.0380 -0.0428
17274W        W32743   2.798   7.204   4.106  0.2229  0.2061  0.0725
17275W        W32744  15.152  16.196  14.795  0.5542  0.2618  0.0787
17276W        W32745   8.897   5.652   0.086  0.0329  0.0450 -0.2870
17277W        W32746   0.560  13.210   4.974  0.0733 -0.0420 -0.3259
17278W        W32747  14.887  11.611  15.794  0.0225  0.2326 -0.0627
17279W        W32748  14.597   9.890  14.392 -0.2098  0.0503 -0.0312
17280W        W32749   3.355   4.880   1.369 -0.0338  0.2494 -0.0247
17281W        W32750   3.671  11.111   1.118 -0.0114  0.1472  0.1372
17282W        W32751   5.934   0.266  15.576  0.0385  0.0426  0.0368
17283W        W32752  14.736   4.929  11.383  0.1992 -0.0862  0.0400
17284W        W32753  12.117   5.319   4.377 -0.2644  0.0570 -0.3672
17285W        W32754   6.916  14.687   5.367 -0.3687  0.4135  0.0729
17286W        W32755   3.695  12.599   5.328  0.2234  0.0377 -0.1763
17287W        W32756   6.738   2.228  14.514 -0.3356  0.3257  0.3044
17288W        W32757   2.104  10.998  14.543  0.1169 -0.1817 -0.3932
17289W        W32758   6.860  13.180   4.317  0.0362  0.0316  0.1277
17290W        W32759  13.691  14.753   5.347  0.1298  0.3102  0.0085
17291W        W32760  10.946   6.744   4.594  0.5681  0.0003  0.0117
17292W        W32761  10.330   4.360  12.569 -0.0063 -0.0649 -0.1989
17293W        W32762   8.028   9.296  14.762 -0.2026 -0.2058  0.1838
17294W        W32763   7.372   1.993   0.140 -0.2740  0.0108 -0.1581
17295W        W32764   4.457   0.310  13.361  0.2563  0.0317  0.0625
17296W        W32765   9.769  11.973  13.153  0.1736  0.1421 -0.2961
17297W        W32766   6.515   0.679   0.952  0.1220 -0.2290  0.1944
17298W        W32767   6.409   5.199   3.711  0.0447  0.0150  0.1423
17299W        W32768   0.105   6.371   2.902  0.0096  0.2918 -0.0735
17300W        W32769   8.693  15.771  15.049  0.0571  0.1553  0.0650
17301W        W32770   6.338  13.714  15.274 -0.3191  0.2361  0.0148
17302W        W32771   5.545   8.294   4.498 -0.1904  0.1602  0.2662
17303W        W32772  16.840   6.439  14.101 -0.1725  0.0436  0.0705
17304W        W32773  12.524   5.561  15.414 -0.1545 -0.1239  0.1198
17305W        W32774  15.927  12.209   0.801  0.0888 -0.0485  0.3736
17306W        W32775  13.888   6.748  14.954 -0.0105  0.1149  0.1998
17307W        W32776  12.787   7.188  13.012  0.4670  0.0252  0.0742
17308W        W32777   5.817  10.863  11.801  0.0221 -0.0579 -0.0468
17309W        W32778   3.723   9.747   0.443 -0.0883 -0.1088 -0.0082
17310W        W32779   2.596   8.806  15.867 -0.2047  0.0118  0.1174
17311W        W32780  10.673   1.674   2.469  0.2548 -0.0347  0.2707
17312W        W32781   9.037   8.673  11.587  0.2537 -0.2645  0.0521
17313W        W32782   9.105   7.803   5.620  0.1525 -0.3636 -0.0775
17314W        W32783   3.610  17.429   5.600 -0.2014  0.3144 -0.0389
17315W        W32784   2.629   1.225  15.615  0.0379  0.0094 -0.1120
17316W        W32785   9.805  17.156   5.471 -0.0356 -0.1130 -0.0297
17317W        W32786   5.936   0.153   3.196  0.1110  0.1311  0.1215
17318W        W32787  15.275   4.572   2.552  0.0121  0.3830  0.1736
17319W        W32788  16.971  11.210   3.163  0.1665 -0.1942 -0.0842
17320W        W32789  10.227  15.559  15.296 -0.1086  0.4134  0.1170
17321W        W32790  16.372  13.510   4.391 -0.1842  0.0949  0.0595
17322W        W32791  15.729   3.496  15.936  0.1180 -0.1648 -0.3725
17323W        W32792  13.486   6.606  16.158 -0.2393 -0.0031 -0.5137
17324W        W32793  17.409  14.306   2.739  0.1778 -0.0164  0.1230
17325W        W32794   3.627  15.596  11.393 -0.1579  0.0948 -0.0714
17326W        W32795   8.472   6.228   4.022  0.1128  0.0801  0.0086
17327W        W32796  14.128  10.119   0.831 -0.1604 -0.0113 -0.0821
17328W        W32797   5.491   9.285   4.633  0.3130  0.0124  0.2291
17329W        W32798  13.462  17.443  13.846 -0.0495  0.4173 -0.1562
17330W        W32799  15.919   7.241  13.600 -0.0457 -0.0802 -0.0949
17331W        W32800   7.554   7.392   4.411 -0.0934  0.0666 -0.0217
17332W        W32801   3.765   8.879  13.480  0.5131  0.1124 -0.2920
17333W        W32802   4.237  17.713   1.302 -0.1706  0.1378  0.1864
17334W        W32803  13.715   5.924   1.266 -0.0337  0.1338  0.0532
17335W        W32804   8.075   0.803  12.332 -0.0619 -0.0637 -0.1676
17336W        W32805   3.747  17.535  15.639  0.0162  0.2781 -0.0317
17337W        W32806  14.661  17.507   4.863  0.0480 -0.1220 -0.1202
17338W        W32807   3.176   7.610  16.376 -0.2185  0.2173 -0.1539
17339W        W32808   2.647   8.738  11.135  0.5090 -0.0321  0.0008
17340W        W32809   9.218   4.521  15.451  0.1092 -0.1069 -0.1334
17341W        W32810   8.396   7.221   4.839  0.0147 -0.0537 -0.0672
17342W        W32811  13.945  16.464  14.710 -0.2696 -0.1895 -0.1629
17343W        W32812   1.346  15.581   5.790  0.2570 -0.1089 -0.0770
17344W        W32813  11.173   2.074   1.208  0.1474 -0.0766 -0.0445
17345W        W32814  16.590  14.248  12.206  0.0615  0.0748 -0.0497
17346W        W32815  10.190   3.174  15.503  0.1101  0.0112  0.0429
17347W        W32816   5.778   6.458   1.904 -0.1371  0.1590  0.1846
17348W        W32817  15.496   0.512   0.789 -0.3758 -0.2115 -0.0245
17349W        W32818   9.219   5.928   1.446  0.0018  0.1169  0.0057
17350W        W32819  13.946  11.185  13.979  0.1616 -0.1396  0.0796
17351W        W32820   7.179   7.358   1.369 -0.1828 -0.0438 -0.0882
17352W        W32821   7.647   4.967   3.244 -0.0049  0.1209 -0.0620
17353W        W32822  17.281   8.842   0.321  0.0582 -0.0261 -0.0530
17354W        W32823   1.074   0.047  14.080 -0.0024 -0.2120 -0.1325
17355W        W32824   2.306  10.383   4.960 -0.0917 -0.1374 -0.0256
17356W        W32825   8.125   9.703   4.447  0.4513  0.1092  0.3004
17357W        W32826  10.774   5.352  13.014 -0.2649  0.2362 -0.1105
17358W        W32827  17.779  17.888  15.391  0.1410 -0.0544  0.2838
17359W        W32828   5.582   8.997  12.031  0.0122 -0.1001  0.1740
17360W        W32829   9.871   7.822   1.668 -0.2097  0.3328 -0.1107
17361W        W32830   2.314  16.622   5.581 -0.0438  0.0881 -0.0818
17362W        W32831  16.004   2.474  14.476  0.3393 -0.1012  0.0494
17363W        W32832   5.217   9.105  15.662  0.2099 -0.1731  0.1156
17364W        W32833   4.234   0.987   2.794  0.2426 -0.1988  0.1623
17365W        W32834  10.953  17.358  15.335  0.0384  0.2555  0.0271
17366W        W32835   2.853   6.083  11.399 -0.1096 -0.3152  0.1945
17367W        W32836   1.188   2.368  16.145 -0.0515 -0.2763  0.1672
17368W        W32837  13.400  11.316   4.459  0.2437  0.0167 -0.1604
17369W        W32838   4.305   1.841   2.124 -0.0864 -0.2892  0.1669
17370W        W32839  15.306   8.506  15.347  0.0883  0.1869  0.1405
17371W        W32840  17.841   3.767   5.280 -0.2423 -0.0522  0.3695
17372W        W32841   0.439   7.649   2.517  0.0230  0.0183  0.1512
17373W        W32842   4.345   4.991  14.909 -0.4266 -0.0181  0.0306
17374W        W32843  17.123   7.287  15.840  0.0303  0.0530 -0.0049
17375W        W32844  14.978  12.289   2.940  0.4210  0.0765  0.0932
17376W        W32845  16.749  16.261  15.397  0.2878  0.0341  0.1050
17377W        W32846   6.818   8.999   3.950  0.1097 -0.0553 -0.1545
17378W        W32847  15.698   7.742  13.868 -0.3056 -0.3132 -0.1898
17379W        W32848   0.567   6.580  12.888  0.2952  0.0720 -0.2726
17380W        W32849   7.836   9.542   0.302 -0.0333  0.0805  0.3580
17381W        W32850  10.571  11.148  16.126  0.1838  0.0012 -0.0033
17382W        W32851  12.385   9.665  12.775  0.0435 -0.3744 -0.0461
17383W        W32852   4.169  17.103  12.871  0.3250  0.0278 -0.0135
17384W        W32853   4.737   1.151  14.010 -0.0825  0.0346  0.1110
17385W        W32854  11.001   4.647  15.806  0.2631 -0.0040 -0.1346
17386W        W32855  16.997   9.697  15.069  0.0221  0.0997 -0.2887
17387W        W32856  14.948   3.413   5.864 -0.0605 -0.0421 -0.0452
17388W        W32857  14.755   2.042   4.298 -0.0458 -0.2574 -0.1754
17389W        W32858   2.429  12.341   4.651 -0.0543  0.0951  0.1414
17390W        W32859  13.820   1.135  13.324  0.2228  0.1124  0.0539
17391W        W32860   6.658   9.321   4.337 -0.3573  0.0594 -0.1480
17392W        W32861  11.266   8.116   4.743  0.1284 -0.2494  0.4263
17393W        W32862  11.039   1.214   5.253  0.1177 -0.1860 -0.1020
17394W        W32863   0.786  14.121   3.255  0.1448 -0.1386  0.2537
17395W        W32864   5.538   4.072   1.428 -0.4858  0.2719 -0.0324
17396W        W32865   9.346   1.329  13.634  0.0830  0.2125  0.1096
17397W        W32866   1.074  13.452   5.547 -0.0638 -0.0494  0.0455
17398W        W32867  11.087  11.478  13.774  0.0267 -0.0532 -0.0861
17399W        W32868  10.726  14.663  15.053 -0.1039  0.4209  0.2496
17400W        W32869   7.216   6.973  13.442  0.1688  0.0380  0.4780
17401W        W32870  17.620   5.800   4.063 -0.2165 -0.0517 -0.1133
17402W        W32871   6.030  11.080   5.441 -0.0343 -0.0275 -0.0858
17403W        W32872  12.250   1.333  14.367  0.2173  0.1951  0.1588
17404W        W32873   7.347   6.045   2.988  0.1710 -0.0940 -0.1110
17405W        W32874   5.061  17.487  16.453 -0.1245 -0.1255  0.0434
17406W        W32875  15.812  10.963  13.082  0.2232  0.0849 -0.0667
17407W        W32876  13.631   0.948  16.132 -0.0013 -0.0978  0.0314
17408W        W32877   8.073  13.404   0.945  0.3517 -0.1561 -0.2874
17409W        W32878  14.194  12.581  12.724 -0.0346  0.1685 -0.0711
17410W        W32879   1.146   0.781  12.389  0.0663  0.0317  0.2006
17411W        W32880   0.003  10.973   3.545  0.2016 -0.3917 -0.0521
17412W        W32881   3.769  16.437   3.359  0.2147 -0.0763 -0.1464
17413W        W32882   9.187  17.709   1.788  0.2989  0.0867 -0.0949
17414W        W32883  14.008   7.882  13.506  0.2737  0.0301  0.1064
17415W        W32884  11.742  17.111  11.946  0.1897  0.4390  0.2211
17416W        W32885   1.490   7.233   0.526 -0.0346  0.3584 -0.0346
17417W        W32886   8.287   9.175  15.556  0.2134 -0.2398 -0.3707
17418W        W32887   5.117   7.680  15.896 -0.1007  0.1803  0.1300
17419W        W32888  13.674  16.665   5.680 -0.1355  0.1247  0.3210
17420W        W32889   1.393  12.272   4.510 -0.0709 -0.2728  0.3359
17421W        W32890  16.889   2.989   6.127 -0.0918 -0.0747 -0.2449
17422W        W32891   5.552   1.831   1.576  0.1194  0.1490  0.0742
17423W        W32892   8.921   9.142  14.703  0.3367  0.2886  0.0413
17424W        W32893   3.270   1.341  15.026  0.2963 -0.1715 -0.2983
17425W        W32894  15.336  16.433  12.089  0.2994 -0.1294  0.0908
17426W        W32895   2.206  10.913  13.126  0.1677  0.1541 -0.0733
17427W        W32896   2.822   9.658   3.897 -0.0382 -0.1626 -0.1669
17428W        W32897   7.064   9.462  14.954  0.1594  0.1274  0.0325
17429W        W32898   5.180   9.214  11.374  0.1542 -0.0729 -0.0667
17430W        W32899  17.314   6.165  12.204 -0.2489 -0.1340 -0.1118
17431W        W32900   3.084  10.095   0.631 -0.2149 -0.0223  0.1098
17432W        W32901   0.505   2.621   0.566 -0.0122 -0.1920 -0.3533
17433W        W32902  15.831   0.918   0.846  0.1080 -0.1436 -0.0325
17434W        W32903   3.944  10.558   4.766  0.2309 -0.0877  0.0041
17435W        W32904   3.813  15.943   4.353  0.2997  0.0955 -0.0083
17436W        W32905  16.306  11.454  15.920  0.1616 -0.1093  0.0941
17437W        W32906  12.113  10.012   4.267 -0.1404 -0.0812  0.0948
17438W        W32907   6.956   7.765   3.220 -0.0255 -0.0168 -0.0035
17439W        W32908   5.971   7.642   0.893 -0.1015  0.2618  0.2090
17440W        W32909  13.557   6.381   5.219  0.1395 -0.0823 -0.0236
17441W        W32910  13.863   8.882   0.222  0.0685 -0.0685 -0.1105
17442W        W32911   4.769  16.491  16.145 -0.4019  0.1369  0.0960
17443W        W32912   7.220  13.447  12.837 -0.4156  0.1763  0.0348
17444W        W32913   5.935   7.486   5.821 -0.0192  0.0972  0.2163
17445W        W32914   2.151  10.053   4.548 -0.1153  0.0985 -0.1727
17446W        W32915   6.535  12.006  14.588  0.2332 -0.0095  0.0213
17447W        W32916  16.882   7.869   2.488 -0.1938  0.0303  0.1063
17448W        W32917   2.643   7.466   3.236 -0.2152  0.0052 -0.1756
17449W        W32918  11.575   2.883  11.361  0.0298  0.1503 -0.0881
17450W        W32919  14.968   2.836   0.031 -0.2655  0.0854  0.1937
17451W        W32920  16.015   0.700  12.183 -0.1350  0.1829 -0.2495
17452W        W32921   4.743  10.167   3.468  0.0619  0.2463 -0.0184
17453W        W32922  14.802   9.740  12.260  0.1224 -0.2549 -0.0816
17454W        W32923   1.941  11.765   0.654  0.0052  0.2815 -0.1696
17455W        W32924  16.348  10.505   3.767  0.1515  0.2357 -0.3457
17456W        W32925  15.977   2.945   3.108  0.2538 -0.1303 -0.1075
17457W        W32926  13.145   9.879   5.004 -0.2617 -0.0982 -0.1726
17458W        W32927  12.433  17.796   0.804 -0.1159 -0.2316 -0.3193
17459W        W32928  15.771   4.534   4.514  0.1321 -0.0674 -0.3600
17460W        W32929   4.845  11.213   1.202  0.1070 -0.0185  0.0435
17461W        W32930   1.290  16.015   4.008 -0.1575 -0.0783 -0.0033
17462W        W32931  13.410   8.638  11.995 -0.0995 -0.0816 -0.3485
17463W        W32932  10.328  10.753  10.220  0.0555 -0.0182  0.2198
17464W        W32933   6.635   7.561  15.466 -0.1087 -0.2717  0.0832
17465W        W32934   6.953   4.855  12.164 -0.1396  0.0240  0.1813
17466W        W32935  14.933  17.825   2.283 -0.1268  0.1476  0.4854
17467W        W32936  16.490  10.169   4.651 -0.0697 -0.0931  0.1388
17468W        W32937   0.274  17.422   0.393 -0.0799 -0.1791 -0.0236
17469W        W32938   4.719   3.656   1.467 -0.1462  0.1477 -0.2672
17470W        W32939  10.069  11.008   6.306  0.2013  0.0046 -0.2821
17471W        W32940   2.530  13.632  10.452  0.0163  0.0676  0.0839
17472W        W32941   4.710  10.107   1.793  0.0590  0.0527  0.1790
17473W        W32942  16.200   6.894  15.712 -0.0012 -0.0198  0.3006
17474W        W32943  17.212   1.368   3.106  0.1537 -0.1446  0.2912
17475W        W32944   5.738   5.822   0.453 -0.1665 -0.0542 -0.0029
17476W        W32945  10.365   4.964   5.537 -0.1542  0.3737 -0.2214
17477W        W32946  15.337  17.748  12.623  0.2007 -0.3410  0.1916
17478W        W32947   8.368  10.884  12.257  0.0216  0.2526 -0.1861
17479W        W32948   1.000   5.038   3.851 -0.0414 -0.1090  0.0256
17480W        W32949  15.682   1.123  12.209  0.1764  0.4899  0.0696
17481W        W32950   9.595   5.547   4.267 -0.1850 -0.1609  0.2465
17482W        W32951   9.211   5.814   0.696 -0.0392 -0.3352  0.0489
17483W        W32952  14.729   2.856   1.805 -0.1178 -0.1699 -0.0032
17484W        W32953   8.429   8.133  12.458  0.0090  0.0315 -0.0122
17485W        W32954  12.580  11.445   3.158  0.3530 -0.0178 -0.1027
17486W        W32955   6.072  14.170   1.972  0.1913 -0.2615 -0.0271
17487W        W32956  11.091  16.234  13.492 -0.0204 -0.0713  0.0970
17488W        W32957   2.584   0.649   6.164 -0.1986 -0.0731  0.1179
17489W        W32958  14.423   3.198   9.880  0.3424 -0.1341  0.1732
17490W        W32959  13.779   3.338  13.711 -0.0948  0.2034 -0.2047
17491W        W32960   8.757  16.654  15.962  0.2126  0.1913 -0.1685
17492W        W32961   3.514   5.804  11.635  0.0631  0.0473  0.2473
17493W        W32962  13.262   4.754   3.909 -0.0687 -0.1209 -0.0574
17494W        W32963  12.107   4.122  11.907 -0.0200 -0.1114  0.3403
17495W        W32964  11.283  16.656  12.010  0.1575  0.2121  0.0104
17496W        W32965  11.325  15.018   0.500 -0.0838 -0.2467 -0.1307
17497W        W32966   4.298   4.018   0.913  0.2746 -0.1368 -0.5623
17498W        W32967   3.034  13.750  12.518 -0.1094 -0.0926 -0.0715
17499W        W32968   6.135  16.655  16.184 -0.0461  0.1096  0.1233
17500W        W32969   1.505   0.580   2.444  0.3737  0.1255  0.1320
17501W        W32970   0.063   7.735  10.830  0.0703 -0.0188  0.1367
17502W        W32971   2.416   6.355  14.155  0.0173  0.0208  0.1896
17503W        W32972   9.152  17.048  14.416 -0.1772 -0.3545 -0.1136
17504W        W32973   1.181   2.954   5.022  0.2060 -0.0968  0.1958
17505W        W32974  12.650   1.143  13.960 -0.1350 -0.0958  0.1822
17506W        W32975   1.333   1.459  12.624  0.2536  0.4509 -0.3085
17507W        W32976  12.677  15.358   4.613  0.2738  0.1316 -0.1749
17508W        W32977  13.492  17.680   1.738  0.1289 -0.1779 -0.1567
17509W        W32978   9.121   3.599   4.989  0.2351 -0.0018 -0.3314
17510W        W32979   1.098  11.075   4.971  0.3701  0.2621 -0.3440
17511W        W32980   9.531  17.929   3.316 -0.1327 -0.1955  0.2119
17512W        W32981  17.728  10.420   5.995 -0.2458 -0.2631  0.0186
17513W        W32982  13.725  13.027  15.178  0.2791 -0.2757  0.2350
17514W        W32983   7.414  13.097  16.169 -0.1864  0.2938 -0.0034
17515W        W32984  10.389  12.852  15.340  0.3127 -0.1928 -0.1196
17516W        W32985   1.496   9.311  15.104  0.1685 -0.0958  0.0609
17517W        W32986   1.556  14.861  14.984 -0.0905  0.1735 -0.0136
17518W        W32987   5.786   6.370  12.412 -0.1934  0.2187 -0.0159
17519W        W32988   8.917   3.744   3.267 -0.1122 -0.0980  0.0385
17520W        W32989  15.382  13.212  14.195  0.0741  0.3011  0.0718
17521W        W32990   0.279  14.482  11.432  0.1159  0.0532 -0.3685
17522W        W32991  16.720  14.444   1.370 -0.0831  0.4580 -0.3765
17523W        W32992   9.867   3.110  15.062  0.2565  0.2249 -0.0155
17524W        W32993   7.195   5.868  15.092 -0.1103  0.2162 -0.1021
17525W        W32994  17.976   8.584   5.490  0.1807 -0.1307 -0.1895
17526W        W32995  13.399   6.514   1.075 -0.1824 -0.0134 -0.0425
17527W        W32996  15.069   1.908  14.189 -0.1081 -0.2389  0.0209
17528W        W32997   2.985  12.387  16.113 -0.1371  0.0210 -0.2559
17529W        W32998   0.032   0.774   3.481 -0.1477  0.0796 -0.2427
17530W        W32999  12.836  13.539   0.518 -0.0491  0.1882 -0.0625
17531W        W33000   3.245   4.500  14.315 -0.0958 -0.2941 -0.0984
17532W        W33001   4.799  11.124   4.485  0.1063  0.3119  0.2239
17533W        W33002   5.138  11.440   2.092  0.0525  0.1549  0.1505
17534W        W33003   2.763  10.452   3.822 -0.1308  0.3743 -0.1578
17535W        W33004   6.952  17.341  11.601  0.1166  0.4125  0.0748
17536W        W33005  11.263  14.496   2.335  0.0180 -0.1275  0.0566
17537W        W33006   1.086  10.277  10.918 -0.0049 -0.0515  0.0763
17538W        W33007   8.187   9.311   2.529 -0.0926 -0.0234 -0.0303
17539W        W33008   5.783  15.468   1.881  0.0342  0.1526 -0.0486
17540W        W33009  17.959   7.882  15.299 -0.0345 -0.2369 -0.0276
17541W        W33010   3.277   7.013   0.576 -0.0576 -0.0184 -0.1402
17542W        W33011   6.851  12.601  15.120 -0.2476 -0.0461 -0.0967
17543W        W33012   4.133  15.831   4.011 -0.1351  0.0373  0.0059
17544W        W33013  14.661   2.790  14.521  0.0376 -0.1231  0.3372
17545W        W33014   7.235   4.447  12.699  0.0604  0.0016  0.1765
17546W        W33015  10.528   1.461   5.338 -0.0016  0.0509  0.0348
17547W        W33016   5.783  14.405  16.535 -0.0697  0.0674  0.2599
17548W        W33017  12.215   3.851  13.070  0.1054  0.0725  0.0648
17549W        W33018   3.107   1.257   0.756 -0.0295  0.2635  0.1003
17550W        W33019   6.852   4.654   1.005  0.2285  0.1629 -0.1666
17551W        W33020  10.807   7.671  16.091 -0.0280 -0.1237 -0.1994
17552W        W33021  11.205  15.236  13.949  0.2354  0.0325  0.3200
17553W        W33022  12.219  11.007  14.150  0.1329 -0.5825  0.3364
17554W        W33023   9.934   2.840  16.310  0.1415 -0.3374  0.1419
17555W        W33024   9.436  11.354   0.716  0.0704  0.0055 -0.0050
17556W        W33025   0.405  10.209   0.970 -0.0987 -0.0014 -0.2431
17557W        W33026   1.442   2.534   0.400  0.1138 -0.1631 -0.0331
17558W        W33027  10.625  13.207   3.506  0.1562  0.0887 -0.2972
17559W        W33028   2.062   5.199  11.829  0.0573 -0.0188  0.0962
17560W        W33029  12.128   6.831  16.246 -0.1626 -0.1795 -0.1587
17561W        W33030   3.675  17.856   2.365 -0.3993 -0.0046 -0.0379
17562W        W33031   0.486  14.229  13.189 -0.1479  0.0927  0.0234
17563W        W33032  13.900   6.665   2.922  0.2484  0.0618 -0.3795
17564W        W33033   8.136   4.725  15.847 -0.2247 -0.0899 -0.1237
17565W        W33034   5.587   9.475  15.344 -0.0498 -0.0643 -0.2063
17566W        W33035  16.002   6.718  12.422 -0.0581  0.1726 -0.0838
17567W        W33036   9.946   0.334   5.657  0.1420  0.0266  0.1818
17568W        W33037  11.134  14.426  11.766  0.0233 -0.2225 -0.0724
17569W        W33038  12.146   6.003  15.775 -0.2107 -0.0609 -0.1980
17570W        W33039  17.032  16.146   2.294 -0.1785  0.0654  0.3807
17571W        W33040  10.306  16.256   5.868 -0.1555  0.0123 -0.2557
17572W        W33041  14.410   7.990   0.243  0.0239 -0.1320 -0.0528
17573W        W33042   9.163   7.419  13.938 -0.0917 -0.0083 -0.0244
17574W        W33043  14.387   0.000   1.380  0.4347 -0.1053  0.0924
17575W        W33044  15.757   7.027   1.823 -0.3418  0.0930 -0.1210
17576W        W33045  12.676  17.955  15.613 -0.0747 -0.0275  0.1078
17577W        W33046   5.069  15.344   1.333  0.1248 -0.0301  0.1281
17578W        W33047  15.292  17.365   6.190 -0.0302 -0.1980  0.2290
17579W        W33048   4.740   1.957   4.873  0.0878  0.0051 -0.3911
17580W        W33049  15.681   4.437  11.119 -0.3194  0.0912  0.1107
17581W        W33050   3.173  11.852   5.595 -0.2671 -0.2494 -0.0807
17582W        W33051   1.644   7.723   0.538 -0.0638 -0.2391 -0.2619
17583W        W33052   4.792   0.906   1.560  0.0937  0.4390 -0.4056
17584W        W33053   2.017  14.465   4.453  0.1958 -0.1144  0.2770
17585W        W33054   1.094   4.992  10.769  0.0787 -0.1232 -0.0900
17586W        W33055   6.523   5.377   4.634 -0.3506 -0.0561  0.2318
17587W        W33056   1.000   5.055   1.216  0.1397 -0.0276 -0.2109
17588W        W33057  11.551  14.093   3.352  0.1704 -0.0437  0.0762
17589W        W33058  11.357  17.007   4.621 -0.0729  0.1417  0.1734
17590W        W33059   7.339  13.983   6.098  0.2063  0.2138 -0.4030
17591W        W33060  15.224   2.881   4.139 -0.0964 -0.0763  0.1837
17592W        W33061  15.199   3.554   2.181 -0.1778  0.1128  0.1642
17593W        W33062   9.855  11.874   6.202  0.2813  0.1253  0.1319
17594W        W33063  12.421   1.435   4.096 -0.2473 -0.2549  0.2637
17595W        W33064  16.382   3.099  13.528  0.0374  0.0399  0.0756
17596W        W33065  15.524  17.546   1.850  0.3025  0.1070  0.2448
17597W        W33066   0.926  13.244   4.252 -0.0823  0.0348  0.2867
17598W        W33067  10.973   8.629  12.724  0.2364 -0.2177  0.0508
17599W        W33068  10.884   4.795   5.275  0.1306 -0.0505  0.0550
17600W        W33069   5.545  11.735   0.422  0.2499 -0.1470  0.0990
17601W        W33070  17.575  11.395   1.938  0.0918 -0.0605  0.2921
17602W        W33071  14.562  10.090   2.546 -0.0011  0.0475 -0.0189
17603W        W33072   9.984  13.439  12.421 -0.3563  0.1985 -0.0744
17604W        W33073   3.377  10.832  15.977  0.0749  0.3121 -0.0252
17605W        W33074   7.087   4.488  11.048  0.0717  0.1302 -0.0462
17606W        W33075  14.167   3.161   0.566  0.1191 -0.0268 -0.4116
17607W        W33076  13.291   3.743   5.108  0.4525 -0.0088  0.1285
17608W        W33077  17.545   0.093  12.360 -0.1525  0.1902 -0.2003
17609W        W33078  15.022  16.609   0.143 -0.4967  0.0092  0.0465
17610W        W33079   0.325   7.268   1.475  0.0327  0.2386  0.4981
17611W        W33080   8.572  11.992   1.815  0.0415  0.1672  0.0434
17612W        W33081  16.074   7.146  11.314  0.0396 -0.0595 -0.1060
17613W        W33082  11.306   2.373   0.153 -0.2348  0.0229 -0.0924
17614W        W33083   1.901   6.626  13.361  0.2632 -0.0409  0.1296
17615W        W33084  14.435   4.544   4.401 -0.1103  0.1217  0.0178
17616W        W33085  16.910   0.766  15.510  0.1423 -0.1088 -0.0414
17617W        W33086   6.809   3.471  14.986  0.0832 -0.0073  0.0601
17618W        W33087  12.149   7.585   1.108 -0.1737  0.1978  0.1079
17619W        W33088  17.727   8.856  12.036  0.0437  0.1180 -0.0942
17620W        W33089   6.646   4.442  11.336  0.0098 -0.3159  0.0145
17621W        W33090  11.566  14.234  11.556  0.2823  0.0040  0.2803
17622W        W33091   4.630  17.444   2.010  0.1634 -0.0236 -0.0926
17623W        W33092  16.824   3.121   1.826  0.2686  0.0143 -0.0552
17624W        W33093  11.094  14.259  16.533 -0.0757  0.0988  0.0610
17625W        W33094   7.672   9.446   1.215 -0.2199 -0.2808  0.0004
17626W        W33095  11.331   0.817   5.500 -0.0316 -0.1002  0.0543
17627W        W33096  16.694   8.944  14.225  0.2120 -0.0297  0.0540
17628W        W33097  11.102  16.535   4.500  0.2496 -0.1446 -0.1063
17629W        W33098  16.151  17.094   5.566 -0.1966  0.3341  0.2346
17630W        W33099   3.036  15.461  16.079  0.0495 -0.0240 -0.2109
17631W        W33100  16.823  13.965   0.252  0.2238 -0.3744  0.0337
17632W        W33101   2.902  17.829   0.019 -0.3806  0.3495 -0.1372
17633W        W33102   1.513   6.261  14.809 -0.1390 -0.0996  0.1024
17634W        W33103   1.791   7.350  11.816  0.0471  0.2945 -0.0990
17635W        W33104  16.901  12.711   1.775 -0.1545  0.1197  0.2823
17636W        W33105   8.523   3.250  13.545  0.3380 -0.0288 -0.3055
17637W        W33106  13.519   3.068  11.596 -0.4031 -0.1706  0.1044
17638W        W33107   9.728   4.142   1.723 -0.0146  0.0563  0.0511
17639W        W33108   5.860  16.160  13.175  0.1575 -0.1794  0.2099
17640W        W33109   0.982  10.923  13.802 -0.1022  0.1228 -0.0206
17641W        W33110   0.975   9.185   3.873 -0.2387 -0.1812  0.2354
17642W        W33111   7.325   7.740  14.950 -0.0337 -0.0400  0.3386
17643W        W33112   7.606  10.609  11.938  0.4314 -0.0692 -0.0525
17644W        W33113   6.520   8.762  11.777 -0.0781 -0.1763  0.0643
17645W        W33114   9.025  16.979   3.923  0.2943  0.3514 -0.1153
17646W        W33115   6.468   6.983  14.702 -0.2137  0.0636  0.3597
17647W        W33116   8.278  11.738   2.719  0.2692 -0.0155  0.2135
17648W        W33117   8.306  12.232  16.562 -0.0010  0.1475  0.0348
17649W        W33118   8.916   2.770  13.524  0.2081  0.2365  0.0161
17650W        W33119   7.228  10.252  11.036 -0.1815 -0.3096  0.0336
17651W        W33120   4.488   9.108   3.856  0.0548 -0.1594  0.2670
17652W        W33121   9.319  10.085   5.427  0.1233 -0.2689 -0.0055
17653W        W33122   3.184   3.352   0.041  0.1746 -0.1395 -0.2117
17654W        W33123   9.206  14.240  11.898 -0.0064 -0.1171 -0.0430
17655W        W33124   5.758   8.954  16.332 -0.1301 -0.1445  0.0650
17656W        W33125   6.692   0.849   2.269 -0.3078  0.1264  0.3637
17657W        W33126  11.447  14.220  12.114  0.0189  0.0517 -0.0676
17658W        W33127  16.857   9.006   1.839  0.1086  0.3409 -0.2549
17659W        W33128   8.104  15.704   0.430 -0.4444 -0.0525  0.1582
17660W        W33129  13.884  15.993   4.128 -0.1087  0.1078 -0.2780
17661W        W33130   9.996  10.383   3.157  0.1290 -0.1799  0.1866
17662W        W33131   9.053  11.358  14.958  0.1312 -0.1645 -0.1034
17663W        W33132  17.828  17.612  15.959 -0.2408 -0.0043  0.0575
17664W        W33133  12.278  17.663   5.367  0.2238  0.0568 -0.2080
17665W        W33134   3.706   5.032  14.058  0.0651  0.0061 -0.3584
17666W        W33135  17.342   3.410  12.894 -0.2472 -0.0932 -0.0415
17667W        W33136   1.776  11.245   6.135 -0.2826 -0.0801 -0.0641
17668W        W33137  17.240  16.207   6.534 -0.2384 -0.5427 -0.3171
17669W        W33138   6.418  15.737   0.653  0.3025  0.0494  0.0317
17670W        W33139  10.435  11.038   3.887  0.2537  0.2179 -0.2113
17671W        W33140   2.995  10.334  14.634 -0.1485  0.1722 -0.0210
17672W        W33141   3.668  10.042  10.823 -0.0525  0.0172 -0.0493
17673W        W33142   2.401  15.526  15.119 -0.1858  0.1317  0.0730
17674W        W33143   8.416  14.223   4.268 -0.2234 -0.0133 -0.2599
17675W        W33144  12.870   9.650  14.852  0.0527 -0.1805  0.1557
17676W        W33145   7.676   6.206   2.627 -0.3836 -0.3187  0.0677
17677W        W33146   3.921  11.759   5.184 -0.1582 -0.1252  0.1138
17678W        W33147   3.355   7.417  15.025  0.0480  0.0696  0.1830
17679W        W33148  17.955   3.978   1.417  0.0132  0.0819  0.1635
17680W        W33149  14.553   5.255  16.023 -0.1423  0.0447 -0.1123
17681W        W33150   2.020   6.094   4.297  0.2162  0.1363  0.2952
17682W        W33151  10.405   5.579  13.299 -0.0366 -0.1206  0.1914
17683W        W33152   9.424   6.808   2.886  0.1540 -0.2851 -0.0295
17684W        W33153   2.833   4.096  16.461  0.2190  0.0743  0.0602
17685W        W33154   7.285   8.846   4.184 -0.2926 -0.0794 -0.1498
17686W        W33155   2.989   2.559   2.889  0.0454 -0.1171  0.2131
17687W        W33156  15.519   5.886   4.684 -0.0861  0.1073  0.2508
17688W        W33157   5.507   9.525   0.751 -0.0235  0.3457  0.0551
17689W        W33158   2.689  16.836   2.720 -0.4331  0.0502  0.3624
17690W        W33159  12.531  16.025   2.434 -0.1840 -0.1616 -0.0755
17691W        W33160  14.432   4.101   2.016 -0.0377  0.2013 -0.2563
17692W        W33161  13.039   1.763  12.978  0.0188 -0.3004 -0.2474
17693W        W33162   5.198  15.841   1.060  0.1011 -0.2141  0.0939
17694W        W33163  15.389   6.349   4.963  0.0092  0.1004  0.1226
17695W        W33164  17.266  17.417  14.075 -0.2259  0.1875 -0.0024
17696W        W33165   7.480   9.358  13.671 -0.0128  0.4265 -0.1578
17697W        W33166   6.830  10.765   4.119 -0.3118 -0.0522 -0.0024
17698W        W33167  16.965   3.922  11.401  0.0163  0.0788  0.1577
17699W        W33168   9.150   6.990  13.140  0.0854  0.1417  0.0709
17700W        W33169  11.259   2.676   1.319  0.0861 -0.1630  0.0069
17701W        W33170   1.685  15.785  13.369  0.1297 -0.0479  0.0653
17702W        W33171  10.426   4.134   2.218 -0.0546  0.1480  0.0240
17703W        W33172  15.727  15.654   1.883  0.0150  0.0783  0.1338
17704W        W33173   9.556   6.792   3.881 -0.2986 -0.0531 -0.1862
17705W        W33174   3.880  17.477   3.508  0.1860 -0.0932 -0.2712
17706W        W33175  12.541  17.653   6.483 -0.1405  0.1415 -0.1572
17707W        W33176  13.578  13.670   1.674  0.3233  0.1189 -0.2406
17708W        W33177  16.645  10.510  15.259  0.2439 -0.2486 -0.3874
17709W        W33178  14.110   6.480   1.128  0.0518  0.3616 -0.0322
17710W        W33179   4.591  15.223   1.093  0.1032 -0.2234 -0.0712
17711W        W33180  11.611  16.938   0.083  0.0589 -0.2163 -0.0967
17712W        W33181  14.049   9.873   3.378 -0.3970 -0.1484 -0.0060
17713W        W33182  10.744  14.890   6.077  0.0972  0.3295  0.0440
17714W        W33183   0.307  14.639  13.470  0.0246  0.2087 -0.0784
17715W        W33184  13.175  10.739   4.331  0.1460  0.1467 -0.2058
17716W        W33185   0.863   2.734  11.494  0.1843 -0.0400  0.0058
17717W        W33186  11.184   3.745   3.534 -0.2574 -0.0644  0.1232
17718W        W33187  16.699   2.641  15.633  0.2313  0.0589  0.2548
17719W        W33188  16.577   7.981  15.837 -0.0799  0.0135 -0.2672
17720W        W33189  14.364   1.360  16.310  0.3027 -0.0657 -0.0455
17721W        W33190   3.058  12.730   1.015 -0.0036  0.3259 -0.0694
17722W        W33191   2.899  17.935  15.336 -0.1323  0.0421  0.1687
17723W        W33192  13.530  13.111   3.116 -0.0017 -0.1984  0.0855
17724W        W33193  10.861   7.720   3.111  0.2011  0.2473 -0.1919
17725W        W33194  14.457  15.621   4.526 -0.3256 -0.0838 -0.1564
17726W        W33195   0.527  12.891  14.511  0.0233  0.0120  0.2223
17727W        W33196   3.322   0.616  12.124  0.2082 -0.0711  0.2002
17728W        W33197   5.619  10.691   4.097 -0.1694 -0.0957  0.0212
17729W        W33198   8.483  11.016   2.282  0.1377  0.3016  0.0077
17730W        W33199  10.745  16.131  14.639  0.0742  0.2818  0.1519
17731W        W33200   8.966  15.928   1.529 -0.1911 -0.1559 -0.1486
17732W        W33201   4.114  10.780   1.840 -0.0976  0.1171  0.1073
17733W        W33202   7.440  17.493   2.980 -0.2826 -0.1162 -0.0887
17734W        W33203  17.847  16.980   3.846  0.1327  0.2026 -0.1117
17735W        W33204   1.310   2.687  11.254  0.2526 -0.3714  0.0943
17736W        W33205   6.704   5.351  15.121 -0.1401  0.1603  0.1354
17737W        W33206  17.089  16.014   3.270  0.0051 -0.1704  0.0964
17738W        W33207  14.587  14.442   3.659 -0.2357  0.1517 -0.0778
17739W        W33208   9.141  12.742  13.380  0.0101 -0.1096  0.0400
17740W        W33209  16.185  11.823  15.099 -0.1764 -0.0126  0.0333
17741W        W33210  11.117   6.452   4.966 -0.0575  0.0369 -0.0530
17742W        W33211   5.622  16.667   0.348 -0.2251  0.0949  0.0139
17743W        W33212   2.718   2.250  13.565 -0.3666 -0.0953  0.1060
17744W        W33213  11.126   9.098  13.890 -0.0969  0.1983  0.0919
17745W        W33214  16.183   4.140  13.211  0.1802  0.2558  0.0933
17746W        W33215  16.700   6.270  11.543  0.4810  0.0268  0.1273
17747W        W33216  10.126   0.667  15.102 -0.3162  0.0843 -0.0394
17748W        W33217   1.140   7.074  16.294  0.2354 -0.2855  0.1053
17749W        W33218  13.851  16.299  12.874  0.1579  0.0254 -0.1777
17750W        W33219   2.790   9.953   3.486 -0.2931  0.2388 -0.0710
17751W        W33220   7.070  12.685   1.358 -0.1402 -0.2331  0.0687
17752W        W33221   7.936  10.973  11.383  0.1621 -0.0200 -0.1309
17753W        W33222  16.313  15.235   4.650  0.1693 -0.3777 -0.3214
17754W        W33223  15.435   9.626  10.682 -0.1133 -0.2624 -0.2824
17755W        W33224  15.702   5.278   3.626  0.0831  0.1049 -0.0629
17756W        W33225   4.863   9.638  12.863  0.1903  0.1175  0.0247
17757W        W33226  10.840   0.189   2.559 -0.1922 -0.0473  0.1459
17758W        W33227   1.255   3.890  16.461 -0.3051  0.1915 -0.1120
17759W        W33228   7.515   3.491   1.913  0.0322  0.0435  0.1990
17760W        W33229   1.434   1.926  11.580  0.0124  0.0768  0.1893
17761W        W33230   7.489   2.415   4.900 -0.3664  0.1232  0.4109
17762W        W33231  15.731  16.186   4.524 -0.0455  0.2372  0.1578
17763W        W33232  16.493   2.895  14.288  0.2493  0.1334  0.0365
17764W        W33233  13.618   6.337   2.211  0.1050  0.1033  0.1184
17765W        W33234   4.303   2.641   5.481 -0.1145 -0.0575 -0.1388
17766W        W33235  16.025  13.066   3.474  0.1437 -0.2704  0.0269
17767W        W33236  11.098   8.764   1.347  0.0481 -0.2432 -0.0439
17768W        W33237   5.117  17.002   4.520 -0.2996  0.0466  0.2473
17769W        W33238   6.496  10.261  11.395 -0.1562  0.1090 -0.2287
17770W        W33239   4.913   4.260   0.831 -0.1022 -0.0768  0.2831
17771W        W33240   4.304   4.890  15.467 -0.0273  0.0656 -0.0081
17772W        W33241  11.037   1.746  14.176 -0.3304  0.0770  0.0077
17773W        W33242   8.787  11.326  11.307  0.1053  0.2304 -0.5177
17774W        W33243  17.461  12.351  15.784 -0.0954  0.0641 -0.2536
17775W        W33244  14.518   2.059  11.579 -0.2221 -0.1392 -0.2819
17776W        W33245   9.891   0.460   0.947  0.0213  0.1339  0.0421
17777W        W33246  14.681   5.572   2.582  0.0635 -0.1507  0.0630
17778W        W33247  10.396  15.920   5.549  0.2464 -0.1774  0.0859
17779W        W33248  16.362  16.497   2.820  0.0503  0.0125 -0.1176
17780W        W33249   8.650   8.851  10.045  0.0378 -0.1478 -0.0371
17781W        W33250  14.756   8.760  12.057  0.0079  0.2262  0.0669
17782W        W33251   7.788   5.703   5.213 -0.1537 -0.0009  0.1746
17783W        W33252   2.254   2.402   0.632  0.0049  0.2036  0.0306
17784W        W33253   9.104   6.177  13.605 -0.1555  0.0873 -0.2024
17785W        W33254   7.414   8.114   3.024 -0.0670  0.0357  0.4910
17786W        W33255  16.826   5.649   2.829 -0.1811 -0.1979 -0.3088
17787W        W33256   6.948   2.322   4.981  0.1575  0.0872  0.0163
17788W        W33257  10.569   7.229  10.843 -0.1319  0.0129 -0.0119
17789W        W33258   4.596   6.569  12.922  0.4149  0.1357  0.0347
17790W        W33259   8.450  12.628  12.717  0.1091  0.0778  0.2694
17791W        W33260  11.142  15.948  15.569  0.1238  0.1928  0.1028
17792W        W33261  11.932  10.785  10.299  0.0804  0.0788  0.2540
17793W        W33262  10.896  17.505   0.071 -0.0499 -0.0919  0.0563
17794W        W33263   1.698   7.866   4.721 -0.0261  0.2012 -0.0164
17795W        W33264   9.128   0.518   5.895  0.1464  0.1470 -0.1104
17796W        W33265  17.058   2.908   1.005  0.2018 -0.0109 -0.0751
17797W        W33266   0.415   9.667  14.575  0.1027  0.0578 -0.0158
17798W        W33267  12.924  13.486   3.438  0.0900 -0.0878 -0.3148
17799W        W33268  12.586   7.146   5.327 -0.0963  0.0462 -0.0064
17800W        W33269   7.880  13.724  11.498  0.1999 -0.0176  0.0674
17801W        W33270  14.000  11.867   2.015 -0.0408 -0.2162  0.1817
17802W        W33271   6.025  17.477  11.941 -0.0973 -0.0073 -0.1016
17803W        W33272  10.967  14.980  15.351 -0.2414  0.0605 -0.0380
17804W        W33273   5.926  17.281   1.999 -0.0494  0.1185 -0.0061
17805W        W33274  15.162   4.688   1.969  0.1229  0.1909 -0.1418
17806W        W33275   3.421   9.868  16.052 -0.3791  0.0481 -0.0119
17807W        W33276   5.510   6.648   5.650  0.2180 -0.0453  0.1337
17808W        W33277  17.152   8.119   4.013  0.2060 -0.4789  0.2249
17809W        W33278   7.942   9.743   4.005 -0.0125  0.1660 -0.1284
17810W        W33279   3.991   3.611   0.020  0.0845  0.1828  0.1679
17811W        W33280   1.436  17.958   6.550 -0.2610  0.0357 -0.1086
17812W        W33281   9.859   9.522   0.612 -0.6093  0.0097 -0.1711
17813W        W33282  16.312   0.754   4.721 -0.1879  0.1518 -0.0324
17814W        W33283   1.948  17.557   0.157  0.3434  0.0706 -0.0563
17815W        W33284   0.612   2.709  15.976 -0.0561 -0.1767 -0.1286
17816W        W33285   7.180  15.079   2.171  0.3088  0.0925 -0.0306
17817W        W33286  13.703   0.034   3.532  0.0916 -0.1271  0.1820
17818W        W33287  17.829   4.042   4.059 -0.1326  0.0574 -0.3249
17819W        W33288   8.231   1.929  11.911 -0.3586 -0.1875 -0.0800
17820W        W33289   3.392   3.874   1.205  0.0527  0.1087  0.1894
17821W        W33290   4.852  12.372  12.991 -0.2512 -0.1623  0.3879
17822W        W33291   7.015  11.721  16.260 -0.1794 -0.0800  0.0224
17823W        W33292   0.083  11.504   5.240 -0.0119 -0.0885 -0.1018
17824W        W33293   6.699   8.808   0.621  0.0463 -0.0723 -0.0628
17825W        W33294   1.401  13.168   0.852  0.3639  0.0242  0.3599
17826W        W33295   6.720   7.587   1.512 -0.0417 -0.0023  0.1304
17827W        W33296   6.263  13.712   0.077  0.2184 -0.2819  0.0168
17828W        W33297   9.471  17.336  11.830  0.1588  0.0100  0.3313
17829W        W33298  13.960  13.463  12.932 -0.0919 -0.0635  0.1025
17830W        W33299   8.024   7.605   2.049 -0.0894  0.0881 -0.0739
17831W        W33300  17.303   1.587   5.196  0.0538 -0.0510 -0.2083
17832W        W33301  12.291   9.955  11.291 -0.2993 -0.0756 -0.1393
17833W        W33302   8.267   2.365   0.234  0.0577 -0.0501  0.0069
17834W        W33303   5.543  14.996   6.493 -0.0119 -0.2150  0.0182
17835W        W33304  12.307  17.714   4.393 -0.0537  0.0186  0.2016
17836W        W33305   3.139   6.857   4.410  0.2287  0.2078  0.1566
17837W        W33306   8.684   9.402  11.638 -0.0090 -0.2436  0.0172
17838W        W33307  11.960   3.975  12.656  0.3185 -0.4221  0.1452
17839W        W33308   8.765   9.991  14.597 -0.2233 -0.2000 -0.0443
17840W        W33309   6.358  15.461  14.765 -0.0121  0.1540 -0.0898
17841W        W33310   7.287  15.948   0.096 -0.3007  0.0721 -0.0728
17842W        W33311   6.149   1.120   4.771  0.0360 -0.1716 -0.0885
17843W        W33312   4.519  14.614  13.033  0.0067  0.2110 -0.0426
17844W        W33313   2.368   1.095   5.762 -0.0272  0.1246 -0.1622
17845W        W33314  14.101  13.221  14.435  0.0600 -0.1498 -0.0438
17846W        W33315  15.395   8.896  13.162  0.0647 -0.0636 -0.0853
17847W        W33316   9.415   3.890   5.323 -0.2780 -0.3387  0.2596
17848W        W33317   0.403  13.687  12.778  0.3227 -0.2818  0.1315
17849W        W33318   2.311   7.207   2.709  0.0013  0.0094  0.0301
17850W        W33319   0.575   8.264   1.791  0.1495 -0.1116  0.2911
17851W        W33320   1.825   0.563  14.025  0.1748 -0.1819 -0.1468
17852W        W33321  14.183  12.051   0.850 -0.4477 -0.1208  0.0192
17853W        W33322   9.839   1.987  14.793 -0.3794  0.0758  0.0280
17854W        W33323   3.865   4.795   1.436 -0.0341 -0.0520 -0.1859
17855W        W33324  12.726   2.635  10.293  0.1061 -0.2773  0.1450
17856W        W33325   6.403   6.515  15.095 -0.2667  0.1682  0.0802
17857W        W33326  17.112  15.108  15.965 -0.1341 -0.2828  0.0723
17858W        W33327  14.836   2.914  12.012 -0.1647 -0.0468  0.0774
17859W        W33328   7.263   5.730   0.200  0.1219 -0.0776  0.1348
17860W        W33329   8.130   9.790  14.835  0.0483  0.1236  0.0951
17861W        W33330   9.418   3.241  12.430  0.0115  0.3169  0.0407
17862W        W33331  11.447   0.738  12.197  0.1561 -0.2244 -0.4973
17863W        W33332  17.332  13.850   3.603  0.1030  0.1153  0.0347
17864W        W33333  13.671  17.408  14.909  0.0338  0.1013 -0.0921
17865W        W33334  17.252  15.114  11.830  0.1988 -0.2491 -0.0668
17866W        W33335  12.275   8.832  14.682 -0.0730 -0.3549 -0.0829
17867W        W33336   1.364  11.402   4.042 -0.0174 -0.1915  0.1229
17868W        W33337   3.719   0.873   0.784 -0.0188  0.0171 -0.0654
17869W        W33338   9.788  10.530   2.729  0.2298  0.0814  0.2639
17870W        W33339   1.763   7.384   4.798 -0.2786 -0.0800 -0.0305
17871W        W33340  17.249  10.668  13.251  0.1358 -0.0563  0.0549
17872W        W33341  11.049   5.860  15.189  0.0118  0.3913 -0.0178
17873W        W33342  11.613   5.686  16.012  0.3230  0.2157 -0.1039
17874W        W33343   7.801   7.526  16.028  0.0799  0.1144  0.1909
17875W        W33344   8.832   9.391  13.749  0.0121  0.3998  0.2218
17876W        W33345   0.847   0.660  14.846 -0.1246 -0.0493 -0.2726
17877W        W33346   9.324   1.322   2.017 -0.2570  0.1024  0.1537
17878W        W33347   1.512  15.122   0.368 -0.0332 -0.0472  0.2657
17879W        W33348  14.257  12.074  14.158 -0.2119  0.3271 -0.0153
17880W        W33349   2.437  10.752   0.500 -0.1148  0.1410 -0.1049
17881W        W33350  11.924   1.379   4.186  0.0280  0.2484  0.0950
17882W        W33351   5.077   2.508  15.641  0.0743 -0.4159 -0.0361
17883W        W33352   9.169   5.562   2.837 -0.2792 -0.1040 -0.1598
17884W        W33353  10.271   7.796   2.551 -0.1133 -0.2189 -0.3250
17885W        W33354   8.619   3.171  11.687 -0.3482 -0.0544  0.2580
17886W        W33355   1.731  10.417  10.540 -0.2567  0.0159 -0.0166
17887W        W33356   6.696   6.589  10.649 -0.0364 -0.2336 -0.0009
17888W        W33357   0.393   2.457   5.218 -0.3428 -0.0297 -0.0852
17889W        W33358  14.062   7.638  14.444 -0.1725  0.1713 -0.4873
17890W        W33359   7.342  13.169  12.042  0.2807  0.0707 -0.1245
17891W        W33360  17.753  16.607  11.814 -0.0172  0.0144 -0.0379
17892W        W33361   9.725  17.458   3.236 -0.3292  0.4860  0.0632
17893W        W33362   4.973   2.398   1.864 -0.2762  0.0148 -0.0012
17894W        W33363  17.526  10.381   4.589 -0.2225 -0.2054  0.1307
17895W        W33364   2.897  15.266   2.946  0.0765  0.1020  0.0090
17896W        W33365   7.560   4.249  14.093  0.0684  0.0527  0.1181
17897W        W33366  14.115   6.201   4.726  0.1999  0.2205 -0.0456
17898W        W33367   5.160   0.059  14.594 -0.0631  0.0331 -0.0101
17899W        W33368  17.855  10.979   0.597 -0.1580  0.0966 -0.1377
17900W        W33369  14.966   4.212   2.255  0.3644 -0.0538 -0.3338
17901W        W33370  13.382  17.635   3.604 -0.1908  0.1027  0.0639
17902W        W33371   1.838   0.537   0.102 -0.0786  0.0578 -0.1168
17903W        W33372   5.237   8.437   3.904 -0.1370 -0.1330  0.0573
17904W        W33373   0.980   6.436  11.228  0.0352  0.4434 -0.0096
17905W        W33374  16.296   4.185  12.275 -0.0818  0.0887 -0.2403
17906W        W33375   3.722  10.387   0.048 -0.2768 -0.1209 -0.2230
17907W        W33376  14.099   6.833  12.587  0.3570  0.2949  0.3787
17908W        W33377  10.445   2.353  12.466  0.0665 -0.1694 -0.0374
17909W        W33378  17.311   1.703   4.684 -0.0898  0.4152 -0.1815
17910W        W33379  11.705  16.397   1.363 -0.1200  0.0093  0.0515
17911W        W33380   4.403   6.491   0.043  0.1311  0.1401 -0.1176
17912W        W33381  13.619   5.063   2.056  0.1019  0.0640  0.2515
17913W        W33382   0.789  17.314  14.813  0.1183 -0.0512  0.4585
17914W        W33383  10.952   5.293  12.518 -0.3168 -0.2064 -0.0130
17915W        W33384   4.751   1.702   0.505 -0.0432 -0.1578 -0.2558
17916W        W33385  15.093   4.171  11.697 -0.0942  0.1348 -0.3638
17917W        W33386   4.859  10.287   4.293 -0.2645 -0.0789  0.0578
17918W        W33387  11.701   0.399  14.356 -0.2758 -0.0238 -0.1687
17919W        W33388   0.820   6.070   1.619  0.3796 -0.1849 -0.1845
17920W        W33389  13.472  14.253   2.259  0.1787 -0.0414  0.1283
17921W        W33390   4.420  11.306  15.410  0.0452 -0.0288 -0.0755
17922W        W33391   7.328   7.570  12.481 -0.0499 -0.0394 -0.0288
17923W        W33392   1.939   0.361   4.467  0.1935  0.1548 -0.2463
17924W        W33393   7.348   1.817   5.627  0.2018 -0.0274  0.3832
17925W        W33394   5.917  11.401   0.531  0.0606 -0.1894 -0.0015
17926W        W33395   8.904   1.453  11.828 -0.1968  0.0010 -0.1032
17927W        W33396   7.416  10.940  11.590  0.0609  0.1921 -0.0475
17928W        W33397  14.451  17.841   0.142 -0.0677 -0.1004  0.3020
17929W        W33398   6.894   1.074   1.836  0.1818 -0.3981 -0.0764
17930W        W33399  13.225  11.564   3.121 -0.1632 -0.1675  0.0953
17931W        W33400   2.866   7.048  10.686 -0.0225  0.0806 -0.2526
17932W        W33401   9.201   7.756  13.146 -0.0863 -0.1406 -0.1564
17933W        W33402   2.650  11.761   2.863  0.1175  0.1508 -0.2644
17934W        W33403   5.020  16.604   5.830 -0.0914 -0.2047  0.1292
17935W        W33404   5.718   3.995  13.512  0.2415  0.4693  0.2444
17936W        W33405   1.556  12.316  12.486 -0.1802 -0.0857  0.1635
17937W        W33406  15.172   1.785  16.362  0.1731 -0.0814  0.3415
17938W        W33407   0.127  15.044   4.593  0.1674 -0.0627  0.3750
17939W        W33408  14.399  13.784  13.183  0.0902  0.4054 -0.5026
17940W        W33409  17.729   2.667   4.618 -0.4658  0.0753 -0.1197
17941W        W33410   2.838  16.649   3.820  0.0703 -0.0633 -0.0711
17942W        W33411   5.014  17.892  11.462  0.2626  0.1987  0.1790
17943W        W33412   4.061   1.279   1.051 -0.3262  0.2972  0.0799
17944W        W33413   7.673   3.061  12.425 -0.0624  0.2807 -0.0362
17945W        W33414   2.553  14.574  15.549 -0.0284 -0.2062 -0.0754
17946W        W33415  16.952  13.566  12.979  0.1874  0.1044  0.0434
17947W        W33416  16.289  12.547   5.173 -0.2645  0.2004  0.0384
17948W        W33417   1.653  10.624  13.910 -0.0240  0.0078 -0.1005
17949W        W33418   2.568   6.237   0.614  0.2340  0.1715 -0.3583
17950W        W33419  15.827  12.338   5.200 -0.3722  0.1326  0.2231
17951W        W33420   6.683  13.958  13.437 -0.0741 -0.0872  0.3231
17952W        W33421  11.841  10.995   1.373  0.1597  0.1534 -0.1914
17953W        W33422   6.788  14.054   0.569  0.1645 -0.0107 -0.0414
17954W        W33423   2.852  17.209  12.339 -0.2705 -0.1280  0.0251
17955W        W33424  14.049   0.486   4.200 -0.1493 -0.3167 -0.0905
17956W        W33425  12.457   4.223  15.092 -0.1889  0.1271  0.1843
17957W        W33426   1.840  17.240  11.574 -0.0933  0.0117 -0.2237
17958W        W33427  11.970  10.549  14.316 -0.1017  0.1568 -0.0906
17959W        W33428   0.740   1.819  12.769  0.1192 -0.3220 -0.1180
17960W        W33429   9.158   7.380  12.799  0.0917  0.0290 -0.2089
17961W        W33430   4.783  15.099  12.967  0.0526  0.0353  0.3089
17962W        W33431  16.188   8.296  16.604  0.2216 -0.1478 -0.1801
17963W        W33432   6.002  11.936  13.275  0.0012 -0.2964 -0.0080
17964W        W33433   2.105   8.942   0.510  0.1201 -0.1361 -0.1902
17965W        W33434   2.295   6.858  14.328  0.1150  0.1775  0.0628
17966W        W33435   0.342   7.565  15.389 -0.1934  0.1971 -0.2539
17967W        W33436   5.114   5.736   2.255  0.0541 -0.0235 -0.0340
17968W        W33437   8.651   1.856   3.977  0.0701 -0.1782 -0.0325
17969W        W33438   7.910   4.954  10.663 -0.1226  0.3448 -0.0617
17970W        W33439   0.519  10.156   4.322 -0.2096 -0.0281 -0.0980
17971W        W33440  10.096   8.290   2.321 -0.1207  0.0097 -0.0363
17972W        W33441   1.802   4.462  10.818 -0.0776 -0.2100  0.0488
17973W        W33442   0.835   6.491   4.034 -0.0406 -0.0547 -0.2231
17974W        W33443   0.027  11.710  11.115 -0.0879  0.1393 -0.1264
17975W        W33444  11.627   9.497  16.103 -0.3197  0.0202  0.1466
17976W        W33445  10.090  10.935  15.996  0.1115 -0.2754 -0.2844
17977W        W33446   7.416   2.465   0.396 -0.0250 -0.2677  0.0083
17978W        W33447  12.308  10.486   0.172 -0.0332  0.5251 -0.0386
17979W        W33448  11.044   8.193   3.172  0.0895  0.1380 -0.1402
17980W        W33449  14.833   5.340   1.585  0.1009  0.2946 -0.3387
17981W        W33450  14.886   3.472  15.209  0.4209  0.1031  0.1712
17982W        W33451   3.031   4.243  12.702 -0.1333 -0.2051  0.0702
17983W        W33452  12.384   1.396  16.405  0.0984 -0.0660 -0.1322
17984W        W33453   4.575  10.525  13.843 -0.0103 -0.3773 -0.2069
17985W        W33454   1.962   1.674  16.055  0.4152 -0.1900 -0.0206
17986W        W33455  12.072  10.604  13.816 -0.1267  0.0403 -0.1291
17987W        W33456  11.127  10.163  15.145  0.2573  0.0989  0.2947
17988W        W33457  16.560   3.521   5.468 -0.2245 -0.0614 -0.1980
17989W        W33458   9.185   7.407  15.397  0.0876  0.3075 -0.1075
17990W        W33459   2.522   3.853   1.660  0.1092 -0.1472  0.3200
17991W        W33460   0.838   5.974  11.400 -0.4030  0.3029  0.0489
17992W        W33461   6.686  16.261   3.532  0.0059 -0.0240  0.3114
17993W        W33462  11.124   8.432  11.174  0.0707  0.1054  0.1041
17994W        W33463  11.128   4.974   2.286 -0.0307 -0.0068 -0.1849
17995W        W33464   9.413   3.404  11.519 -0.0526 -0.0946 -0.1505
17996W        W33465   3.661  11.821   0.796 -0.1950 -0.1406 -0.0931
17997W        W33466   7.683  14.303  14.367 -0.0258 -0.0344  0.1742
17998W        W33467   8.425   0.911   1.510 -0.1114 -0.0674 -0.4218
17999W        W33468   8.375  14.106  13.983 -0.0947 -0.2092 -0.0376
18000W        W33469   9.416   2.851   3.518  0.3624  0.0388  0.0320
18001W        W33470   8.367  12.604  15.159 -0.0542  0.2923 -0.4021
18002W        W33471  10.002  11.562  13.456  0.0424 -0.2720  0.0393
18003W        W33472   7.396   2.081   2.658 -0.3111 -0.0025  0.2265
18004W        W33473  16.234   4.101  14.734  0.0708  0.0014 -0.1479
18005W        W33474  12.652   6.642  13.976 -0.0797  0.1561 -0.2589
18006W        W33475  17.124   5.634   2.015 -0.0985  0.0767  0.1217
18007W        W33476   5.626  17.946  13.513 -0.1017  0.3484  0.3408
18008W        W33477   8.831   5.179   3.409 -0.0189  0.1670 -0.4315
18009W        W33478  11.629   5.874  15.468 -0.2222 -0.0666 -0.1420
18010W        W33479  16.473   3.098  12.428 -0.0916  0.0061  0.0607
18011W        W33480   7.890   8.462  16.044 -0.1407  0.2133 -0.0621
18012W        W33481   4.769   8.016   5.057 -0.1505  0.0236 -0.2011
18013W        W33482  10.080   1.066  11.429  0.0231 -0.0760 -0.0279
18014W        W33483   8.763  12.162  12.529 -0.1642 -0.1051 -0.0821
18015W        W33484   5.513   2.428   3.321 -0.0138  0.1170  0.0444
18016W        W33485  17.952   9.567   4.791 -0.0409 -0.0643  0.2843
18017W        W33486   6.933  11.000   2.686 -0.2045 -0.0488 -0.0464
18018W        W33487   9.660  10.445   5.356  0.1349 -0.1451 -0.2314
18019W        W33488  12.434  10.404  13.462 -0.1489  0.1301 -0.3185
18020W        W33489  14.804   5.009   0.280  0.2537  0.2144  0.0621
18021W        W33490   2.069  13.351  12.554  0.1005 -0.1425  0.0669
18022W        W33491   6.237  17.151  15.005 -0.1833 -0.4274 -0.0160
18023W        W33492  16.391   5.757   3.718 -0.2519  0.3332 -0.1726
18024W        W33493  13.861  14.842   1.415  0.0350 -0.1434  0.1540
18025W        W33494   1.738   0.703  15.808 -0.0377 -0.0230  0.1347
18026W        W33495   2.573  10.033   1.811 -0.1427 -0.1979  0.0186
18027W        W33496  14.383  10.043   3.017  0.1717  0.0322 -0.0556
18028W        W33497   5.525  12.871  13.053 -0.1736 -0.1380  0.4603
18029W        W33498  11.464   1.939   5.836  0.0828  0.0643  0.3433
18030W        W33499  17.352   2.091   5.063 -0.0744  0.2204 -0.2874
18031W        W33500   0.765   7.726  10.160 -0.2227 -0.1202 -0.0329
18032W        W33501   5.807  17.669  14.283 -0.0860 -0.0748 -0.1140
18033W        W33502  14.305  10.183  12.350 -0.4368  0.3058  0.0715
18034W        W33503   4.655  11.533   0.440  0.0201  0.0018 -0.0820
18035W        W33504  16.758   0.481   4.594  0.0915  0.1109 -0.3717
18036W        W33505   2.165   1.394   2.650  0.1761  0.1450 -0.0609
18037W        W33506   1.742   7.813  10.500 -0.1150  0.0882 -0.0320
18038W        W33507   7.457  12.933  13.060  0.0378 -0.2047  0.0334
18039W        W33508   4.877  14.399  12.101  0.3018  0.0899  0.1392
18040W        W33509   0.008   7.732   4.294  0.3122  0.0559  0.0830
18041W        W33510   4.883   9.139  14.617 -0.0604  0.1663  0.2274
18042W        W33511   9.206   7.143  14.337  0.3331  0.1178 -0.1628
18043W        W33512   5.948  12.294   3.546 -0.1034 -0.1162 -0.1180
18044W        W33513   0.709   2.856   1.399  0.0214  0.0972 -0.1487
18045W        W33514   3.078  17.049   3.029  0.0394 -0.0189  0.1473
18046W        W33515  10.716   8.485   2.134  0.1427  0.0608 -0.3659
18047W        W33516   0.364   8.165   5.163  0.2814 -0.3162 -0.1351
18048W        W33517   3.245   1.433   4.365  0.1876 -0.0131  0.2230
18049W        W33518  10.100   1.786   1.681 -0.0243  0.0775  0.0078
18050W        W33519   1.080  12.971  15.582  0.0131 -0.0364  0.1032
18051W        W33520  10.024   9.855  16.332  0.0163 -0.2562 -0.1730
18052W        W33521   8.834   3.981   2.817 -0.1925 -0.3671  0.0821
18053W        W33522  16.102  15.984   5.075 -0.4819  0.3152 -0.3637
18054W        W33523  12.048   0.895   0.636  0.1451 -0.2205  0.1128
18055W        W33524  11.789   8.176   6.139  0.2163  0.1488  0.2926
18056W        W33525   1.878   7.024  15.865 -0.4754  0.1166  0.0415
18057W        W33526   6.702   6.596   2.853  0.0436 -0.1447  0.1994
18058W        W33527   7.526  13.258  13.713  0.2525 -0.3226 -0.2588
18059W        W33528   4.779   8.769   5.890  0.1392  0.0024 -0.1210
18060W        W33529   4.803  11.430  12.618 -0.1455  0.0362 -0.2025
18061W        W33530   2.816  13.873  11.594  0.1939 -0.2035 -0.1285
18062W        W33531   4.162   8.689  11.315  0.1626  0.2522  0.1113
18063W        W33532  15.945  11.243  13.479  0.1103  0.2394 -0.1518
18064W        W33533  17.383   2.209  13.459 -0.0718  0.0645  0.0557
18065W        W33534  13.148   5.532  16.010 -0.2131 -0.2364  0.1429
18066W        W33535   5.621  11.413   6.358  0.0849  0.0852 -0.0957
18067W        W33536  13.584   6.320   0.399  0.1431 -0.2479 -0.2977
18068W        W33537  17.098  17.397   2.137 -0.2186 -0.0565  0.1745
18069W        W33538  10.222   1.526  11.730  0.5327  0.1593 -0.0304
18070W        W33539   2.669  16.574   5.918 -0.1135  0.1446  0.0688
18071W        W33540  11.999   6.327   1.097 -0.0958 -0.1643  0.0761
18072W        W33541   3.435   9.574   0.084  0.0711  0.1651 -0.0643
18073W        W33542   8.106   0.734  15.590  0.0343 -0.0791  0.0957
18074W        W33543   9.957   3.185  13.642 -0.1169 -0.1717 -0.0742
18075W        W33544  14.227   3.028  14.970  0.2087  0.0479 -0.0684
18076W        W33545   9.825   9.877   2.097 -0.1467 -0.1204 -0.0934
18077W        W33546   3.857   2.575  16.528 -0.3400 -0.2262  0.1320
18078W        W33547  15.762   9.310   3.307  0.1260 -0.1346  0.0803
18079W        W33548   2.885   5.176   3.475  0.0752 -0.5052  0.0005
18080W        W33549   9.206   5.017   2.963  0.2460 -0.0021  0.2307
18081W        W33550  11.538   5.531  13.957 -0.0400 -0.1317  0.0333
18082W        W33551   6.229  12.243  12.745 -0.1521 -0.1501  0.0856
18083W        W33552   8.482  12.640   3.102  0.0106 -0.0178 -0.4175
18084W        W33553   5.179  15.791  15.053  0.0441 -0.1798  0.2126
18085W        W33554  15.399   0.766   4.757 -0.0853 -0.1819  0.1811
18086W        W33555   0.879  13.166   3.704  0.1954  0.4235 -0.0974
18087W        W33556   2.227  17.292  15.130  0.0842  0.0174  0.4811
18088W        W33557  16.424   5.095  13.632  0.0623 -0.2400  0.0808
18089W        W33558  14.581  17.507   1.393 -0.3529 -0.0950  0.0910
18090W        W33559   1.881  17.876   4.472 -0.0212  0.0990  0.0048
18091W        W33560  12.436   5.101  10.206 -0.0885 -0.0005 -0.0024
18092W        W33561   0.916   1.793   2.841  0.0542  0.0603  0.2727
18093W        W33562   7.669  10.279   6.219 -0.0649 -0.0178 -0.0105
18094W        W33563   7.568   0.876   0.017  0.0124  0.1591 -0.3010
18095W        W33564   1.256   1.796   4.400 -0.2358  0.1201 -0.0045
18096W        W33565  12.044  11.897  12.145  0.3247 -0.2509  0.0645
18097W        W33566   6.516   3.164   4.016  0.3605  0.0237  0.0319
18098W        W33567   3.892  12.593   4.529 -0.2135 -0.1998  0.0138
18099W        W33568   8.190  10.444   5.456  0.0149 -0.0532 -0.4203
18100W        W33569  13.102  14.949   4.655 -0.2346  0.2001 -0.2256
18101W        W33570  13.031  17.744   3.978 -0.3369  0.0048  0.1474
18102W        W33571  14.039   8.266   5.077 -0.0141  0.0027  0.0397
18103W        W33572   8.500  13.126   3.148 -0.2387 -0.0282 -0.0676
18104W        W33573  13.571   4.404   0.459 -0.0718 -0.0470 -0.0501
18105W        W33574   3.107  14.483   0.579  0.2161 -0.2331 -0.1045
18106W        W33575   2.129  14.900   3.089 -0.1762  0.0895  0.4878
18107W        W33576   2.704  13.029   5.995  0.0540 -0.0642  0.1881
18108W        W33577   2.211   7.040   2.259 -0.0013 -0.1037  0.0704
18109W        W33578  17.639   4.395  16.405 -0.1922 -0.3064  0.1115
18110W        W33579  15.528   7.483   1.700  0.1930 -0.0189 -0.1068
18111W        W33580   0.016  11.541   4.370 -0.1649 -0.3142  0.0940
18112W        W33581  15.094   4.128  13.338  0.1376  0.0564 -0.0993
18113W        W33582   6.266  15.870  15.723  0.0842 -0.3302  0.1690
18114W        W33583  12.088  15.597   4.575  0.1621  0.0169  0.1714
18115W        W33584   5.034   1.603   5.728  0.0237 -0.0119  0.0708
18116W        W33585  13.341   7.079  13.070 -0.1641 -0.2976  0.1562
18117W        W33586   5.187  17.071   5.899 -0.0597  0.1619 -0.0502
18118W        W33587   9.723  16.486  11.786 -0.1737 -0.0422 -0.2235
18119W        W33588   3.731   5.384   3.508  0.0252  0.3607 -0.0537
18120W        W33589  10.215  12.002  13.368 -0.1757 -0.1821 -0.0690
18121W        W33590   8.268   2.530   6.438  0.3519 -0.1926 -0.2332
18122W        W33591   3.001   7.218  14.651 -0.0062  0.0019 -0.0905
18123W        W33592   3.508   4.034  11.340 -0.0179  0.3548  0.0354
18124W        W33593   8.541   1.167   2.270  0.1985 -0.1486  0.0571
18125W        W33594   1.354   1.410   2.844 -0.0855  0.2310 -0.0687
18126W        W33595   2.869   3.720   0.166  0.1529  0.1933  0.1965
18127W        W33596   1.182   9.413   5.362  0.2089 -0.3173 -0.1663
18128W        W33597   9.543  12.303   3.282  0.0398  0.0204 -0.0620
18129W        W33598  10.161  16.762   0.246 -0.0866 -0.1921 -0.0447
18130W        W33599  12.243  14.427   3.616 -0.1499  0.1464 -0.1675
18131W        W33600  12.908   6.236  14.058 -0.1488  0.0830  0.1318
18132W        W33601  15.729  11.941  10.083  0.1478  0.1804 -0.1638
18133W        W33602   5.265   7.766  12.013 -0.1806  0.0305  0.1938
18134W        W33603   0.971  14.458   6.638 -0.0409  0.0980  0.2889
18135W        W33604  15.337  16.687  15.012 -0.0700 -0.0411 -0.2620
18136W        W33605   6.927   5.786   3.254  0.2596  0.0198 -0.2916
18137W        W33606   4.023   1.253   1.548  0.0020 -0.0454 -0.1386
18138W        W33607   4.837  13.224  12.862 -0.3453 -0.1615 -0.0282
18139W        W33608   4.521   0.736  11.765  0.2908  0.1090  0.0554
18140W        W33609  10.987  15.334  13.519  0.0954 -0.2157  0.0094
18141W        W33610  15.668   3.769  15.523 -0.1625  0.0504  0.1027
18142W        W33611   3.611   7.164   4.951 -0.1124  0.3568  0.1253
18143W        W33612   3.882  16.924   5.932 -0.1246 -0.0277 -0.1762
18144W        W33613   2.731  12.941   4.003  0.0056 -0.0390  0.1631
18145W        W33614  11.571  14.601   1.478  0.0523  0.0837 -0.0026
18146W        W33615  17.526  12.712   5.735 -0.2992 -0.0818  0.0246
18147W        W33616   0.193   4.043  10.920 -0.0733 -0.2432 -0.0360
18148W        W33617  14.022  14.747   3.522  0.0163  0.0596  0.0332
18149W        W33618  10.628   8.453   1.661  0.0593  0.3741 -0.1022
18150W        W33619  17.748  11.412  13.240 -0.1672  0.0213 -0.3914
18151W        W33620   0.932  15.268  12.405 -0.0528  0.2576 -0.1478
18152W        W33621  13.472   8.416   1.348  0.0139 -0.1525  0.3948
18153W        W33622   3.745   8.926  11.445  0.0864 -0.0161  0.2177
18154W        W33623   8.647   7.407  11.100 -0.1083 -0.1746 -0.0802
18155W        W33624   6.641   6.513   2.255  0.2075 -0.0786  0.3493
18156W        W33625  15.349   7.121   5.440 -0.2705 -0.0825  0.1901
18157W        W33626   1.976   1.831  15.121 -0.5025  0.0320 -0.0663
18158W        W33627   3.299   6.326   3.026 -0.0420  0.0958 -0.0423
18159W        W33628  14.564  12.594  15.723 -0.2874  0.0455 -0.4044
18160W        W33629  16.753   2.375  15.155 -0.0001 -0.2097 -0.0320
18161W        W33630  13.614  13.772  11.567  0.0165  0.0588  0.1313
18162W        W33631   5.642  11.721  16.164  0.1754  0.4240 -0.1397
18163W        W33632   0.984   7.121   0.706  0.2188  0.0608  0.2077
18164W        W33633   8.804  15.932   0.963 -0.0871  0.0459  0.2911
18165W        W33634   2.102  13.141   0.247  0.0231  0.1477 -0.0355
18166W        W33635   7.409  16.194   0.500  0.0792 -0.0120  0.0471
18167W        W33636   3.877   0.786  14.991 -0.3146 -0.0906 -0.1240
18168W        W33637   0.971  11.191  13.395  0.1397  0.0121 -0.0797
18169W        W33638   9.932  11.660   3.829 -0.1184  0.0065  0.3114
18170W        W33639  14.989  11.703  13.560  0.0868  0.1969  0.1814
18171W        W33640  13.475  16.618  12.209 -0.0872 -0.2756  0.2652
18172W        W33641   1.671   0.109   2.466  0.2644 -0.2137 -0.1441
18173W        W33642   9.966   9.406  12.185 -0.0298  0.1537  0.0589
18174W        W33643   3.121  17.614  13.657 -0.1292  0.1060  0.0981
18175W        W33644  10.226   7.902   3.996 -0.0799  0.3333 -0.0584
18176W        W33645   6.959   1.562   3.819  0.1647 -0.4607  0.3117
18177W        W33646   2.085   0.813   4.650 -0.3344 -0.0312  0.3636
18178W        W33647   6.034   4.753   3.549 -0.0650  0.2363  0.4088
18179W        W33648   6.228   6.114  15.440  0.0591  0.0587 -0.0356
18180W        W33649  11.887   3.436   0.839 -0.1358 -0.0572  0.0558
18181W        W33650  16.071   8.710   2.995  0.1612 -0.0975  0.2984
18182W        W33651   0.188   3.094   3.021 -0.2667 -0.3786 -0.1262
18183W        W33652   3.530   2.342   1.259 -0.0087  0.1952 -0.2820
18184W        W33653   5.039  12.848  13.077 -0.1967  0.2708 -0.0361
18185W        W33654   7.386   8.842  14.362  0.0024  0.0186  0.2333
18186W        W33655   5.404  17.252   1.195  0.2460  0.1880 -0.1150
18187W        W33656  13.058   8.722  15.263 -0.1331  0.1948 -0.3916
18188W        W33657  16.108   2.605   3.460  0.1004 -0.1934 -0.1633
18189W        W33658  10.159  16.924   6.200 -0.1400  0.1262 -0.0667
18190W        W33659  16.524   0.400   0.815 -0.3122 -0.4275  0.1271
18191W        W33660  15.611  13.400  16.260  0.1348  0.0762  0.1214
18192W        W33661  12.078  15.265  13.808 -0.0084  0.1208 -0.4174
18193W        W33662   9.584   3.724   2.401  0.1038 -0.0016 -0.1318
18194W        W33663   3.989   9.365   1.818 -0.0524  0.1488  0.0268
18195W        W33664   6.387   3.820  16.043 -0.1073  0.2697  0.0230
18196W        W33665   2.168   7.005   1.334 -0.0603 -0.0915 -0.0908
18197W        W33666   1.401   6.718   0.582 -0.1883  0.0083 -0.1171
18198W        W33667  10.810  17.781  14.597 -0.1761 -0.0208 -0.2550
18199W        W33668   2.604  12.696  13.255 -0.0661 -0.3396  0.0673
18200W        W33669   7.191   4.215  13.643  0.0083  0.1647  0.0862
18201W        W33670  11.182  12.831  14.641 -0.0422 -0.1740 -0.5293
18202W        W33671   1.790   3.011  15.490  0.0574  0.0638 -0.1034
18203W        W33672   0.808  13.156  11.584 -0.0296  0.1023  0.1221
18204W        W33673  12.707   9.432   1.508  0.0099  0.4187 -0.2910
18205W        W33674   9.603   0.622   5.849 -0.0652  0.2950  0.0401
18206W        W33675   7.274   3.536  14.362 -0.0950 -0.0509  0.0641
18207W        W33676   2.810  17.696  14.035  0.0322  0.0520  0.1237
18208W        W33677   2.645  10.685  14.419  0.3737 -0.2078 -0.2674
18209W        W33678  11.835  14.731   5.845  0.0801 -0.0580  0.1591
18210W        W33679  17.225  12.205   0.546 -0.0109  0.1712  0.0827
18211W        W33680  16.352  16.189  16.585 -0.0736  0.1651  0.2335
18212W        W33681   1.164   3.731  11.800  0.0361 -0.2309 -0.2166
18213W        W33682  15.856  11.729  12.642  0.1065  0.2339 -0.0295
18214W        W33683  10.303   8.415  14.878 -0.1997  0.0061 -0.2005
18215W        W33684   0.815  16.776   3.282 -0.2805 -0.0890  0.0316
18216W        W33685   7.438   2.861  13.444 -0.1820 -0.0523 -0.0267
18217W        W33686   4.895  11.320  13.887  0.0881  0.2638 -0.2637
18218W        W33687   3.414  15.396  12.817  0.1159 -0.1314 -0.0269
18219W        W33688   8.657  14.522  13.083 -0.2128 -0.1566  0.2150
18220W        W33689  16.171  11.922  14.160 -0.0375 -0.1131 -0.0050
18221W        W33690   4.154   7.593  11.100  0.0290 -0.0160  0.3217
18222W        W33691   7.420   7.115   1.825 -0.3093  0.2164  0.0108
18223W        W33692  11.501  12.135   1.319  0.0230  0.0366  0.2414
18224W        W33693   3.960   1.788   3.802  0.0165 -0.3110 -0.0708
18225W        W33694   6.413   9.399  13.039 -0.0803 -0.0453 -0.0330
18226W        W33695   4.244  17.225   2.308  0.2079 -0.1977  0.0560
18227W        W33696  13.242  16.874  15.103 -0.3774 -0.1360 -0.2398
18228W        W33697   5.154  13.910  12.073 -0.0849  0.3687 -0.1099
18229W        W33698  15.767  16.496  15.175 -0.0481  0.0154 -0.0560
18230W        W33699   1.062  13.557   0.920 -0.3188  0.0679 -0.0888
18231W        W33700   9.112   8.341  15.333  0.0445  0.2609 -0.1167
18232W        W33701   9.434   3.233  12.953 -0.0634 -0.2168 -0.0758
18233W        W33702   6.401   5.246  11.775  0.2360 -0.1329  0.2361
18234W        W33703   5.074   8.558   1.607  0.0898  0.1405  0.0029
18235W        W33704  11.380   8.133  12.583  0.1531 -0.1496  0.2305
18236W        W33705  13.856   5.176  12.760  0.1764  0.1180 -0.1507
18237W        W33706  13.811  13.301   4.358 -0.2369  0.2289 -0.1178
18238W        W33707   5.892   8.615  15.526 -0.0499 -0.2502  0.2192
18239W        W33708   9.987   4.115  13.801  0.1091 -0.1469 -0.1960
18240W        W33709  10.695   1.208   4.876  0.1230  0.2991  0.0905
18241W        W33710   1.726   8.605  10.398 -0.0962 -0.0642 -0.1520
18242W        W33711   6.099   8.488  14.566  0.2194 -0.0589  0.0959
18243W        W33712  14.323  10.537  15.973 -0.1326  0.0195 -0.1060
18244W        W33713   0.922   3.321   1.592  0.1070 -0.0322 -0.0236
18245W        W33714  10.680  17.141  13.816 -0.1217  0.0090 -0.0961
18246W        W33715  13.276  13.140  14.962 -0.0575  0.1301  0.2182
18247W        W33716   2.747   0.502  15.222 -0.1366  0.3072 -0.4094
18248W        W33717   7.950   5.239  15.002  0.2623 -0.1699 -0.0811
18249W        W33718   5.212  16.028   2.510  0.2567 -0.0819  0.0621
18250W        W33719  14.496  10.340  16.487 -0.0568 -0.1147 -0.2099
18251W        W33720   9.682   5.396   2.962  0.1306 -0.1064 -0.0755
18252W        W33721   0.268  11.947  14.378 -0.1063  0.1489  0.0237
18253W        W33722  11.917   3.314  12.132 -0.3502 -0.2438 -0.0911
18254W        W33723  11.268   6.913   4.118  0.1633 -0.0162 -0.1786
18255W        W33724  10.703   1.034   1.870  0.1023  0.0411  0.4096
18256W        W33725   2.352  13.735  11.794  0.1367  0.1260  0.0614
18257W        W33726  12.313   2.523  11.453  0.1130  0.1694  0.1116
18258W        W33727  11.286   2.537   3.418  0.4792  0.0157 -0.1716
18259W        W33728   2.170  14.909  15.758 -0.2408 -0.1808 -0.0853
18260W        W33729  16.504  17.492  16.419 -0.2043  0.0360  0.0883
18261W        W33730  11.314   0.106  15.366 -0.1014  0.3721 -0.0155
18262W        W33731   1.843  14.152   0.066 -0.0505  0.0371 -0.2488
18263W        W33732   9.468   5.196  14.820  0.1836  0.1437 -0.0656
18264W        W33733  11.743  10.515  10.669 -0.0561 -0.0004 -0.3326
18265W        W33734   0.074   6.074  11.274 -0.3301 -0.1673  0.1287
18266W        W33735   8.742   3.001  13.988 -0.0353  0.3662  0.1482
18267W        W33736  11.958   0.176   3.362  0.2016  0.1529 -0.1157
18268W        W33737  14.678  16.466   4.816  0.1026  0.0690  0.0408
18269W        W33738   2.987  15.401   0.699 -0.1728 -0.2069 -0.3869
18270W        W33739   8.991  16.741   1.269  0.0270  0.1656 -0.1074
18271W        W33740   4.200  11.842   0.691 -0.2615  0.1421 -0.2267
18272W        W33741   6.525  15.656  15.297 -0.1066 -0.2072  0.2243
18273W        W33742  16.719  11.809   4.171  0.1132 -0.2314 -0.1354
18274W        W33743   9.860   6.229  10.466  0.0071  0.4035 -0.0686
18275W        W33744   4.888  15.904  15.463  0.0957  0.1386  0.2981
18276W        W33745   2.290   4.445  10.779 -0.0584  0.2030 -0.0796
18277W        W33746   1.690  11.196   0.671  0.1535 -0.1244 -0.1342
18278W        W33747  11.170   2.464  11.993  0.1898  0.1022 -0.0754
18279W        W33748   4.842  15.999  15.971  0.0435 -0.2215  0.1178
18280W        W33749   5.340  14.515  13.614  0.1797 -0.0341  0.1609
18281W        W33750  14.678   8.257   1.867  0.3137  0.1667 -0.0506
18282W        W33751   1.738  10.838   3.737 -0.0424  0.0468 -0.1686
18283W        W33752  11.088  17.931   0.121 -0.1646 -0.1772 -0.0102
18284W        W33753  17.603   8.622  15.224 -0.4936 -0.0487 -0.2155
18285W        W33754   4.038  12.969   0.281  0.0258  0.0541 -0.2531
18286W        W33755   8.027   0.521  13.754  0.2202  0.2362 -0.3547
18287W        W33756  13.151   8.142   2.305 -0.3968  0.4552 -0.0206
18288W        W33757   2.724   4.209  15.477  0.0368  0.0930 -0.0722
18289W        W33758   3.855  14.944  15.635  0.0725 -0.2724 -0.2536
18290W        W33759   9.944   3.929   1.367 -0.1179 -0.1929  0.1039
18291W        W33760  11.288  11.975  15.006  0.2157 -0.1167  0.0005
18292W        W33761  12.419   7.647  11.128  0.0266 -0.2949 -0.0392
18293W        W33762  10.872  10.455   1.866  0.0579 -0.2215  0.0383
18294W        W33763  14.315   9.191  11.832  0.2334 -0.1070 -0.0925
18295W        W33764   0.506  15.517  16.170 -0.2471  0.1061  0.2877
18296W        W33765  12.860   3.649  13.883  0.2489 -0.2276  0.0437
18297W        W33766  12.805   9.347   0.905  0.0482  0.2257 -0.1971
18298W        W33767   9.366   3.274  11.027 -0.1097 -0.0358  0.2171
18299W        W33768  11.612   2.679  15.847 -0.0796  0.0449 -0.1344
18300W        W33769   7.297  16.208  13.373  0.2101  0.0760  0.1587
18301W        W33770   6.362  17.624   5.702 -0.0585 -0.2239  0.1053
18302W        W33771   9.163   2.198  13.674  0.4508  0.0375 -0.0234
18303W        W33772   4.091   7.965   0.790  0.2165  0.1204 -0.0861
18304W        W33773  16.405   7.425  13.423  0.1283  0.0297  0.0216
18305W        W33774   3.034   0.999  14.721  0.1332 -0.0522 -0.0967
18306W        W33775   7.100  13.825   4.049 -0.1826  0.0338 -0.1625
18307W        W33776  12.889   5.124   5.558 -0.0249 -0.0433 -0.1689
18308W        W33777   0.527  10.974  12.636 -0.0350  0.1225  0.0573
18309W        W33778  10.118   0.940  13.959 -0.4155 -0.0763 -0.2745
18310W        W33779   5.227   3.784  13.443 -0.2027 -0.0498  0.1487
18311W        W33780   3.450  11.219  12.015  0.0311  0.3459  0.0825
18312W        W33781   0.677   8.307  14.633 -0.3701 -0.1492 -0.2181
18313W        W33782   7.698  13.238  11.676  0.1641 -0.0063 -0.3783
18314W        W33783  16.560   5.988  12.731  0.0686  0.1378  0.2032
18315W        W33784  10.641  10.166   3.651  0.1085 -0.0837  0.1334
18316W        W33785  10.002   8.126   3.351  0.0474 -0.0785 -0.0035
18317W        W33786   4.855   1.077  15.880 -0.2422 -0.2444 -0.1548
18318W        W33787   0.817  12.201   1.744 -0.1154  0.1682 -0.0756
18319W        W33788   8.214   2.553   2.752 -0.1509  0.1854  0.1435
18320W        W33789   8.293   1.186   0.631 -0.2695  0.1914  0.0941
18321W        W33790   5.061  15.157  13.579 -0.1124  0.1466 -0.1510
18322W        W33791   0.780  13.451  13.020  0.1478  0.0340  0.2075
18323W        W33792  11.426  15.091  15.798  0.1297  0.3030 -0.0523
18324W        W33793  15.890   6.300  11.236 -0.1567  0.2102  0.1254
18325W        W33794  12.710  10.831   0.668 -0.2001  0.0020 -0.0216
18326W        W33795   3.012  10.065   4.195 -0.0041  0.1457 -0.2320
18327W        W33796   1.752   1.578   3.554 -0.2428  0.1505 -0.0374
18328W        W33797   3.770  14.861  14.978  0.0465  0.0058 -0.0782
18329W        W33798  16.023   7.302   4.782 -0.1062  0.4038 -0.2994
18330W        W33799  17.705  15.263   4.522  0.1601  0.2350 -0.0849
18331W        W33800   0.509  14.855  14.799 -0.2574  0.3253 -0.1714
18332W        W33801   9.251   4.148   1.345 -0.0740  0.0470 -0.2862
18333W        W33802   1.117  17.276   2.618 -0.3876 -0.3983 -0.0824
18334W        W33803   8.522  16.257  11.030  0.0998  0.0308  0.1066
18335W        W33804  17.797  13.299  13.295  0.0529 -0.1194  0.0706
18336W        W33805   5.883   2.979  13.365 -0.1757  0.0016 -0.0997
18337W        W33806  13.204  11.145  11.991 -0.0701  0.0824 -0.1980
18338W        W33807   9.960   8.419  12.159  0.0964  0.2697 -0.1372
18339W        W33808   5.277   7.674  14.907 -0.0258  0.3108  0.1164
18340W        W33809   4.145  12.933  15.922 -0.1457  0.0045  0.1272
18341W        W33810  17.143  16.186   3.895 -0.2918  0.0192  0.0371
18342W        W33811   3.838   1.611  16.110 -0.2952 -0.0984  0.1872
18343W        W33812  15.351  16.974   5.876 -0.1955  0.1804  0.1628
18344W        W33813   8.931  10.113   1.399 -0.0186 -0.0109 -0.0253
18345W        W33814   2.620   6.267  13.063  0.2485  0.2880 -0.0108
18346W        W33815   8.042  12.793  12.993  0.1878  0.1294 -0.0321
18347W        W33816  12.210   6.636   2.372  0.0467  0.2193  0.0246
18348W        W33817  13.180   6.772  13.516 -0.0294 -0.1198 -0.0217
18349W        W33818  16.210  16.229   6.490 -0.1255  0.1418 -0.0632
18350W        W33819   6.847  15.756   1.738  0.3098  0.0527  0.1241
18351W        W33820  17.566  17.924   3.766  0.0050 -0.1800  0.1644
18352W        W33821   9.173   1.546  14.712  0.0584  0.1517  0.0416
18353W        W33822  16.736  10.267  12.523  0.0957 -0.3894 -0.1139
18354W        W33823   2.032   2.880   4.427  0.0036  0.0043 -0.1078
18355W        W33824   3.542   7.558  14.550  0.1979 -0.1029 -0.1416
18356W        W33825   0.149  17.882   0.444 -0.1254 -0.1778 -0.1618
18357W        W33826  10.210   3.049   3.953 -0.0192  0.0693 -0.0523
18358W        W33827  17.632   7.785  14.985 -0.2809 -0.0918 -0.1296
18359W        W33828  17.658   4.087  12.248  0.0835 -0.0482  0.0191
18360W        W33829  10.759  14.351  13.838  0.3232 -0.1585 -0.0097
18361W        W33830   8.653  14.875   3.685  0.1618  0.1566  0.0737
18362W        W33831   7.264   9.609  15.369 -0.2024 -0.1112  0.0464
18363W        W33832   8.803  10.585   1.559  0.1782 -0.0630  0.0303
18364W        W33833   9.478   5.671   1.098 -0.0707 -0.0013  0.0623
18365W        W33834   9.638   2.715   0.785 -0.1745  0.0090  0.2294
18366W        W33835   8.096  11.698   2.166  0.2768  0.0440  0.0440
18367W        W33836  13.545   2.116   0.808 -0.0912  0.1852  0.0270
18368W        W33837  17.518   7.946  15.872  0.1826 -0.0999  0.0235
18369W        W33838   5.126  10.301  16.371  0.1568 -0.2169 -0.1641
18370W        W33839  17.901   4.566   4.187 -0.0147  0.1878 -0.2056
18371W        W33840   0.570   4.510  14.618  0.0776 -0.1057 -0.0425
18372W        W33841   2.061   6.598  12.282 -0.3062 -0.1061  0.3027
18373W        W33842  15.840   5.237   0.198  0.0214  0.0612  0.1285
18374W        W33843   7.183   5.369  14.856 -0.3339  0.2380  0.2164
18375W        W33844  16.693  16.334   4.348 -0.0318 -0.1876 -0.3078
18376W        W33845  12.672  11.913  13.827 -0.0836 -0.0916  0.0814
18377W        W33846  10.729   6.888   0.493 -0.0436  0.0913  0.0446
18378W        W33847  15.360   8.464  10.879  0.0536  0.0918  0.2695
18379W        W33848  10.042   4.715   3.443 -0.1955 -0.0908  0.0830
18380W        W33849   1.718   0.791  11.007  0.0076 -0.2672 -0.1301
18381W        W33850  11.564  11.213   1.778  0.2666 -0.0991 -0.3283
18382W        W33851   2.079  13.203  13.115 -0.0149  0.2659  0.2729
18383W        W33852   7.619   0.714  12.017 -0.1955  0.0302 -0.0081
18384W        W33853  13.928   4.809   3.399 -0.3303  0.1650  0.0266
18385W        W33854   1.387   2.002  15.813  0.0236 -0.1519 -0.0013
18386W        W33855   9.531   9.073  12.168 -0.2145  0.0318  0.1582
18387W        W33856  11.457  16.634  13.200  0.2036  0.1251 -0.1233
18388W        W33857   4.464  13.655  11.520  0.0416 -0.1636 -0.2000
18389W        W33858  10.552   0.908  11.433 -0.1290  0.1256 -0.0153
18390W        W33859  17.889  14.656  15.315 -0.4184 -0.2876  0.0111
18391W        W33860  13.560   7.662   5.860 -0.0547 -0.2309  0.0553
18392W        W33861  15.073   2.920  13.327 -0.2883  0.1779  0.0697
18393W        W33862  11.540  14.409  14.355  0.3194 -0.0682 -0.0786
18394W        W33863   4.362  16.396   3.441 -0.1575  0.1029  0.3896
18395W        W33864   6.658  16.302   5.534  0.0890 -0.2420 -0.2578
18396W        W33865  14.143  16.343   0.127  0.3545 -0.0868 -0.0918
18397W        W33866  10.436   3.578   2.048  0.1877  0.3324 -0.2239
18398W        W33867  15.064  12.529  15.816  0.3452 -0.0460  0.0380
18399W        W33868  13.469   0.657  14.486 -0.1105 -0.0747 -0.1952
18400W        W33869   5.592  14.531  12.411  0.1340 -0.3230  0.0600
18401W        W33870   5.208  12.553   3.643 -0.2491 -0.0828 -0.1239
18402W        W33871   2.892   5.279  12.815  0.0025 -0.0877  0.1064
18403W        W33872   8.090  17.644   4.524  0.0775 -0.0283  0.1504
18404W        W33873   3.322  15.727  12.242 -0.0652  0.0913  0.1179
18405W        W33874   8.320  14.682   0.466 -0.0788 -0.0208 -0.1864
18406W        W33875  15.336   4.500  11.985  0.1119 -0.1621  0.1509
18407W        W33876  17.280   8.092  16.425  0.1046 -0.1742 -0.1513
18408W        W33877   6.389   7.405   0.097 -0.3411  0.1272 -0.2002
18409W        W33878  11.956  13.385   0.891  0.0081 -0.1365 -0.2194
18410W        W33879  11.223  14.226  14.035 -0.1612  0.3190  0.5108
18411W        W33880   3.585   5.917  16.455 -0.0051  0.0197 -0.0206
18412W        W33881   5.208  14.612   2.290  0.2403  0.0052 -0.0917
18413W        W33882  13.469   1.523  13.911  0.0135  0.3432  0.1928
18414W        W33883  17.275   8.048   4.496  0.1037  0.0037 -0.3293
18415W        W33884  13.769  10.665   3.729 -0.2002 -0.2895 -0.1591
18416W        W33885  12.112   5.415   5.390 -0.1677 -0.2562  0.3526
18417W        W33886   3.981  15.243  14.657 -0.0283 -0.0617 -0.3134
18418W        W33887   0.780   3.755   0.677  0.3181  0.1111 -0.2074
18419W        W33888   7.851   3.614  11.786  0.1877  0.0208 -0.1562
18420W        W33889   0.149  14.737  11.914 -0.2242 -0.0395  0.0590
18421W        W33890  10.133  11.110   1.480  0.0991  0.1887  0.1033
18422W        W33891  15.037  12.180   4.133 -0.1411  0.0658  0.0797
18423W        W33892   1.468   4.773  11.095 -0.1024  0.1388  0.4112
18424W        W33893   6.374   1.701   4.034 -0.1210 -0.3025  0.0158
18425W        W33894  12.825   4.870   0.811 -0.1681  0.2151  0.2270
18426W        W33895  10.699  17.986   3.424 -0.0173  0.1093  0.3640
18427W        W33896   2.844  17.882   5.723  0.1845 -0.2301 -0.0194
18428W        W33897  15.542   0.816  15.893 -0.1352 -0.1191 -0.3414
18429W        W33898   5.052   4.974   4.804 -0.0237  0.0538 -0.1369
18430W        W33899   2.518  17.808   6.496 -0.1406 -0.1343  0.0979
18431W        W33900  13.699  11.453   4.014 -0.0674 -0.2822 -0.0926
18432W        W33901   9.799  16.031   1.395 -0.0338 -0.1157 -0.2021
18433W        W33902  13.273   4.313   5.153 -0.1379 -0.0495  0.1569
18434W        W33903   8.754   7.559  15.158  0.0272  0.0654 -0.0519
18435W        W33904  13.955  17.891   4.044 -0.2263 -0.0921 -0.0114
18436W        W33905   7.978   4.666   2.932  0.2720  0.0349 -0.1785
18437W        W33906  11.004  11.702   1.992  0.3140 -0.2748  0.1695
18438W        W33907   0.317  13.022  13.174 -0.1484 -0.0254  0.1660
18439W        W33908   7.607   2.011  14.499  0.1233 -0.1127 -0.0756
18440W        W33909  16.254   1.614   2.073  0.0376  0.0020  0.0957
18441W        W33910  11.004  17.879  13.342  0.1240 -0.1726  0.2456
18442W        W33911  14.995  10.434   0.380 -0.0039 -0.0084 -0.0662
18443W        W33912  17.370  15.287   2.034  0.0205  0.0214  0.0563
18444W        W33913  12.832   1.042   0.722 -0.1566  0.0293 -0.1328
18445W        W33914  14.895   9.235  13.761 -0.2548  0.1881  0.1579
18446W        W33915   1.949  10.066  13.164  0.0953 -0.2739 -0.3467
18447W        W33916  10.351  12.693   3.489  0.1147  0.0031  0.0931
18448W        W33917   9.211  14.759   0.487  0.0361 -0.0101 -0.1248
18449W        W33918   8.594  17.364   5.974 -0.0548 -0.1809 -0.3104
18450W        W33919  13.824  14.352  14.064  0.0058 -0.0869 -0.2342
18451W        W33920  13.728   9.043   4.239  0.2301  0.0519  0.0359
18452W        W33921   2.333   3.809   0.003  0.0100 -0.1177  0.1076
18453W        W33922   6.648  10.814  12.266  0.4632 -0.0163  0.3701
18454W        W33923  14.873   1.848  14.969  0.2015 -0.1660  0.0280
18455W        W33924  16.707  12.805   5.420 -0.1988 -0.2456  0.0440
18456W        W33925   2.587  12.821   1.251 -0.1723  0.0721 -0.0703
18457W        W33926  10.747  10.617  15.003 -0.1849  0.2861  0.2609
18458W        W33927  17.483   1.030  12.772  0.1848 -0.3171 -0.1656
18459W        W33928   2.777   0.512  16.125 -0.1856  0.1570 -0.2840
18460W        W33929  17.344  16.646   4.682  0.0156 -0.0281  0.1317
18461W        W33930   7.887   2.180  12.275 -0.0994 -0.1060  0.0427
18462W        W33931   9.853   8.790   3.714 -0.0153 -0.2025 -0.0858
18463W        W33932   5.454   7.703   2.965  0.0906 -0.0598  0.0008
18464W        W33933  15.606  13.113   4.684 -0.1368 -0.3049 -0.2293
18465W        W33934   0.820  15.191  16.278 -0.0220  0.1831  0.2008
18466W        W33935  14.598  14.789   5.486 -0.1566  0.1493 -0.0865
18467W        W33936  15.874   7.485   2.160 -0.3953  0.1294  0.1572
18468W        W33937   0.470   0.269  12.748  0.1743 -0.1303 -0.3093
18469W        W33938   7.830   7.843   0.786 -0.0128 -0.2004  0.2474
18470W        W33939   2.120   9.799   1.763  0.0594  0.3036  0.0241
18471W        W33940   9.813  12.114  16.470  0.1906  0.0162 -0.0729
18472W        W33941   9.731   0.582  14.793 -0.1132 -0.1109 -0.2642
18473W        W33942  12.205  17.008   0.069  0.0706 -0.4585  0.0082
18474W        W33943  13.283   3.371   5.962  0.1825 -0.0336 -0.0410
18475W        W33944   9.908   9.968   4.515 -0.0458  0.1502 -0.1246
18476W        W33945   5.560   5.860  14.759 -0.3024  0.1887 -0.0260
18477W        W33946   7.137  14.765   0.937 -0.1615 -0.2056 -0.1415
18478W        W33947  14.153   0.776   1.149 -0.1435 -0.0458 -0.4916
18479W        W33948   2.579   4.228   1.241 -0.0439 -0.4044 -0.0936
18480W        W33949  14.748   7.976  15.797  0.1287 -0.1680 -0.0689
18481W        W33950  16.712   0.867  14.950 -0.0248 -0.0751  0.2570
18482W        W33951   9.915   2.344   4.463 -0.3053 -0.0111  0.0461
18483W        W33952   2.802   1.701   4.443 -0.0508  0.1388 -0.1908
18484W        W33953  16.540  15.809  15.483 -0.0575 -0.2619 -0.1135
18485W        W33954  10.174  16.495  14.232  0.2156 -0.1214 -0.0034
18486W        W33955   7.598   6.065   3.528 -0.0777  0.1113  0.0215
18487W        W33956   8.916  11.287   0.153  0.2587  0.1785 -0.0348
18488W        W33957  16.943  14.629   2.980  0.2215  0.1364  0.0188
18489W        W33958   0.884  10.692   2.209  0.1609  0.1483 -0.1324
18490W        W33959  10.861  16.070   4.568  0.0693  0.0014 -0.0749
18491W        W33960   0.332   5.886   3.463  0.0927  0.0329 -0.1319
18492W        W33961   9.438   2.073   4.607  0.1764  0.1492 -0.0538
18493W        W33962  16.802   2.947   2.363 -0.1941 -0.0370  0.3259
18494W        W33963  17.332  13.084  12.270  0.0418  0.0594  0.2485
18495W        W33964  10.746   0.212   5.127  0.2722  0.0908  0.0414
18496W        W33965  12.115   3.545  13.572  0.0198 -0.3002 -0.0868
18497W        W33966  12.116  17.716   3.125 -0.2471  0.5112  0.0848
18498W        W33967   4.215   8.292   4.421  0.0579 -0.0815  0.1004
18499W        W33968   5.183   0.436   1.884  0.2806 -0.1584  0.2050
18500W        W33969  17.404  11.813   2.714  0.0621 -0.1087  0.2012
18501W        W33970   8.179   7.953   4.064 -0.2852 -0.0208 -0.0796
18502W        W33971   8.301   1.972   3.008 -0.0705 -0.1455  0.0207
18503W        W33972  13.550  17.116   3.600 -0.1962 -0.0936  0.0580
18504W        W33973  11.392   4.106  12.450 -0.1361  0.0663 -0.0612
18505W        W33974   6.664   0.682   6.012  0.1933  0.0226  0.3442
18506W        W33975   3.930   4.375   0.622  0.3750  0.3311  0.0016
18507W        W33976  10.990  11.236  13.111 -0.1890 -0.3231  0.0039
18508W        W33977   1.275   6.179   4.838  0.2949 -0.3274 -0.2198
18509W        W33978  15.352   1.092   0.772  0.0169  0.2161  0.2493
18510W        W33979  11.467   2.708  14.275 -0.0145  0.0796  0.0122
18511W        W33980   0.532  17.780   4.332 -0.0435 -0.1312  0.0351
18512W        W33981   1.766  10.233  15.380  0.2616  0.1394 -0.2626
18513W        W33982   4.625   4.802  12.558 -0.2197 -0.5619  0.0970
18514W        W33983   6.286  14.749   3.211 -0.2183 -0.4046  0.0215
18515W        W33984   6.911  15.551   2.220 -0.0181 -0.2615  0.1993
18516W        W33985  13.756   3.778  14.519 -0.2452 -0.2026 -0.0650
18517W        W33986   1.722  13.240   1.193  0.0701 -0.1488  0.1193
18518W        W33987   1.008   1.520  13.074 -0.2295 -0.3260 -0.3990
18519W        W33988  13.797  16.785  16.389 -0.5086 -0.3262 -0.3226
18520W        W33989  10.220  17.199   5.820  0.0260 -0.1168  0.5165
18521W        W33990   9.554  10.077  15.034 -0.4285 -0.0652 -0.2565
18522W        W33991  11.140   5.496   1.107 -0.0623  0.1189 -0.0926
18523W        W33992   0.779   3.526  12.123 -0.1961 -0.0140 -0.3111
18524W        W33993   1.601  11.303  10.924 -0.2629 -0.2492  0.1510
18525W        W33994   8.365  17.643  11.647  0.1993 -0.2246 -0.1404
18526W        W33995   9.225   0.737  12.306 -0.1054  0.2630 -0.2948
18527W        W33996   7.447  11.664  15.431 -0.3018  0.0478  0.1211
18528W        W33997   8.928  15.269   0.363 -0.2107  0.3084 -0.0595
18529W        W33998  16.829   3.471  15.943 -0.0348 -0.1477 -0.0135
18530W        W33999  11.908  14.051  12.268 -0.3820  0.0989  0.2145
18531W        W34000   8.246   6.530   1.868 -0.2007 -0.0947 -0.0944
18532W        W34001  11.522   8.623   0.427  0.2349  0.3178  0.1117
18533W        W34002   8.992  13.303   4.876 -0.1953 -0.1203 -0.2964
18534W        W34003  16.809  17.858  16.255 -0.1220  0.1401 -0.0884
18535W        W34004   6.561   2.598   4.915  0.2706 -0.0531 -0.3003
18536W        W34005  14.351  13.712  14.875 -0.1076  0.2233 -0.0548
18537W        W34006   9.936  12.516  13.178 -0.0323 -0.0656  0.1486
18538W        W34007  15.231   6.774   3.769 -0.1274  0.3772 -0.0732
18539W        W34008   1.826  14.461   3.192 -0.0620  0.3040  0.1431
18540W        W34009   8.838  15.179  13.858  0.2072  0.2183 -0.0834
18541W        W34010   7.679   7.175  16.347 -0.0607 -0.1316 -0.4074
18542W        W34011   2.879   9.461   0.174 -0.0852 -0.0869  0.1559
18543W        W34012   9.447  13.654   0.938  0.0524  0.1096  0.1346
18544W        W34013   5.454   7.274  12.023  0.0910 -0.0665 -0.0621
18545W        W34014   8.062  12.066  11.860  0.0465  0.0209 -0.0967
18546W        W34015   8.856   9.739   3.937 -0.1522  0.1140  0.1293
18547W        W34016  11.333   5.967   5.576 -0.0651 -0.0425  0.0126
18548W        W34017   4.536  10.781   1.271  0.2366  0.2821  0.0651
18549W        W34018   0.650   8.790  13.980 -0.1483  0.3058  0.1447
18550W        W34019  15.747  16.378  14.131 -0.0311 -0.0197 -0.4170
18551W        W34020   5.828   5.045  15.401 -0.0743  0.1884  0.0409
18552W        W34021  16.072  12.604  12.724 -0.1378 -0.0151 -0.2692
18553W        W34022  15.692  13.374  12.863  0.1177 -0.1481 -0.4322
18554W        W34023   8.529   3.007  15.248 -0.1684  0.1671 -0.1388
18555W        W34024   6.683  10.653  14.312 -0.2880 -0.2077 -0.1882
18556W        W34025  15.901   1.661   3.248 -0.1896 -0.1284 -0.0157
18557W        W34026  10.380   8.863   2.462 -0.2954  0.0206 -0.1355
18558W        W34027   0.686   6.799   3.168 -0.1281  0.0754  0.0186
18559W        W34028  11.469  13.140  11.942  0.2001  0.2420 -0.0365
18560W        W34029   9.711   0.621  14.131  0.1761 -0.0994  0.3759
18561W        W34030  10.449  16.139   4.219 -0.0350 -0.2381 -0.2065
18562W        W34031  16.864   4.045  16.563 -0.1944  0.2310 -0.1305
18563W        W34032  14.785   0.925  11.680  0.4649 -0.2167 -0.0242
18564W        W34033  17.651  11.772   1.289  0.1291 -0.1608  0.4754
18565W        W34034  10.187   5.006   4.113 -0.0068  0.0706 -0.1278
18566W        W34035  14.526   6.325  11.491 -0.2339 -0.0803  0.1518
18567W        W34036   0.920   6.923  14.628  0.0915 -0.1908  0.2206
18568W        W34037   0.701   9.331  10.691  0.2191  0.0386  0.0736
18569W        W34038   0.357  14.591  13.966  0.3260  0.1342 -0.0333
18570W        W34039  14.573  17.921  11.578 -0.0513  0.0689  0.0494
18571W        W34040   8.374  13.172   1.308 -0.2251  0.1195 -0.2620
18572W        W34041   5.920   6.766  14.537  0.2832 -0.0806 -0.0664
18573W        W34042   8.693   6.048  12.412 -0.0391 -0.1334 -0.0418
18574W        W34043  13.395  12.582  14.385  0.1756 -0.1690  0.1660
18575W        W34044   4.261  16.836   0.853  0.1259  0.5031  0.1364
18576W        W34045   8.866  13.919  12.105 -0.1126 -0.0797  0.5329
18577W        W34046  17.496   8.059  15.383 -0.2453  0.0989  0.0607
18578W        W34047   7.953   9.139   6.371 -0.2006 -0.0115 -0.0231
18579W        W34048  13.618   1.113   1.406 -0.3947 -0.0815  0.1679
18580W        W34049   3.337   6.190   1.740  0.0897  0.2926 -0.2357
18581W        W34050  11.247   4.564   2.569 -0.1288  0.1946 -0.0639
18582W        W34051   7.795  17.992   5.341 -0.1354 -0.2056  0.1314
18583W        W34052  17.083   0.721   5.577  0.1656  0.0781  0.0301
18584W        W34053  17.312  16.519   2.477 -0.0004  0.2302 -0.0071
18585W        W34054  16.233   1.816  16.334  0.1531  0.0453  0.4384
18586W        W34055   1.133  11.114  16.553  0.2949  0.1424  0.3062
18587W        W34056  10.607   4.966   2.294  0.2806 -0.2948  0.1314
18588W        W34057   8.964   5.693   1.116 -0.2338 -0.0476  0.0641
18589W        W34058  16.269   9.420   2.330 -0.0543 -0.0659 -0.0545
18590W        W34059   7.879   3.435  13.618  0.2426  0.2045  0.0768
18591W        W34060   4.841   0.426  13.091 -0.0065 -0.0210  0.1300
18592W        W34061  15.756   9.650   4.310 -0.2426  0.2996 -0.3688
18593W        W34062   7.696   6.954  13.653 -0.2438  0.1826 -0.1520
18594W        W34063   5.852  12.030  15.563 -0.0841  0.0730  0.0540
18595W        W34064   2.422   7.137  10.930 -0.0229  0.2631  0.0863
18596W        W34065   5.034   9.630  11.652 -0.3315 -0.2373 -0.0162
18597W        W34066   6.125   7.461   4.844  0.2212  0.0768  0.2821
18598W        W34067   8.772  13.485  15.678  0.0209  0.0020  0.3808
18599W        W34068  14.739   4.691   4.962 -0.0713  0.0535  0.1387
18600W        W34069   5.793   8.121   2.803  0.2786 -0.1410 -0.1216
18601W        W34070  13.745   4.658   0.900  0.1541  0.1116 -0.0460
18602W        W34071   0.674  14.757  14.324  0.0076 -0.1428  0.3005
18603W        W34072   5.514   1.289   0.340 -0.0216 -0.0082 -0.0510
18604W        W34073  16.993   6.862   2.039 -0.2160  0.1276  0.2556
18605W        W34074  17.505  11.645   4.030  0.1805 -0.0202  0.3577
18606W        W34075   4.049   2.850   1.253 -0.0797 -0.1279  0.1454
18607W        W34076  10.102  10.258   2.366  0.1909 -0.2562  0.0771
18608W        W34077  15.948   8.074  14.461 -0.0458  0.3991 -0.0861
18609W        W34078   8.405   2.914   0.538 -0.0202 -0.0122 -0.1190
18610W        W34079  15.001   0.113   4.275 -0.0796 -0.3160 -0.1364
18611W        W34080   8.198   7.278  13.771  0.0842 -0.0762  0.0718
18612W        W34081  17.359  17.859   2.236 -0.1498  0.0338  0.0708
18613W        W34082   2.051  10.074  14.909  0.0070 -0.3268 -0.0662
18614W        W34083   2.868   4.840   5.448 -0.1970  0.4405  0.0927
18615W        W34084  16.958   9.950   4.998  0.1605 -0.0302  0.1376
18616W        W34085   4.456   6.861   3.419  0.1524 -0.1947  0.5128
18617W        W34086  14.199   0.783  15.622 -0.0160 -0.0317 -0.0020
18618W        W34087  16.911  12.344  13.973  0.2596  0.0326 -0.1205
18619W        W34088   7.811   4.051   0.072 -0.1864  0.2835 -0.1270
18620W        W34089   3.048   6.714  12.277 -0.1966 -0.0945 -0.1454
18621W        W34090   2.411   9.311  15.040  0.3884 -0.0331  0.2562
18622W        W34091  12.228   2.747   3.647 -0.1820 -0.0771  0.4753
18623W        W34092   7.409  10.650  13.652  0.0888 -0.0333 -0.2249
18624W        W34093  14.632   3.856   2.776 -0.1431  0.0972 -0.2071
18625W        W34094   4.109   9.429  14.280  0.2172  0.0798 -0.0003
18626W        W34095   6.455   9.627  16.157  0.2109  0.0844  0.3169
18627W        W34096  11.862   0.493  13.872 -0.1544  0.0673 -0.0657
18628W        W34097  16.152   8.558  12.810  0.2337  0.0508 -0.0119
18629W        W34098   8.773   6.956   4.615  0.3364 -0.0716  0.1178
18630W        W34099  16.029   7.812  15.686  0.2260 -0.0215 -0.0166
18631W        W34100  17.373  10.241   2.448  0.2947 -0.0042 -0.1008
18632W        W34101   5.421  10.756   3.107 -0.2366  0.0588  0.1112
18633W        W34102  12.086  14.664  13.537  0.1005 -0.1650 -0.3361
18634W        W34103   7.711   3.531   2.809  0.0268 -0.2905 -0.4750
18635W        W34104  15.146  15.118   5.712  0.1234  0.1193  0.4552
18636W        W34105  13.282  13.374   0.637  0.4740 -0.1814  0.1335
18637W        W34106  10.408   4.586   4.012 -0.3355 -0.1541  0.0674
18638W        W34107   0.700   7.652   2.953  0.2255  0.0079  0.3012
18639W        W34108   3.860   8.516  11.753  0.0631  0.1951  0.0733
18640W        W34109   4.779  13.384   2.086  0.1832  0.2557 -0.0838
18641W        W34110   7.577   0.684   3.785  0.1373  0.0156  0.2278
18642W        W34111  17.403   7.665   5.387  0.0252 -0.1746 -0.1209
18643W        W34112   4.998   4.806  16.119  0.0440  0.0362 -0.1111
18644W        W34113  13.540   2.555  16.484 -0.1748 -0.0921 -0.0684
18645W        W34114   2.892   8.793  12.962  0.0085  0.1380  0.0916
18646W        W34115  10.883   6.003  11.146 -0.2748 -0.2283 -0.0600
18647W        W34116  11.400   3.104  14.000  0.1355 -0.3783 -0.1070
18648W        W34117  14.472  11.885  11.258  0.0215 -0.1836  0.5219
18649W        W34118  10.843   0.690   4.659  0.0886  0.0135  0.1927
18650W        W34119   3.279   5.567  12.909  0.0349  0.1179  0.0403
18651W        W34120   5.112   5.297   2.035 -0.0315 -0.0677 -0.0382
18652W        W34121   8.315   4.384  15.394  0.0347  0.1579  0.0074
18653W        W34122  16.304   9.983   3.017 -0.3373  0.0386 -0.2254
18654W        W34123   3.937  15.527   4.729  0.2527 -0.0505 -0.0135
18655W        W34124  15.556  14.026  12.221 -0.2175  0.0760  0.2102
18656W        W34125   3.331   1.665   1.659 -0.1808  0.1275  0.1045
18657W        W34126   7.307   9.888   5.099  0.2442  0.0262  0.1298
18658W        W34127  11.023   5.346  14.067  0.0296 -0.1421 -0.2136
18659W        W34128   1.793   8.055  15.642 -0.1732 -0.0154 -0.0173
18660W        W34129  17.903   8.800   2.091  0.2146  0.0519  0.2401
18661W        W34130  15.085   7.935   3.734 -0.1062  0.1904  0.2172
18662W        W34131   8.305  11.343   4.176  0.2852  0.1533  0.0014
18663W        W34132   1.321   8.443  12.512  0.0777  0.0419 -0.1608
18664W        W34133   3.928  14.827   2.245 -0.0798 -0.2509 -0.2031
18665W        W34134   4.779   4.897   0.430 -0.0057  0.2254 -0.1645
18666W        W34135   9.412   6.358   3.106  0.0781  0.3024  0.0764
18667W        W34136   5.917   0.722   2.255  0.2693 -0.1151  0.3521
18668W        W34137  14.851  10.429  11.042 -0.2305  0.0745 -0.1098
18669W        W34138   7.381   7.942  14.271 -0.0576 -0.0162 -0.0064
18670W        W34139  10.476  15.114   1.049 -0.3185 -0.1510  0.0241
18671W        W34140  10.758  15.270  14.875 -0.0346  0.0530 -0.1625
18672W        W34141  11.149   9.473   0.990  0.0757 -0.2921  0.1316
18673W        W34142  11.182  14.543  14.870 -0.0265  0.0730  0.1864
18674W        W34143  14.134   0.824   2.689 -0.0129 -0.0800 -0.1062
18675W        W34144  10.655   0.901   0.459 -0.0133 -0.0029  0.2917
18676W        W34145  11.774  13.833  11.821 -0.0263  0.0924 -0.2659
18677W        W34146  15.841  16.724   0.377  0.0426  0.6745  0.0611
18678W        W34147  11.193  15.057  16.231 -0.0580 -0.0126  0.3301
18679W        W34148  15.616  10.927   2.460  0.1012  0.1410 -0.2750
18680W        W34149   6.538  13.016   4.883  0.2527  0.1930  0.1431
18681W        W34150   0.075   7.278  11.204  0.0313  0.0844 -0.1223
18682W        W34151  14.070   0.118  13.792 -0.4229  0.1697 -0.4225
18683W        W34152   9.877   0.635   4.888 -0.0016 -0.3147 -0.2498
18684W        W34153  13.713   7.643   2.036  0.0726  0.0104 -0.0089
18685W        W34154   2.305  16.705   3.095 -0.2362 -0.1859  0.3148
18686W        W34155  16.129  11.040   4.450  0.0231  0.2265  0.1849
18687W        W34156  16.848  13.480  13.955 -0.2490  0.1854 -0.1987
18688W        W34157   2.131  16.613  12.176  0.0490  0.3749  0.2285
18689W        W34158   2.552  16.271  15.792 -0.0457  0.2213  0.1464
18690W        W34159  12.076  17.413   2.586 -0.0361 -0.0503 -0.2168
18691W        W34160   5.331  11.337   1.411  0.0417  0.1345 -0.1019
18692W        W34161  16.492   9.616  12.165 -0.0698 -0.1028 -0.1815
18693W        W34162   8.168   8.403   3.329 -0.3594  0.0072 -0.0591
18694W        W34163   2.430   7.500  13.537 -0.0217 -0.0924  0.1576
18695W        W34164   0.108  16.380  12.621  0.0942 -0.0348 -0.0419
18696W        W34165  16.004  14.562  11.077 -0.0642  0.0780 -0.0363
18697W        W34166   3.038   1.884   2.621  0.0850 -0.1249 -0.0723
18698W        W34167   6.711  15.376   5.106 -0.0014 -0.2584 -0.0869
18699W        W34168   4.243  14.146  16.152  0.2415  0.0826 -0.1091
18700W        W34169   6.354  11.752   2.206  0.0619 -0.1647  0.0657
18701W        W34170   0.574  12.202   3.992  0.0226 -0.0219 -0.4354
18702W        W34171   1.610  12.824  16.111  0.0765  0.0470  0.0995
18703W        W34172  10.412  12.813   2.418 -0.0055 -0.1657  0.2753
18704W        W34173  16.400  16.615  16.338  0.1716 -0.0772 -0.0495
18705W        W34174   9.863   4.574   4.944 -0.4003 -0.2800  0.1619
18706W        W34175  13.489  13.870  12.961 -0.0596 -0.0367  0.1266
18707W        W34176   8.391   2.529  13.486  0.2083  0.3721  0.1406
18708W        W34177  12.661   8.870  16.244 -0.4711 -0.0722 -0.0305
18709W        W34178   0.636   1.452  14.053  0.0732  0.4108 -0.0047
18710W        W34179   8.280   3.964   4.493 -0.1978 -0.0683  0.2316
18711W        W34180  14.997  12.748   2.756  0.0328 -0.1729  0.3596
18712W        W34181   3.820  11.254   5.197 -0.3266 -0.1425  0.3335
18713W        W34182  15.881   2.150   1.402 -0.4141 -0.0845 -0.1319
18714W        W34183   3.295   4.690  12.749  0.0896 -0.1214  0.0137
18715W        W34184  17.753   6.936  15.316 -0.1715 -0.0758  0.3855
18716W        W34185   2.504  13.489   5.320 -0.0263 -0.0078 -0.1099
18717W        W34186   4.560  14.997  15.288 -0.3060  0.0972 -0.0412
18718W        W34187   5.546  12.516  11.679 -0.1359 -0.1117  0.1277
18719W        W34188  10.966   8.403   3.614 -0.1018 -0.0034 -0.1323
18720W        W34189  12.385   6.936  11.107 -0.1304  0.0593 -0.0993
18721W        W34190   7.077   6.205   0.305  0.2195  0.0677  0.0341
18722W        W34191   4.517   6.018   2.489  0.0111  0.0906 -0.0041
18723W        W34192   0.117   5.020   4.879 -0.0404  0.0460 -0.4456
18724W        W34193  13.988  13.524  13.482 -0.2448 -0.0044  0.1184
18725W        W34194  10.283   6.544   3.966 -0.0911 -0.1298 -0.2567
18726W        W34195   6.124  12.443  15.716 -0.0576 -0.0081 -0.0472
18727W        W34196  14.696   4.586  11.724  0.3280  0.0090 -0.1621
18728W        W34197   7.466   9.248  15.868 -0.0133 -0.1742  0.0220
18729W        W34198   1.894   1.118   3.903  0.1611 -0.0769 -0.4222
18730W        W34199   4.097   5.801   2.210 -0.0846 -0.1464 -0.1593
18731W        W34200  17.083  17.734   3.885 -0.0481  0.0291  0.2125
18732W        W34201   8.587  15.752   3.312  0.1730 -0.2495  0.0285
18733W        W34202   9.024  13.077  14.898  0.0345  0.0912 -0.1244
18734W        W34203   8.899   7.328  11.564  0.0335 -0.1806 -0.0282
18735W        W34204   1.609   8.290  16.052  0.0294 -0.1349  0.0018
18736W        W34205   7.859  12.598   2.157 -0.3590 -0.1732  0.0643
18737W        W34206  16.718   7.971   4.391  0.2078  0.1262 -0.1018
18738W        W34207   1.967  16.751   3.579  0.1807 -0.0964 -0.1177
18739W        W34208   8.575   1.828   5.780  0.3123 -0.2922 -0.0581
18740W        W34209   8.461   3.735   1.171  0.0119  0.1525 -0.0347
18741W        W34210  15.778   6.410   1.953  0.0756 -0.2403 -0.1253
18742W        W34211  12.467  15.345   5.328  0.3346  0.0492 -0.4959
18743W        W34212  11.917   6.384   1.923  0.2960  0.0871  0.1923
18744W        W34213   7.782   1.733  12.054 -0.0218  0.3702  0.0302
18745W        W34214  12.094   7.281  14.326 -0.0038 -0.1035 -0.0952
18746W        W34215   1.460  16.666  15.399  0.0192  0.1878 -0.0570
18747W        W34216   9.804  11.300  15.711 -0.2320  0.2893  0.3066
18748W        W34217   9.819   6.228   3.358  0.1514  0.1722 -0.1632
18749W        W34218   0.388  11.636  12.003 -0.3346 -0.1834  0.1136
18750W        W34219  16.131  16.289   1.137  0.2923 -0.0590  0.2683
18751W        W34220  17.619  11.158   3.893  0.1998  0.0483  0.0767
18752W        W34221   9.547   0.222   1.199 -0.4607 -0.2349 -0.4183
18753W        W34222   2.974  16.402  14.433 -0.1547 -0.3598 -0.2686
18754W        W34223   7.085  16.292   5.256 -0.1669 -0.2398 -0.1419
18755W        W34224   6.768  17.114   3.338  0.3174  0.1405 -0.0574
18756W        W34225   9.493   1.127  14.703 -0.2242  0.1643 -0.1351
18757W        W34226   6.805   2.235   6.180  0.1297 -0.3300  0.1511
18758W        W34227  10.906  17.869   6.548  0.0145  0.2215  0.0403
18759W        W34228   0.368  16.908   2.581  0.0560  0.1199 -0.2597
18760W        W34229  10.282  11.897   5.763  0.0109  0.2549 -0.3584
18761W        W34230   4.096   6.819   3.005  0.2358  0.1470 -0.1442
18762W        W34231   2.151  13.733  16.264  0.2417 -0.0393 -0.0650
18763W        W34232  16.295  15.148  12.903 -0.1399 -0.0038 -0.0037
18764W        W34233   3.926  17.201  14.671 -0.2678  0.1614 -0.0404
18765W        W34234   9.851   8.998  15.846 -0.1899  0.1220 -0.0913
18766W        W34235  11.473  15.016   3.977 -0.0122  0.0296  0.0129
18767W        W34236   5.912   2.546   2.757 -0.1335  0.1128 -0.1044
18768W        W34237   4.850   5.333  12.065  0.0746 -0.1585 -0.2272
18769W        W34238  13.787   9.467  14.628  0.1201 -0.1228 -0.0737
18770W        W34239   1.392  14.978   3.775  0.0598  0.1142 -0.2704
18771W        W34240  17.845  13.075  11.271 -0.0042  0.3025  0.1543
18772W        W34241   5.342  10.197   2.827  0.0683  0.0681 -0.0227
18773W        W34242  15.766   5.389  12.710  0.0476 -0.2620 -0.0387
18774W        W34243  11.988   4.852   0.351  0.0617 -0.2235  0.0285
18775W        W34244  11.153   7.847  15.136 -0.0297  0.0543 -0.4916
18776W        W34245   7.205   1.931   6.100  0.2571 -0.0812 -0.0637
18777W        W34246  10.759  12.525   2.701 -0.3421  0.0483  0.2750
18778W        W34247   7.918   3.603   5.482  0.1996 -0.2670  0.2748
18779W        W34248  16.101  13.368  15.932 -0.1244  0.1688  0.0103
18780W        W34249   1.170  12.649  12.567  0.0899 -0.0085  0.1756
18781W        W34250   1.355   9.717  13.720  0.3220  0.1418 -0.0494
18782W        W34251   4.267   2.170  14.590  0.2023 -0.2192  0.0518
18783W        W34252   5.737   1.347   0.770  0.1384 -0.2448  0.5367
18784W        W34253   2.956  17.233  16.014  0.0138  0.1379 -0.1290
18785W        W34254  17.831  13.766  13.629 -0.2187  0.1167  0.1132
18786W        W34255  11.542   2.707   4.519 -0.3379 -0.0982 -0.3115
18787W        W34256   5.932  14.571  13.424  0.3533 -0.1625  0.5998
18788W        W34257  12.541   2.628   0.153  0.0343  0.0510  0.1190
18789W        W34258   1.112  16.442  15.663 -0.1396 -0.0877  0.3299
18790W        W34259   9.030  10.278   4.791 -0.1813 -0.3539 -0.0226
18791W        W34260   8.000   9.653  11.123  0.1211 -0.1145 -0.0575
18792W        W34261  17.804  16.932   4.769  0.1580 -0.2347  0.1083
18793W        W34262  10.727  12.200  14.409  0.0961 -0.2022  0.1038
18794W        W34263  17.799   1.328   1.391  0.1648  0.2168  0.0086
18795W        W34264  14.854  11.179  14.467 -0.2515  0.0050 -0.2430
18796W        W34265  11.012   3.951  13.639 -0.1429 -0.1912 -0.0235
18797W        W34266  13.388  10.790  14.783 -0.1079  0.1965  0.3220
18798W        W34267  15.777  10.720   1.437  0.1571  0.0715 -0.2444
18799W        W34268   9.404   2.094   2.348 -0.0031 -0.1965 -0.1285
18800W        W34269  14.126   9.180  13.234 -0.1468  0.0416  0.1704
18801W        W34270   3.856   1.300  14.314 -0.1187  0.0020 -0.2524
18802W        W34271   3.433  10.907   3.127  0.3378  0.0091  0.1998
18803W        W34272  16.652   0.529   5.083 -0.1650  0.1578  0.1764
18804W        W34273  16.782   1.040   2.627 -0.1005 -0.0751 -0.0384
18805W        W34274  14.232  16.589  16.107  0.0560 -0.3054  0.0433
18806W        W34275   9.462  10.400   3.111  0.0839  0.0349  0.2528
18807W        W34276   9.770   4.630   2.043 -0.0980  0.1458  0.5350
18808W        W34277   3.107  13.612   1.188 -0.0275 -0.1142 -0.0725
18809W        W34278  15.576  17.174  16.400  0.0615 -0.1095  0.1857
18810W        W34279   2.422  10.082   3.778  0.0448  0.0021 -0.0951
18811W        W34280   1.456   1.858   3.012 -0.0296 -0.3195 -0.2641
18812W        W34281   5.823   4.540   2.331 -0.0950  0.0533  0.2206
18813W        W34282  10.680  12.851   1.485 -0.3015  0.1445 -0.1565
18814W        W34283  10.249  13.437   3.143 -0.1279  0.1575 -0.0023
18815W        W34284   5.961   8.045   1.258  0.1269 -0.1699  0.0322
18816W        W34285   1.396   0.609  12.831 -0.1534 -0.2387  0.2027
18817W        W34286  11.522  13.605   0.759  0.0783  0.0605  0.2790
18818W        W34287   2.872   6.025   2.975  0.0473 -0.0845  0.1637
18819W        W34288  16.819   5.975  14.653 -0.1157 -0.0151 -0.0674
18820W        W34289  17.273   5.238   4.955 -0.1574  0.0121 -0.0420
18821W        W34290  11.961  17.313   4.422  0.2707  0.1151 -0.0297
18822W        W34291   4.756   4.316  13.336 -0.1561 -0.2428  0.0824
18823W        W34292  17.322   4.159   4.284 -0.1369  0.0251  0.1666
18824W        W34293   9.135  17.664  13.233 -0.2485  0.4442  0.1463
18825W        W34294  12.149   0.938  14.794  0.0513  0.0984 -0.1127
18826W        W34295  14.459  10.228   5.385 -0.0472  0.1571  0.3635
18827W        W34296  13.676   8.266   2.676 -0.1464  0.2166  0.2551
18828W        W34297  15.485   1.376  11.661  0.2240 -0.0566  0.1122
18829W        W34298   0.676   2.223  16.193 -0.0112 -0.1964  0.3524
18830W        W34299   7.254  14.262   1.176  0.0151 -0.4263  0.1575
18831W        W34300   8.003  14.814   5.724  0.1873 -0.1097 -0.0628
18832W        W34301  11.910  11.132   0.842  0.0402  0.1079  0.4353
18833W        W34302  15.268   5.037  12.777 -0.0406  0.2698 -0.0190
18834W        W34303   7.993  10.186   3.857  0.0054 -0.2151  0.0797
18835W        W34304  14.068  14.767  12.822 -0.0102 -0.1581 -0.0784
18836W        W34305   8.410  17.580  11.125 -0.0651 -0.1763 -0.0535
18837W        W34306  17.424   6.162   4.773  0.1681  0.0967 -0.1063
18838W        W34307  13.206   3.880   4.565  0.1047 -0.4799  0.2659
18839W        W34308  15.332  14.405  14.739 -0.0322  0.1437  0.1536
18840W        W34309  13.506  15.258   3.110  0.2384 -0.0695 -0.2843
18841W        W34310   1.027   9.539   4.813 -0.2049  0.0784 -0.1306
18842W        W34311  12.824  10.774  15.452  0.0956 -0.2497  0.1343
18843W        W34312  17.928   6.901  12.022  0.1625  0.0886  0.2216
18844W        W34313   5.909  10.622  12.748  0.2856 -0.1983  0.0335
18845W        W34314  17.876   9.779  16.144  0.0355  0.1936 -0.1530
18846W        W34315  12.796  13.949   1.243 -0.1916  0.0263 -0.1067
18847W        W34316   2.035  11.995   4.944 -0.1942  0.2547 -0.0546
18848W        W34317  10.069   8.861   0.454  0.1680 -0.0541  0.1089
18849W        W34318  12.535   4.012  13.905  0.0931  0.1868  0.0106
18850W        W34319  13.050   4.516   1.632 -0.6000 -0.1878 -0.2092
18851W        W34320  11.930  12.480   0.450 -0.3652  0.2630 -0.1165
18852W        W34321   5.829   5.416   0.138 -0.0523  0.3433  0.2222
18853W        W34322  13.388   8.442   4.444 -0.0754  0.1157 -0.3601
18854W        W34323   5.370  17.584  13.117 -0.0484 -0.6866  0.3508
18855W        W34324  16.175   9.563  12.652 -0.2972 -0.1366 -0.2033
18856W        W34325  17.423   6.264   9.647 -0.0989  0.2408  0.0512
18857W        W34326  16.240  13.378   4.825  0.1399  0.2659 -0.1247
18858W        W34327  12.945   9.361  14.365  0.1568  0.1644  0.2209
18859W        W34328   2.338  13.594  15.274 -0.2389 -0.2508 -0.0185
18860W        W34329  11.717   8.213  15.744  0.1567  0.2998  0.0151
18861W        W34330  12.508  13.877   4.357 -0.2426 -0.1205  0.1418
18862W        W34331  17.385   2.658   2.663 -0.4120  0.1258  0.1404
18863W        W34332   6.052  17.505   3.336 -0.1104 -0.2987  0.1976
18864W        W34333   7.073   2.995   3.057 -0.1082  0.0791  0.3338
18865W        W34334  13.022  10.668  14.170 -0.1790 -0.0093 -0.1663
18866W        W34335  17.561  13.745  12.845 -0.2857  0.1855 -0.0093
18867W        W34336   2.413   6.352   2.983  0.1835  0.1122 -0.1541
18868W        W34337  14.796   4.676   2.328  0.3001 -0.0481  0.0092
18869W        W34338  15.265   4.807  15.689 -0.3138 -0.0015  0.1919
18870W        W34339  10.766   3.308  11.959  0.2380 -0.6423 -0.2561
18871W        W34340  10.775   5.230   5.403  0.1551 -0.2654  0.1893
18872W        W34341   1.171  14.346   5.223 -0.0335 -0.3540 -0.2355
18873W        W34342  13.697  13.036  14.071 -0.1720 -0.0354  0.1138
18874W        W34343  13.422  11.586   5.252 -0.1793  0.0330  0.0144
18875W        W34344   4.546   1.691  12.519  0.3142 -0.1345  0.0593
18876W        W34345   9.962  12.819   2.041 -0.1861 -0.3078 -0.1202
18877W        W34346   9.384   6.399   3.646  0.1158  0.1569  0.0994
18878W        W34347  13.599  17.953  16.009  0.1517  0.0760 -0.0325
18879W        W34348  17.458   2.657  14.359 -0.2626 -0.0851 -0.3278
18880W        W34349   8.551   8.961   4.048  0.2427 -0.1394  0.1136
18881W        W34350  14.629  13.095   4.880 -0.1777  0.1113  0.0123
18882W        W34351  13.844   1.128   0.949 -0.0015  0.0991  0.0140
18883W        W34352  13.214  14.364   3.961 -0.1450  0.0220  0.0763
18884W        W34353   3.062  13.513   0.609  0.2628 -0.0476 -0.1522
18885W        W34354   7.221   6.648  15.643  0.1409 -0.0358 -0.0127
18886W        W34355  14.091   3.544  16.378  0.0005 -0.0604 -0.0573
18887W        W34356   2.866   4.079   4.507  0.2856 -0.1199 -0.0421
18888W        W34357  10.969  11.038  13.961 -0.0269  0.0279 -0.1853
18889W        W34358   1.306  13.044  14.778  0.0528  0.1260  0.3861
18890W        W34359  11.186  12.355  15.399  0.0307  0.2068  0.4315
18891W        W34360   2.387   9.252   4.178 -0.2680 -0.0493  0.1947
18892W        W34361  11.315  11.945   4.910 -0.4504  0.0296 -0.0090
18893W        W34362   4.179  17.179  16.413 -0.0054  0.2919 -0.0269
18894W        W34363   6.619  12.997   1.031  0.0421 -0.1620 -0.1918
18895W        W34364  17.701   4.543  13.107  0.0512  0.1940 -0.1002
18896W        W34365  12.967   7.346   0.101  0.0486  0.1495 -0.2864
18897W        W34366   6.451   0.503  13.274 -0.0552 -0.1206  0.1081
18898W        W34367  15.050   9.234   1.617 -0.2575  0.0591 -0.1156
18899W        W34368   5.032   5.305  16.184 -0.1412  0.0722  0.0967
18900W        W34369   0.539   4.740  16.085  0.1968  0.1955 -0.0572
18901W        W34370  13.031  14.408   2.498 -0.2219 -0.0656  0.1325
18902W        W34371   3.287   6.232  15.655 -0.1523 -0.0945  0.0489
18903W        W34372   7.384  11.658  13.214 -0.1472  0.0044 -0.2234
18904W        W34373   9.171   8.632   5.665  0.1818 -0.1075  0.1293
18905W        W34374   3.241   6.095  12.022 -0.1037  0.4615  0.2525
18906W        W34375   6.002   2.532   1.334  0.0497  0.1171  0.1227
18907W        W34376   7.109   2.101  15.946 -0.0122  0.0692 -0.0429
18908W        W34377   6.353   0.749   3.904 -0.0658  0.1269 -0.0584
18909W        W34378   9.662   7.333  13.016 -0.1576 -0.1241  0.3523
18910W        W34379  13.542  13.231   5.171  0.0910 -0.2524  0.0525
18911W        W34380  17.229   0.493  15.723 -0.1481  0.1914  0.3406
18912W        W34381   5.202   5.780  12.819 -0.3386  0.1152 -0.2073
18913W        W34382   9.622   1.738   1.824  0.0373  0.3211 -0.0223
18914W        W34383  17.488   4.660   3.441  0.2648 -0.0773 -0.1523
18915W        W34384  14.048   1.918  13.002  0.1982  0.2535  0.2142
18916W        W34385  15.303  15.962  12.868  0.2187  0.1980  0.0969
18917W        W34386  13.417   7.212  11.159 -0.1435 -0.0986 -0.1499
18918W        W34387   2.081  10.704  11.738 -0.1430  0.0094 -0.1951
18919W        W34388   6.501   1.100  12.389 -0.1709  0.1251  0.0132
18920W        W34389   3.151   7.377  10.969  0.0296  0.0199  0.1972
18921W        W34390   4.538  17.917   5.476 -0.4612 -0.4187  0.1113
18922W        W34391  10.334  10.691   2.405  0.1696 -0.0889  0.0687
18923W        W34392   0.226  16.606   5.615 -0.2247 -0.1690 -0.0767
18924W        W34393   0.109  17.126  15.374  0.1011 -0.0319 -0.0003
18925W        W34394   4.779   2.918  13.729  0.0795 -0.1622  0.1382
18926W        W34395   0.484   2.425   1.612  0.1570  0.0777  0.3835
18927W        W34396  17.300   6.951  11.364 -0.0583  0.0213 -0.2872
18928W        W34397   8.257  15.664   2.872 -0.0398 -0.1980 -0.1142
18929W        W34398   8.693  14.533  15.773  0.0228 -0.0174 -0.2226
18930W        W34399  12.280  10.517   3.194  0.0347  0.2390 -0.4423
18931W        W34400   4.286  17.900   3.598 -0.0451  0.1318 -0.2375
18932W        W34401   2.914   2.176   3.160 -0.1657 -0.2307 -0.0648
18933W        W34402   2.629  16.835   1.376  0.0780 -0.0650  0.3144
18934W        W34403   6.368   3.245  15.111 -0.0937  0.0808 -0.0745
18935W        W34404   2.927   2.081  14.447 -0.1918 -0.0104 -0.0912
18936W        W34405  13.449  16.654   2.945  0.3024  0.0700 -0.0367
18937W        W34406  10.096   6.948   5.252 -0.2241 -0.0682  0.0468
18938W        W34407   8.575  12.112   2.935 -0.0118 -0.1641  0.2069
18939W        W34408  16.835  10.929   2.763 -0.0975  0.1038  0.2847
18940W        W34409  16.929  12.645  16.492  0.0749 -0.1580 -0.1019
18941W        W34410   8.421   2.317   4.991 -0.0821 -0.0145 -0.0603
18942W        W34411  17.270   9.705   1.278  0.0316 -0.0496 -0.0046
18943W        W34412  13.243  14.924  12.742  0.3628 -0.2845  0.0526
18944W        W34413   7.334  16.170  15.860 -0.2464  0.0694  0.0949
18945W        W34414   0.319   8.866   5.290  0.2189 -0.0191 -0.3030
18946W        W34415   1.144   3.663  15.403 -0.1084 -0.1079  0.1018
18947W        W34416  12.835  17.915   6.161  0.3432  0.0099 -0.1150
18948W        W34417   7.661   9.919   5.793  0.1580  0.2103 -0.0140
18949W        W34418   7.678   5.714   2.785 -0.0197 -0.1731 -0.1874
18950W        W34419  16.637  11.103   4.073  0.3837  0.2512 -0.0073
18951W        W34420  13.910   0.062   6.399 -0.1730  0.0259 -0.0311
18952W        W34421   0.256  17.043  13.346 -0.0550  0.2564 -0.1228
18953W        W34422   2.130  17.360   2.063  0.0929  0.1842  0.1149
18954W        W34423   4.632  13.456  15.451  0.2266 -0.0126 -0.0003
18955W        W34424  17.628  10.790   4.247 -0.2334 -0.0779  0.2931
18956W        W34425   7.889   5.221   2.882  0.0192  0.1834 -0.1812
18957W        W34426  10.999   8.607  14.756 -0.0022 -0.0649 -0.2468
18958W        W34427  17.091   6.655  15.623 -0.1584 -0.1595  0.1925
18959W        W34428   6.543   0.989  13.969 -0.0134  0.1585  0.1151
18960W        W34429   0.858   9.765  10.834 -0.1884  0.1422  0.0069
18961W        W34430  14.303   7.582   5.118 -0.0659 -0.0592  0.1722
18962W        W34431   7.351   8.156  11.375  0.0726 -0.1346  0.0612
18963W        W34432   6.168  11.471   5.713  0.1285 -0.1898  0.1928
18964W        W34433   2.556  13.924  16.468 -0.1422 -0.1352  0.0513
18965W        W34434   3.027  15.669  12.883  0.1159 -0.1686 -0.1262
18966W        W34435   7.499   1.678  13.624  0.1754  0.1838 -0.1374
18967W        W34436  15.492  10.734  12.679  0.1295  0.0864  0.1722
18968W        W34437   1.111  14.820   0.423  0.3140 -0.0128  0.1391
18969W        W34438  17.317   7.506  12.725 -0.0828 -0.0948 -0.2017
18970W        W34439   4.013  14.842  16.592  0.0483  0.0698  0.0821
18971W        W34440   8.789   8.612  14.441 -0.2319  0.0341 -0.0399
18972W        W34441   7.956   2.115   1.625  0.2252  0.1405 -0.4395
18973W        W34442   0.257  17.028  14.332 -0.3885  0.0930 -0.1707
18974W        W34443   8.018  10.437  10.532  0.2010  0.0580  0.2487
18975W        W34444  12.111  11.278   1.767 -0.0713  0.2825 -0.1369
18976W        W34445  16.491  17.717  15.963 -0.0555  0.0650 -0.1761
18977W        W34446   3.697   2.335   0.756 -0.1644 -0.0808  0.1246
18978W        W34447  10.468   7.819   1.749  0.1482 -0.0030 -0.1495
18979W        W34448  14.055   6.425  12.917 -0.1782 -0.0969 -0.1585
18980W        W34449  11.481  11.362  13.155 -0.0822 -0.0252  0.0739
18981W        W34450   8.211   4.465  12.992  0.0838  0.0267 -0.0333
18982W        W34451   2.244   8.775   1.470  0.2588  0.0573  0.2294
18983W        W34452   0.044   4.560  16.014  0.3051  0.1538  0.3426
18984W        W34453   3.109   9.313   5.439 -0.2978 -0.2625 -0.0541
18985W        W34454   5.930  12.741  13.928  0.0285  0.2641 -0.0964
18986W        W34455  11.922   8.379   0.280 -0.2118  0.1530  0.0768
18987W        W34456   2.217   9.816   0.810 -0.2270  0.0842 -0.1090
18988W        W34457  13.878  17.285   3.230  0.0070  0.0960  0.1821
18989W        W34458  10.593  16.570   4.481 -0.0737  0.3724 -0.1170
18990W        W34459  11.040   6.329  14.294 -0.0606  0.0660 -0.0981
18991W        W34460  10.491   2.327  13.292 -0.2236 -0.1544  0.1429
18992W        W34461   7.530   5.712  12.186 -0.0990  0.1279  0.2681
18993W        W34462  13.925   8.134   3.760  0.0236  0.1688  0.0976
18994W        W34463   7.015  16.059   1.356 -0.1201  0.1594 -0.0446
18995W        W34464   9.812   3.021   0.445  0.2398 -0.0888  0.1425
18996W        W34465   6.394   0.503  13.827  0.0004 -0.1314  0.0355
18997W        W34466   0.570   1.663  14.683 -0.1158  0.1547 -0.0618
18998W        W34467   5.107   2.173   0.465 -0.0678  0.4087  0.0989
18999W        W34468   6.957  12.886  16.267  0.0914 -0.1829  0.1920
19000W        W34469   3.177  15.493  14.714  0.1052  0.1448 -0.1119
19001W        W34470  16.508   5.196   6.152 -0.1778  0.2407  0.1561
19002W        W34471   6.083   0.744  16.275  0.0316 -0.0018 -0.1080
19003W        W34472   2.287  15.332   4.626 -0.1774 -0.0547  0.1092
19004W        W34473  12.460   7.914   0.694  0.0692  0.0002  0.0677
19005W        W34474   4.663  14.605   1.637  0.2225 -0.1466 -0.3561
19006W        W34475  11.731   0.277  15.716 -0.0236 -0.2702  0.1777
19007W        W34476  16.726  12.830   0.926 -0.0070 -0.0875 -0.0644
19008W        W34477  10.587  15.562   0.791  0.1919 -0.0467  0.1579
19009W        W34478   1.070   1.723   1.968  0.0903  0.0026 -0.1954
19010W        W34479   8.927  12.528   2.865  0.1011  0.1326  0.0332
19011W        W34480  14.935  16.196  15.619 -0.0412 -0.1724 -0.0680
19012W        W34481   6.261  15.340   5.319  0.0383 -0.0278 -0.1152
19013W        W34482   8.141   1.164  13.243  0.3718 -0.1962  0.4463
19014W        W34483   2.465   8.493   3.481 -0.0630 -0.4955 -0.2884
19015W        W34484   6.468   7.936   4.551 -0.0437  0.0521  0.1659
19016W        W34485   2.550   3.516   2.726  0.0991 -0.0504  0.2703
19017W        W34486   8.536  12.748   4.327 -0.0055  0.2089 -0.0301
19018W        W34487   1.463  17.827   4.194  0.5385  0.0253  0.3012
19019W        W34488  17.474  14.672   0.241 -0.0516 -0.0609  0.3580
19020W        W34489   7.453  13.987  13.490 -0.1686  0.2265 -0.2559
19021W        W34490   4.323   5.263  12.502 -0.0290  0.0380 -0.1648
19022W        W34491   5.932   2.057   5.516  0.2573 -0.0674  0.1346
19023W        W34492  10.178  16.306   3.373 -0.0355 -0.1929 -0.0924
19024W        W34493   2.899   5.912   4.276  0.4011  0.1778  0.1303
19025W        W34494  11.133  10.206  11.243 -0.1160  0.0959  0.0100
19026W        W34495  10.777   1.943   5.811  0.0239  0.0583 -0.2445
19027W        W34496   0.877   6.798   4.891 -0.1166 -0.2029 -0.3110
19028W        W34497   5.870   3.123   1.090  0.1634  0.3592 -0.0041
19029W        W34498  10.603  15.710   5.111  0.0001  0.0615 -0.0671
19030W        W34499   2.030   4.219   2.315 -0.1383  0.0560 -0.0126
19031W        W34500  10.111  14.825   3.869 -0.0115  0.0264 -0.2715
19032W        W34501  13.408  13.124   4.128 -0.0070  0.2352 -0.3297
19033W        W34502   2.435   2.800   0.060 -0.1366 -0.2178  0.0343
19034W        W34503   1.096   8.651   3.779 -0.0882  0.2096 -0.1414
19035W        W34504   0.649  11.343   5.306  0.1067 -0.2626  0.1552
19036W        W34505  10.901   7.767  12.816 -0.0346 -0.1590 -0.0825
19037W        W34506   6.101   8.630   3.292  0.0455 -0.1751  0.2443
19038W        W34507  15.469  11.764  11.733 -0.0338  0.4272  0.0795
19039W        W34508   6.605   5.613   2.557 -0.0061 -0.2213  0.0106
19040W        W34509  14.016   8.725  13.793  0.0519 -0.0634 -0.3875
19041W        W34510   2.286   3.204   5.418  0.2222 -0.0296 -0.0134
19042W        W34511   4.455   9.113   3.262  0.1667 -0.2448 -0.3367
19043W        W34512   2.311  12.911   2.147  0.0991  0.1559 -0.2160
19044W        W34513   9.926   2.037   2.269  0.4861  0.1574  0.1475
19045W        W34514  13.977   4.320  11.165  0.2166 -0.1952  0.0480
19046W        W34515   1.962   6.098  14.886  0.1436  0.2268 -0.0944
19047W        W34516   1.997   8.935  15.918 -0.0641 -0.3736  0.1461
19048W        W34517  11.278  16.106  11.735  0.1991 -0.1995 -0.1540
19049W        W34518   5.995   4.372  11.787  0.1158 -0.0735  0.1094
19050W        W34519  11.153  11.723  11.424  0.0781  0.0737 -0.0081
19051W        W34520  13.163   4.061   0.977  0.1368  0.2118  0.1251
19052W        W34521   1.585   9.308   1.702  0.0208 -0.1629  0.1016
19053W        W34522   4.261   5.996  11.199  0.0969  0.0439  0.2162
19054W        W34523   6.028   4.492  12.274  0.0851  0.1527 -0.0190
19055W        W34524   9.782   3.835  14.423  0.0209  0.0782  0.3468
19056W        W34525   5.853   5.751  15.570  0.0535 -0.2503  0.2815
19057W        W34526  15.945  11.089  15.782 -0.1412  0.0075  0.0650
19058W        W34527   3.594   7.956  11.911  0.0159 -0.1862 -0.0926
19059W        W34528   9.915   7.599   4.736  0.4528 -0.1452 -0.2522
19060W        W34529   9.633   1.591   5.607 -0.1053 -0.2036 -0.0289
19061W        W34530   8.678  12.939   2.682  0.4290  0.0747  0.0567
19062W        W34531   0.906   4.625  12.690  0.0957  0.0574 -0.2425
19063W        W34532   5.553  14.938  13.375 -0.1119 -0.0032 -0.0359
19064W        W34533   6.450   3.883   2.565  0.0023  0.1098 -0.2403
19065W        W34534  14.930  15.634   2.734 -0.0211 -0.0363 -0.1188
19066W        W34535   0.200   2.802   2.037  0.0405  0.4191 -0.0712
19067W        W34536   7.464   1.047  14.832 -0.3262  0.0437 -0.0101
19068W        W34537  13.859  17.591  15.718  0.1878 -0.0572 -0.0442
19069W        W34538  10.914   3.713   0.803 -0.2441  0.0579  0.0225
19070W        W34539  10.964   2.418   5.786 -0.0959  0.1963  0.1075
19071W        W34540   1.289   6.441   3.510 -0.0469 -0.1788  0.0088
19072W        W34541   8.775  12.413   1.940 -0.1947  0.0914  0.0213
19073W        W34542  16.862   7.641   1.477 -0.0535 -0.1741 -0.0975
19074W        W34543   8.317  16.965   0.270  0.0083  0.1082 -0.1794
19075W        W34544  12.823  16.076  14.634  0.0662 -0.0010  0.0992
19076W        W34545   0.747  16.479  13.967 -0.1307  0.0443  0.4372
19077W        W34546  11.460   7.874  14.609  0.0118  0.1865  0.0181
19078W        W34547  11.605  15.106  16.535  0.1640  0.0405 -0.2240
19079W        W34548  13.072  10.831  11.050  0.2639 -0.0969 -0.4759
19080W        W34549   8.145   1.624  13.036 -0.0170 -0.0286 -0.3402
19081W        W34550   8.738   6.887  11.345  0.2750  0.1431  0.0789
19082W        W34551   8.179   7.218  16.280  0.1351 -0.1129  0.1514
19083W        W34552   4.936   6.473  16.251 -0.0039  0.1960 -0.3784
19084W        W34553   0.257   8.094   3.123  0.0811 -0.1003  0.1476
19085W        W34554   4.189   0.430  15.365  0.0634 -0.0208  0.1500
19086W        W34555   8.176  10.082   1.871 -0.2631 -0.3657 -0.0311
19087W        W34556  15.989   4.349  14.376 -0.0863  0.3438 -0.4828
19088W        W34557  11.824   4.121   4.047 -0.2212 -0.0297 -0.1274
19089W        W34558   0.037   2.137   3.480 -0.0547  0.1434 -0.0392
19090W        W34559  17.526  15.860   0.325 -0.1165  0.2438  0.2625
19091W        W34560  12.470  17.431  12.807  0.0422  0.1707  0.0876
19092W        W34561  10.124   6.986  14.452 -0.1144 -0.0688 -0.1200
19093W        W34562   5.626  16.165  16.421 -0.0502  0.0983  0.1881
19094W        W34563  10.280   3.565  13.142 -0.0097 -0.1123 -0.0022
19095W        W34564   9.570  11.788  13.539  0.1736 -0.0497 -0.1419
19096W        W34565  13.722   0.106   0.526 -0.0497  0.0229 -0.0961
19097W        W34566   9.161  11.456   1.174  0.1570 -0.0118  0.2972
19098W        W34567  14.803  17.773  12.087 -0.1412 -0.2508  0.3326
19099W        W34568  10.025   1.941  16.082  0.0789 -0.0989  0.1590
19100W        W34569  11.668   2.517  13.870  0.1328 -0.0998 -0.1069
19101W        W34570  11.564   7.207  15.707  0.0482  0.1715 -0.2095
19102W        W34571   5.886  15.261  11.541  0.0087 -0.1223  0.0012
19103W        W34572   4.179   7.229  10.746 -0.0648  0.2557  0.2577
19104W        W34573   0.107  11.035  13.936 -0.0566  0.3669  0.2920
19105W        W34574   3.662  16.635  14.546  0.1496  0.0362 -0.1038
19106W        W34575   2.321   7.239  13.974 -0.1644 -0.1284  0.1662
19107W        W34576   7.906  11.290  12.535 -0.1694  0.1710  0.1602
19108W        W34577   3.479  10.129  14.509  0.2769 -0.0593  0.1944
19109W        W34578  10.171   3.228   1.831 -0.2438  0.0273 -0.1780
19110W        W34579  17.530  12.483  13.138 -0.2214 -0.2912  0.3314
19111W        W34580   5.935   5.974   1.770  0.0543 -0.1283  0.1365
19112W        W34581   5.448   3.024  13.602 -0.0569 -0.0975 -0.1122
19113W        W34582   2.029   8.935  13.331  0.1284 -0.2596  0.2346
19114W        W34583  15.622   3.810   0.766 -0.0986 -0.0393  0.2227
19115W        W34584   5.512   5.384  15.886  0.2374  0.4025  0.0257
19116W        W34585   4.130   4.598  11.537  0.0919  0.1301  0.3016
19117W        W34586   1.648   7.055   4.099 -0.0129  0.2152  0.3076
19118W        W34587  17.910  14.828   0.383 -0.0824 -0.0134  0.2640
19119W        W34588   1.413   2.503  13.107 -0.2227 -0.0513 -0.0589
19120W        W34589  13.693   2.848   5.511  0.0499 -0.0316  0.0859
19121W        W34590   3.345  12.942   5.485  0.2224  0.1774 -0.1102
19122W        W34591   2.346  10.466   1.021  0.1616 -0.1792  0.0864
19123W        W34592   1.785   4.644   3.536  0.0057  0.1687  0.0586
19124W        W34593  10.935   6.000   4.922  0.0363 -0.1074  0.0474
19125W        W34594   7.452  10.212  15.539  0.0877  0.0659  0.0671
19126W        W34595   4.615   0.488  15.834 -0.0519  0.1146  0.0053
19127W        W34596   4.655   4.446   1.759  0.2719 -0.1493 -0.0292
19128W        W34597  12.983   2.614   4.250 -0.3635 -0.2158 -0.0199
19129W        W34598   8.416   4.349   4.989  0.4846 -0.0457  0.1827
19130W        W34599   3.620   3.580   0.319  0.1064  0.0892 -0.3008
19131W        W34600   4.284  13.992   4.134 -0.1538  0.3343 -0.2135
19132W        W34601  16.767  17.422   1.703  0.1099 -0.1750 -0.0571
19133W        W34602   7.494   8.689  13.819 -0.1659  0.1911  0.1131
19134W        W34603   1.764  13.035  15.685  0.0724 -0.0730 -0.0508
19135W        W34604  15.566   6.253   1.331  0.2426  0.0460 -0.4461
19136W        W34605   2.186  17.947  11.950 -0.2522  0.4740 -0.0911
19137W        W34606   7.714   5.993   0.359 -0.0067 -0.1565 -0.0085
19138W        W34607   9.240   1.591  16.314  0.1600  0.0122  0.0928
19139W        W34608   5.941   8.822   5.600 -0.0589 -0.1374 -0.1453
19140W        W34609   7.945   2.146  16.243 -0.0843 -0.1235  0.0495
19141W        W34610   0.195   3.091   2.531  0.1045  0.1494  0.0109
19142W        W34611   5.403   1.810  14.128  0.0163  0.1566 -0.0211
19143W        W34612   2.714   2.445  14.142 -0.1613 -0.0827  0.1861
19144W        W34613   5.977  12.935   0.049  0.1130 -0.1772  0.1718
19145W        W34614   6.846   1.897   5.693  0.0006  0.0141  0.2062
19146W        W34615   8.559  16.313   5.390  0.2057 -0.2662 -0.0902
19147W        W34616  12.701   0.171   6.569  0.1884  0.0463 -0.1972
19148W        W34617  15.841   9.161   4.162  0.0763  0.1514 -0.1235
19149W        W34618  16.560   0.801   3.601 -0.0187 -0.2983  0.2841
19150W        W34619   1.946   3.823  15.036  0.0587  0.1642 -0.2302
19151W        W34620  17.405   6.268   1.560  0.0440  0.5884  0.0324
19152W        W34621  10.742  13.673   3.365  0.1422 -0.1665  0.2834
19153W        W34622  14.754   2.654  12.985  0.0438 -0.1900 -0.1772
19154W        W34623   3.721   7.034  13.066  0.0216 -0.1456  0.2032
19155W        W34624   2.890  13.150  16.564 -0.0240  0.1409 -0.1223
19156W        W34625   9.284  11.042   5.171 -0.2612  0.2889  0.0586
19157W        W34626   9.439   4.947  13.061 -0.0966 -0.1789 -0.2884
19158W        W34627   2.601  13.658   2.055  0.0674  0.2093 -0.3042
19159W        W34628   2.825  17.123   0.989 -0.0137  0.1916 -0.2602
19160W        W34629  16.257   7.415  15.338 -0.1355  0.1897 -0.1168
19161W        W34630  10.532   0.626  12.064  0.0221  0.0475  0.2868
19162W        W34631   3.221   4.063  15.578  0.2218 -0.0962 -0.0044
19163W        W34632  13.477  13.965   3.688 -0.0666  0.1957 -0.0792
19164W        W34633   7.058   7.758  15.748 -0.2345 -0.1407 -0.1119
19165W        W34634   4.797  11.633  16.028 -0.4429  0.0136 -0.0413
19166W        W34635   6.268  15.600   1.777  0.1193 -0.2916  0.3826
19167W        W34636  13.985   8.836   5.391  0.0531  0.0695  0.1852
19168W        W34637   5.923  11.030   0.147  0.2394  0.0063  0.1269
19169W        W34638   8.440   3.784   3.197 -0.1406  0.0667  0.5776
19170W        W34639  14.359   9.073   3.677 -0.0041  0.3409 -0.2199
19171W        W34640  17.110   5.558   0.781 -0.1121 -0.0379 -0.0652
19172W        W34641  15.882   1.673   2.371 -0.0736 -0.3569 -0.0124
19173W        W34642   7.781  15.479  14.793  0.0645  0.0166  0.0843
19174W        W34643   5.833   8.929  14.329 -0.0074  0.2560 -0.0762
19175W        W34644   6.321   9.214   1.670 -0.0759 -0.4206  0.1598
19176W        W34645   6.903  16.088  14.661  0.0859 -0.1429 -0.0509
19177W        W34646  15.102  17.149   4.150  0.3239 -0.2073 -0.1706
19178W        W34647   5.499   5.135   3.376  0.0239  0.1475 -0.1113
19179W        W34648   4.528   1.977   1.560  0.0596 -0.0001  0.0457
19180W        W34649   3.379   1.888  14.109  0.0342 -0.0316  0.1428
19181W        W34650  17.343   2.271  15.541  0.0233 -0.1156  0.1689
19182W        W34651   5.394  10.279   4.299 -0.0276  0.1184  0.2447
19183W        W34652   7.108  13.483   3.142 -0.1709  0.3335  0.1439
19184W        W34653  14.396   6.064   2.449 -0.0170 -0.3143 -0.2507
19185W        W34654   2.008  11.165   1.508 -0.2637 -0.1908 -0.0769
19186W        W34655   9.609   7.633  13.874  0.0773  0.1145 -0.0273
19187W        W34656   1.277  13.515   1.416  0.0939 -0.1292  0.2032
19188W        W34657  17.588  15.235  12.680  0.0355 -0.0601  0.1753
19189W        W34658   7.358   1.023   6.262  0.0473 -0.3669 -0.0184
19190W        W34659  17.138   4.717  12.301 -0.1647 -0.3616 -0.1616
19191W        W34660   2.100   4.926  10.817 -0.2495  0.2168 -0.0432
19192W        W34661   6.702   4.896  15.326  0.0727  0.1107 -0.1750
19193W        W34662  12.143   8.840  11.141  0.2020 -0.0485 -0.0927
19194W        W34663  15.048  11.926   0.703 -0.0551  0.2231 -0.0713
19195W        W34664  16.862   0.771   1.976  0.2300  0.3109  0.0331
19196W        W34665  11.475   5.899   0.061  0.0751 -0.0842 -0.1339
19197W        W34666  14.912  15.817   4.585 -0.1485  0.1652 -0.1254
19198W        W34667  11.234   9.311  16.390  0.0037 -0.1494 -0.0273
19199W        W34668   9.301  13.694   3.625 -0.1115 -0.0452 -0.2937
19200W        W34669   3.696  10.490  14.843  0.0043  0.1374  0.1610
19201W        W34670   8.301   4.144  13.905  0.2018 -0.1949  0.1866
19202W        W34671  17.878   0.062   4.548  0.0420  0.0392 -0.1385
19203W        W34672  16.755  17.864  13.748 -0.0949  0.0086  0.1270
19204W        W34673  12.131   1.589   4.596 -0.3657 -0.1597 -0.0260
19205W        W34674   4.697   9.531   5.176  0.0096 -0.3462 -0.2529
19206W        W34675  16.652   1.961  14.232  0.1157 -0.0616  0.0300
19207W        W34676   8.431   7.509   3.947 -0.1104 -0.4459 -0.1733
19208W        W34677  10.854  16.989   4.652  0.3173  0.0080 -0.1195
19209W        W34678  13.547   4.567  10.768 -0.2309  0.0211  0.2025
19210W        W34679  14.023  15.801   4.611  0.0207 -0.1341 -0.2983
19211W        W34680   2.155  14.555   3.979  0.0333  0.2280  0.0270
19212W        W34681   8.996   1.215   2.361 -0.1443 -0.0846  0.0857
19213W        W34682   8.624  17.164  15.074  0.1778 -0.0370 -0.1009
19214W        W34683  14.706   2.081  16.517  0.0455  0.1644  0.0844
19215W        W34684   5.358  12.329  13.811 -0.1589  0.2620  0.2988
19216W        W34685  16.304   3.427   2.852  0.1171  0.0155 -0.2093
19217W        W34686  15.819  16.973   1.742  0.0599  0.0631  0.0230
19218W        W34687   8.481   7.694  14.637  0.2538  0.1289 -0.0293
19219W        W34688  17.518  10.297   1.084  0.0508 -0.1396  0.0352
19220W        W34689   8.144  14.220  14.483 -0.1685  0.1952  0.1141
19221W        W34690   1.469   6.356  15.569 -0.2950 -0.0397  0.0543
19222W        W34691   4.936   5.383   2.691  0.2523  0.1960  0.0447
19223W        W34692  12.693   3.895   0.891  0.0671 -0.2677 -0.1272
19224W        W34693   7.051   5.420   6.121  0.1235  0.0898 -0.0022
19225W        W34694   0.989   2.340   0.900  0.1632  0.0474  0.0469
19226W        W34695  14.373   2.798  10.211  0.0855 -0.0586 -0.0413
19227W        W34696   9.978  17.616   3.702  0.0941  0.0310  0.1554
19228W        W34697   7.562   1.059   1.691  0.2893 -0.2552 -0.0865
19229W        W34698   3.516  11.207   0.148  0.0457 -0.1409  0.0887
19230W        W34699  16.169   7.593  13.885  0.0953  0.1243 -0.2350
19231W        W34700  12.711  11.287  16.408  0.1810 -0.0537  0.3421
19232W        W34701   7.177   7.677   2.644  0.0035 -0.3834 -0.2679
19233W        W34702   0.878   4.563   0.508  0.2245  0.1224  0.2688
19234W        W34703  14.377   4.326   0.989 -0.0163 -0.2304  0.1818
19235W        W34704   2.640   5.330   5.291 -0.3364  0.0401 -0.2718
19236W        W34705  13.504   4.300   1.168 -0.2872 -0.2257  0.2888
19237W        W34706  11.706   2.308  14.556  0.0572 -0.1703  0.1215
19238W        W34707  10.489   7.654  16.475  0.2973  0.0830  0.0981
19239W        W34708  11.755   9.910   2.661 -0.2112 -0.4919  0.1193
19240W        W34709  12.877   5.868  13.637 -0.0367 -0.0845  0.1304
19241W        W34710  14.889   0.067   0.179 -0.3214 -0.2941  0.0985
19242W        W34711   2.895   8.180  12.124  0.2063 -0.1563 -0.0409
19243W        W34712   5.102   6.090   5.175  0.2035  0.1652 -0.0506
19244W        W34713  10.798   4.718   2.749 -0.0513  0.1876  0.1269
19245W        W34714   7.716   4.813  14.048 -0.0168  0.2661  0.1531
19246W        W34715   8.723   3.857  11.984  0.3796  0.1365  0.0001
19247W        W34716  15.945  14.487  16.406  0.2627  0.0170  0.3852
19248W        W34717  15.325  12.566   1.999 -0.0439 -0.0831  0.1381
19249W        W34718   7.672  13.020  15.154 -0.0581 -0.2677 -0.0165
19250W        W34719   1.299  13.834   5.142 -0.2271 -0.3970 -0.0939
19251W        W34720   9.815   4.364  11.998 -0.2878 -0.0878  0.0831
19252W        W34721  17.970  13.003   5.544  0.1216  0.2170 -0.1311
19253W        W34722   4.858   3.251   1.204 -0.0842 -0.3498  0.2944
19254W        W34723  11.996   5.332  13.215  0.0672  0.1698  0.0731
19255W        W34724   8.971  11.171   2.790  0.0021 -0.2855  0.2813
19256W        W34725   1.625  12.912  12.370  0.0004 -0.1058  0.0512
19257W        W34726  17.005   8.582  12.952 -0.4215  0.1886 -0.0876
19258W        W34727  10.572   4.953   0.086 -0.0847  0.0232 -0.0165
19259W        W34728   6.039   3.364   3.877  0.0369 -0.0957  0.1479
19260W        W34729   7.450  15.590  12.734 -0.0159  0.0410 -0.1670
19261W        W34730   1.209   7.852   2.953 -0.0364  0.0242  0.3112
19262W        W34731   5.567   6.144  12.969  0.0254 -0.1633  0.1531
19263W        W34732  14.756   3.280  13.444 -0.0324 -0.0136  0.0536
19264W        W34733  16.953  12.585   3.266  0.0873  0.0986  0.2077
19265W        W34734   1.977   0.039  15.541  0.0632  0.0708 -0.1451
19266W        W34735   2.557  10.124  14.292 -0.0972 -0.1420 -0.1880
19267W        W34736  16.800   3.332   1.165 -0.3567 -0.0424  0.0251
19268W        W34737  17.758  12.036   4.316  0.0739 -0.1438 -0.1474
19269W        W34738   0.956   7.464  14.577 -0.0574 -0.2751  0.2044
19270W        W34739  14.041  11.956  11.550  0.0450 -0.1172  0.1959
19271W        W34740   9.334   1.584   2.507  0.1156 -0.0513  0.1766
19272W        W34741   2.895  15.681  12.006 -0.2571 -0.1263  0.0852
19273W        W34742   7.386  12.380   0.325  0.2628  0.1501 -0.0459
19274W        W34743  11.163   2.803   2.298 -0.1320 -0.1222  0.3130
19275W        W34744  14.879   7.439  15.492 -0.0513 -0.2458 -0.0167
19276W        W34745   7.208   7.640  11.626 -0.1210 -0.1977  0.1939
19277W        W34746  15.800   1.763   5.529  0.0331 -0.2562 -0.1119
19278W        W34747   2.570  16.283   3.572  0.5609  0.0251  0.4346
19279W        W34748  17.417   2.090   4.122 -0.0269  0.3319  0.1649
19280W        W34749  17.081  13.566   1.481  0.0927  0.0199 -0.4475
19281W        W34750   7.444  10.450   3.388 -0.1138 -0.2906 -0.2152
19282W        W34751   2.186   1.723   2.257 -0.3731  0.4450  0.1751
19283W        W34752  13.312   1.405   5.464 -0.3066 -0.0605  0.0591
19284W        W34753  10.919   8.645  13.428 -0.1265  0.0164  0.0438
19285W        W34754   3.268  10.252  15.058 -0.1930  0.0562  0.2801
19286W        W34755  10.787   6.328   3.593  0.0155 -0.2499 -0.3073
19287W        W34756  11.399   4.355   0.303  0.0805  0.0167 -0.0263
19288W        W34757  12.067  13.895  15.602 -0.0835  0.0373  0.2263
19289W        W34758   4.384   7.778  13.248 -0.0279  0.1110  0.0533
19290W        W34759   7.761   7.345  10.998  0.2490  0.0867  0.1665
19291W        W34760  17.648   1.087   2.963 -0.3575  0.1134 -0.2494
19292W        W34761  16.558  16.358   0.961  0.0412 -0.2102  0.0606
19293W        W34762  10.748  17.394   6.649 -0.5479  0.1769  0.1708
19294W        W34763   3.412   2.179   2.450  0.1578  0.1468  0.4618
19295W        W34764   8.271  10.931  14.467  0.1703  0.1033  0.1389
19296W        W34765   8.564   6.974  11.826 -0.1098  0.2199  0.0009
19297W        W34766  14.387  17.960   5.110  0.2502  0.1455  0.1131
19298W        W34767   0.897   7.712   3.569  0.2557  0.0871 -0.1757
19299W        W34768  12.121   7.183   1.633 -0.0115  0.0142 -0.3231
19300W        W34769  12.009   7.127  11.354 -0.0347  0.0716 -0.3066
19301W        W34770   3.388   9.185   3.695 -0.4448 -0.0348 -0.3053
19302W        W34771  15.123   3.687  14.607 -0.3885 -0.1261  0.0095
19303W        W34772  13.330  11.967   1.376 -0.1343 -0.0071  0.0395
19304W        W34773  12.678  17.005   4.050  0.2638  0.3734 -0.0365
19305W        W34774   0.871  10.188  12.416  0.1044  0.1974 -0.0422
19306W        W34775  10.268  10.251  16.107  0.1399  0.0730 -0.1171
19307W        W34776   1.619  11.567   3.404  0.0723 -0.2801  0.0261
19308W        W34777  10.205   4.476  15.098  0.0074 -0.1447  0.0344
19309W        W34778   8.035   7.718   5.483  0.1480 -0.1847  0.2893
19310W        W34779  10.761   7.131   4.331  0.0677  0.2253  0.0124
19311W        W34780  11.943   6.086   0.158 -0.1308 -0.1254 -0.0095
19312W        W34781  15.095  17.190   4.701 -0.1490 -0.0033  0.1103
19313W        W34782  12.028   2.575   2.346  0.1478  0.0953  0.0012
19314W        W34783   5.844  16.386   5.690  0.1857 -0.0291 -0.4374
19315W        W34784   4.593   4.660  13.648  0.0477 -0.2383  0.2597
19316W        W34785  13.876   9.471  11.913 -0.1668  0.0119 -0.0967
19317W        W34786  14.528  14.190  12.224  0.0527 -0.1969  0.0933
19318W        W34787  12.161  13.163   3.674  0.0196  0.2654  0.1003
19319W        W34788   9.020  17.526   4.771 -0.0211  0.0056  0.1879
19320W        W34789  10.520   2.762  14.087  0.2766  0.1477 -0.0741
19321W        W34790   2.806  16.890  12.925 -0.0767  0.5884 -0.1831
19322W        W34791  15.209  16.735   4.381  0.3229 -0.1708 -0.2375
19323W        W34792  10.707  17.905  16.406 -0.2294  0.2700  0.1553
19324W        W34793  15.159  11.504   1.019  0.0240  0.0411 -0.2746
19325W        W34794   5.682   3.688  12.227  0.0457 -0.4437  0.1670
19326W        W34795   5.251   2.874  11.768 -0.0430 -0.0442 -0.3034
19327W        W34796   2.023   3.334  11.516  0.2856  0.1705 -0.2940
19328W        W34797   6.101  17.533   4.689  0.3079  0.0360 -0.2880
19329W        W34798  16.491  12.376   3.664 -0.3733  0.1371  0.0828
19330W        W34799   9.519  13.056   1.832  0.4593  0.1235 -0.0301
19331W        W34800  15.021  14.834   1.666  0.0932 -0.0575  0.0512
19332W        W34801   9.960   2.763   1.646  0.0828  0.2498 -0.0867
19333W        W34802   0.550   0.393  16.115 -0.2925 -0.0900 -0.2582
19334W        W34803   7.808  15.578   4.196 -0.1985  0.1735  0.1896
19335W        W34804   3.332   4.593  13.418  0.0017  0.0042  0.3050
19336W        W34805   8.898   5.191   2.047  0.1101 -0.0243  0.0861
19337W        W34806   1.531   4.821  12.244 -0.0277  0.2666  0.2141
19338W        W34807  15.924  15.484  16.534 -0.3648 -0.1200 -0.0468
19339W        W34808  14.070  15.400  13.319 -0.0555 -0.0652 -0.0151
19340W        W34809   4.319  11.732   3.730  0.0496 -0.1144  0.1375
19341W        W34810  14.564  16.978   6.062  0.0976  0.1374 -0.1006
19342W        W34811   9.754   6.322  15.553  0.2199 -0.2153  0.2038
19343W        W34812  11.460   3.254   2.145 -0.0564 -0.1049 -0.0738
19344W        W34813   2.304  17.679  15.430  0.1541 -0.2021  0.0593
19345W        W34814   0.868   9.837   1.755  0.2040 -0.3183 -0.0916
19346W        W34815   6.969   3.983   2.590 -0.0581  0.4631 -0.2139
19347W        W34816   5.651  14.401   2.263 -0.2367 -0.0733  0.1027
19348W        W34817   0.059   7.172   2.568 -0.2408 -0.1516 -0.0825
19349W        W34818  17.917  14.250  11.729  0.1507  0.3522 -0.3608
19350W        W34819   3.598   7.401  12.047 -0.1992 -0.1603  0.2204
19351W        W34820   0.911   1.386  11.861  0.0094 -0.2355 -0.1941
19352W        W34821  11.935  10.186  13.571  0.2502  0.0415 -0.1537
19353W        W34822   5.865   5.122  11.962  0.3773 -0.2131 -0.1716
19354W        W34823   5.981  17.250  15.445  0.2907 -0.0041 -0.1740
19355W        W34824  12.067  17.798   3.646  0.0536  0.0645 -0.0285
19356W        W34825   1.571  10.983  13.033 -0.0144 -0.2647  0.0351
19357W        W34826   3.066   2.265  11.517  0.3633  0.1043  0.1043
19358W        W34827  12.558  12.372  13.698 -0.1357 -0.0734 -0.1666
19359W        W34828   7.081   0.991  12.098  0.0139 -0.0290 -0.1425
19360W        W34829  12.916   0.087  16.459  0.1469  0.0785  0.2020
19361W        W34830  11.019   4.586  15.039  0.1321 -0.1096 -0.0975
19362W        W34831   5.454   7.462   3.430  0.1597  0.1346  0.1507
19363W        W34832  15.223   5.651   5.013 -0.2603 -0.3722 -0.0064
19364W        W34833  11.195  10.163  12.218 -0.3251 -0.1570 -0.1181
19365W        W34834  14.576   7.390   1.125  0.1604 -0.0376  0.0152
19366W        W34835   7.053  15.249  12.688 -0.0169 -0.1058  0.1747
19367W        W34836   3.625  17.630   4.630 -0.2866 -0.1287  0.0371
19368W        W34837   0.806  14.801  12.307 -0.1379  0.1737  0.1918
19369W        W34838   1.981   2.163   1.150 -0.0075 -0.0865 -0.3373
19370W        W34839   7.723  17.076  11.798  0.0825  0.0063  0.1733
19371W        W34840  15.588  10.250  13.813 -0.1402 -0.2396 -0.2689
19372W        W34841   6.516  17.581   3.531 -0.0279  0.1745  0.1071
19373W        W34842   4.871  11.868  14.226  0.0833 -0.0784 -0.2562
19374W        W34843  16.795   0.796  11.970  0.0094 -0.2628  0.2587
19375W        W34844   9.379   6.161   4.968  0.0279 -0.0126 -0.0549
19376W        W34845   9.160  15.120  11.807 -0.0628  0.2245  0.0181
19377W        W34846  11.409   0.232  12.423  0.0529  0.1016 -0.1386
19378W        W34847   3.592  11.993   3.365 -0.2470 -0.1303  0.3184
19379W        W34848  10.495   1.599  14.043 -0.0528 -0.1475 -0.2861
19380W        W34849  17.497   9.276   1.210 -0.1524  0.3185  0.1640
19381W        W34850  10.985  17.132   6.060 -0.0376  0.0637 -0.1938
19382W        W34851   6.723   4.353  14.465  0.0746 -0.2485  0.0422
19383W        W34852   1.579  10.649  12.158 -0.0605  0.0534  0.0807
19384W        W34853  15.190   1.710   1.107  0.1453  0.1887 -0.2508
19385W        W34854   0.205  16.576  14.100 -0.2080 -0.1936  0.2175
19386W        W34855  10.299  13.247   2.638  0.0893 -0.2649  0.0562
19387W        W34856  10.658   4.932  11.859 -0.1201  0.3483  0.0871
19388W        W34857  14.440  11.643   0.659 -0.0846 -0.1605 -0.0453
19389W        W34858   5.352  14.967   4.148  0.1964 -0.1664 -0.0943
19390W        W34859   7.467   9.025  12.866 -0.0989 -0.2704  0.2645
19391W        W34860  11.398  16.039   1.063  0.0942  0.1419 -0.1779
19392W        W34861   2.399   3.707  12.820 -0.1275 -0.0188  0.2409
19393W        W34862   3.079   5.514  15.697 -0.1600 -0.0815  0.0343
19394W        W34863   3.055  14.611  15.853 -0.0913 -0.0952 -0.0320
19395W        W34864  14.728  14.255  13.081  0.3005 -0.1474  0.0863
19396W        W34865  10.699   3.682  14.534 -0.2692 -0.1139  0.2297
19397W        W34866  17.011  11.876  12.426 -0.2721  0.1718 -0.1685
19398W        W34867   7.740   2.014   4.324  0.2083  0.2232  0.0541
19399W        W34868   3.869  16.910  16.126  0.2062  0.0767 -0.1994
19400W        W34869   3.344  11.192   4.988 -0.1633 -0.1578  0.0846
19401W        W34870  13.636  13.782   0.651  0.1883 -0.1708  0.0989
19402W        W34871  13.274  12.453   1.488 -0.2088 -0.0624 -0.6616
19403W        W34872  12.360  16.081  16.237 -0.0835  0.0349 -0.0146
19404W        W34873   9.794   2.644   5.329  0.0711 -0.0412  0.0005
19405W        W34874   9.456   2.484   4.327  0.1992 -0.2141  0.0813
19406W        W34875  12.829   3.339  14.298 -0.3614  0.0954 -0.0535
19407W        W34876  14.785   1.168   2.148 -0.0849 -0.0202  0.1520
19408W        W34877   2.080   1.452   0.143  0.2416  0.0886  0.1946
19409W        W34878   2.529   3.149   5.030 -0.0521  0.0033  0.0093
19410W        W34879   9.697  14.061   0.786 -0.3403 -0.1179 -0.3232
19411W        W34880   0.004   2.519  13.042  0.3769 -0.1321  0.0159
19412W        W34881   7.805   2.103  12.843 -0.1062 -0.2934 -0.0161
19413W        W34882   8.126   7.411   1.383 -0.2486  0.0328  0.0397
19414W        W34883  16.344   2.594   3.029  0.2233 -0.0093 -0.0163
19415W        W34884  11.326   1.053  12.759  0.1256  0.2853  0.0308
19416W        W34885  14.780   9.888   4.595 -0.0001  0.3083 -0.0875
19417W        W34886   1.255  11.737   2.947 -0.2788 -0.1078 -0.0919
19418W        W34887   7.752   5.292  12.028  0.0876  0.0811  0.0531
19419W        W34888  11.987   0.179  12.834  0.0001  0.0762 -0.2585
19420W        W34889   4.835  17.986  15.829  0.0434  0.0383  0.0269
19421W        W34890   0.358  12.469   1.738  0.0571  0.0105  0.1778
19422W        W34891  11.354   7.566  13.203 -0.2203 -0.1433 -0.0281
19423W        W34892  10.299   8.639   5.207 -0.1844 -0.2598  0.0542
19424W        W34893   2.390   4.279  11.512  0.0500 -0.2720  0.1694
19425W        W34894  11.084   3.422  14.247  0.0678 -0.1350 -0.2533
19426W        W34895  11.821  10.369   4.030 -0.2165  0.4329 -0.1342
19427W        W34896  15.802  13.444   0.196 -0.0007 -0.2504  0.2728
19428W        W34897   6.767  17.103  13.557  0.3971  0.0275  0.2116
19429W        W34898  17.143  13.135  14.346  0.0924 -0.1308 -0.0091
19430W        W34899   6.355   8.423   2.906 -0.1738  0.1139 -0.2557
19431W        W34900  12.732   5.166  14.525  0.1504 -0.0961  0.2071
19432W        W34901   7.741   7.494   0.191  0.2325  0.3429 -0.0758
19433W        W34902   2.100   5.559   1.176 -0.0608 -0.0255 -0.0265
19434W        W34903  15.564   2.083   2.456 -0.1610 -0.0685  0.1235
19435W        W34904  14.969   6.149  15.801  0.1460 -0.0077 -0.0374
19436W        W34905  11.153   6.253   0.512 -0.2701 -0.0755  0.1077
19437W        W34906  11.388   1.580   1.183 -0.0794  0.0923  0.1486
19438W        W34907  11.109  17.318   2.789 -0.0705 -0.2358 -0.0405
19439W        W34908  16.745   0.837   0.625 -0.0959 -0.0908 -0.0039
19440W        W34909  11.600   3.840  13.506 -0.2455  0.1154 -0.2152
19441W        W34910   1.111  16.963  14.640 -0.0193  0.1033 -0.1450
19442W        W34911   3.103   7.868   1.614 -0.1304 -0.0585 -0.1794
19443W        W34912   5.864  16.614  12.371  0.1683  0.1613 -0.0748
19444W        W34913   7.554  10.148   1.545 -0.0031 -0.0391 -0.0924
19445W        W34914  12.924   7.873  12.418  0.0973  0.3539 -0.0297
19446W        W34915   2.018   2.390   5.204 -0.0988 -0.0487 -0.1541
19447W        W34916   7.675   8.176  13.890  0.3233 -0.1979 -0.0696
19448W        W34917   2.334   4.325   4.636  0.0483 -0.1215 -0.0321
19449W        W34918  10.897   6.488   5.837 -0.0658 -0.0609 -0.0832
19450W        W34919  17.070  12.498   1.287 -0.1539 -0.0085 -0.0106
19451W        W34920  13.773   9.379   1.711  0.0763 -0.1686  0.2457
19452W        W34921  14.482  15.726   3.746 -0.0079  0.1434  0.3674
19453W        W34922   7.987  14.196  12.793 -0.2271  0.0964 -0.0884
19454W        W34923   5.755   9.003   1.041  0.0436  0.0454  0.0317
19455W        W34924  12.988   9.838   2.833  0.0593 -0.0938 -0.1782
19456W        W34925   0.697   1.122  14.978 -0.1239  0.0462 -0.0895
19457W        W34926   4.574   6.810  15.549 -0.1735 -0.0479 -0.0892
19458W        W34927   8.869  13.206  13.442 -0.0585  0.0779  0.0370
19459W        W34928   7.294   0.277   2.841 -0.0578  0.0302 -0.0308
19460W        W34929   3.261  15.327   1.611 -0.0043  0.1118  0.3132
19461W        W34930  17.823  12.197  14.507 -0.0754 -0.0892  0.1834
19462W        W34931   6.502   0.388   0.163 -0.1866 -0.2903 -0.3295
19463W        W34932  13.720   3.766  14.027  0.1503  0.1921 -0.1063
19464W        W34933   0.779  17.303   1.686 -0.0560 -0.1432  0.2272
19465W        W34934  12.924  11.132   2.898 -0.1337 -0.3255  0.1162
19466W        W34935  15.210  13.907   3.905 -0.0447 -0.3274  0.1165
19467W        W34936  11.889  17.269   0.408 -0.0919 -0.0450 -0.2475
19468W        W34937  13.875   3.762   4.108 -0.0581 -0.0215  0.0450
19469W        W34938   7.928   3.962   2.957 -0.0543 -0.0966  0.1990
19470W        W34939   2.786  10.077  13.386 -0.0696  0.0260 -0.0038
19471W        W34940   3.616  17.862  16.447 -0.0754 -0.1794 -0.0439
19472W        W34941   2.789   6.890  11.757  0.3476 -0.2194  0.0670
19473W        W34942   3.440  12.535  12.832 -0.3104 -0.0411 -0.0281
19474W        W34943  12.401   2.995  15.822 -0.0442 -0.0250 -0.0008
19475W        W34944  14.243  11.223  15.356 -0.0727 -0.1360 -0.3038
19476W        W34945   3.675   3.842  14.707  0.3851 -0.2625  0.0430
19477W        W34946   7.364   8.828   1.888  0.2123 -0.1229  0.1471
19478W        W34947   0.757   0.378   3.347 -0.0301 -0.0274  0.2604
19479W        W34948   8.196  16.870   1.580 -0.2191 -0.0493 -0.2718
19480W        W34949  14.046  17.079   3.674  0.4853  0.0914 -0.2234
19481W        W34950  15.714   7.451  16.566 -0.2141  0.1131 -0.3251
19482W        W34951  14.711   2.130   2.467  0.1942 -0.1616 -0.2976
19483W        W34952  17.268   7.059  14.394  0.0211  0.3160 -0.0568
19484W        W34953   1.475  16.643   2.271 -0.1158  0.0067  0.1382
19485W        W34954   5.234   3.743   2.408 -0.0181  0.2255  0.2848
19486W        W34955   5.527   4.123  12.954  0.0333 -0.0554 -0.3228
19487W        W34956  16.287  12.047  15.507 -0.0042  0.3952 -0.2616
19488W        W34957   8.103  15.252   4.502  0.3656 -0.0164  0.1033
19489W        W34958   2.530  16.730   0.896 -0.0328 -0.2458  0.3646
19490W        W34959  12.438  14.575  16.370  0.1932  0.0371 -0.2149
19491W        W34960   4.706   2.128   3.518  0.0157  0.2941 -0.1871
19492W        W34961   1.449   8.924  10.118  0.2130  0.0990 -0.3231
19493W        W34962   5.505  17.040   1.645  0.5930 -0.1415 -0.1448
19494W        W34963   7.857  13.160  12.139 -0.1779 -0.0701  0.4252
19495W        W34964  15.867  16.285  13.044  0.1318 -0.0097  0.0900
19496W        W34965   3.387   3.934  15.147 -0.0053 -0.1213 -0.0415
19497W        W34966   3.048  13.553   4.020  0.0213 -0.2330  0.0249
19498W        W34967  16.744  12.946   6.234 -0.1216  0.2943  0.0058
19499W        W34968   9.009  15.941  13.232 -0.3174  0.0213  0.1284
19500W        W34969   0.445   4.314  13.708  0.0744  0.4430  0.1782
19501W        W34970   0.502   4.007   0.089 -0.2847 -0.0403 -0.1265
19502W        W34971   2.180   2.094  14.708  0.0867 -0.2268 -0.2998
19503W        W34972   2.602   2.195   2.791  0.1308 -0.0732  0.2724
19504W        W34973   1.121  10.721   1.051 -0.1801 -0.2039  0.1705
19505W        W34974   9.068  11.583   3.831 -0.2160 -0.1057 -0.4746
19506W        W34975  15.645  15.253   0.725  0.0884  0.1533 -0.3778
19507W        W34976   4.964  14.649   4.064 -0.1295 -0.0368 -0.2520
19508W        W34977  11.233   0.098   5.307  0.0885 -0.1487  0.2186
19509W        W34978   2.265  15.902   1.281 -0.2642 -0.0013 -0.0116
19510W        W34979  11.996  14.758   3.340 -0.0510  0.1327  0.0759
19511W        W34980   9.696   7.503   1.985 -0.0570 -0.1861  0.0646
19512W        W34981  12.023  15.411  11.907 -0.3851 -0.2237  0.1889
19513W        W34982  12.201  12.144   0.025  0.0769 -0.0580 -0.1129
19514W        W34983   1.873   8.887   1.984 -0.0043 -0.0486  0.0193
19515W        W34984  10.725   3.585  13.968 -0.0702  0.1922  0.2275
19516W        W34985  14.093  12.563   2.627  0.1307  0.2809 -0.1775
19517W        W34986   3.615  16.080   1.988 -0.0617  0.0437  0.0764
19518W        W34987   3.764   9.341  13.922 -0.1738 -0.0405 -0.1242
19519W        W34988  12.419  12.111  11.810  0.0669 -0.2271 -0.1047
19520W        W34989  17.175   0.466   5.138 -0.1290  0.0475  0.1749
19521W        W34990   5.297  13.740  15.933 -0.0100 -0.1808 -0.2269
19522W        W34991  11.187   5.252   0.395  0.0874 -0.0879 -0.0446
19523W        W34992  15.460   0.504  16.422  0.0251 -0.0282  0.2061
19524W        W34993   9.063   0.315   4.412  0.1228  0.0252 -0.2210
19525W        W34994  12.543   2.804   4.050 -0.4317  0.4393 -0.0747
19526W        W34995  16.310   5.109   4.025  0.0792 -0.0007  0.0264
19527W        W34996   2.030  12.856  12.771 -0.0240  0.2244 -0.0682
19528W        W34997   5.392  17.485   0.531 -0.3340  0.0026 -0.2182
19529W        W34998   8.339   3.966   2.632  0.1557  0.2733  0.0957
19530W        W34999   7.036  17.026  13.011  0.1896 -0.0794 -0.4871
19531W        W35000  12.667  14.170  16.067 -0.1044 -0.1281  0.0478
19532W        W35001  17.743   5.527  10.130  0.1164 -0.0043 -0.2185
19533W        W35002   4.472  17.974   0.879 -0.1074 -0.0658 -0.1023
19534W        W35003   5.055   0.013   4.722  0.1377  0.1942  0.0966
19535W        W35004   7.689   3.264   0.355  0.0405  0.0871  0.3118
19536W        W35005  17.771  16.872   1.297  0.0219  0.0339 -0.2625
19537W        W35006  15.919   8.235   1.392 -0.4823 -0.1134  0.2655
19538W        W35007  10.264   8.364  16.517  0.1053  0.0786 -0.2445
19539W        W35008   9.816  12.652   3.616 -0.1103 -0.0179 -0.0855
19540W        W35009  13.122   0.165  15.910  0.0912 -0.0868 -0.0754
19541W        W35010  17.485   9.874  15.097  0.2944  0.1674 -0.1425
19542W        W35011   8.064  12.433  11.473  0.0898 -0.0424  0.2308
19543W        W35012   7.364   8.074   0.774 -0.1977 -0.0848  0.2969
19544W        W35013   8.528   3.667   5.703 -0.4610 -0.2422  0.0506
19545W        W35014   6.034   8.366   1.695  0.0912  0.1109 -0.0214
19546W        W35015   0.714   0.445   4.922 -0.4667  0.1441  0.2057
19547W        W35016   3.177   6.174  10.613  0.1367  0.1276 -0.0626
19548W        W35017   8.192   5.663  15.146  0.1926  0.0101  0.1072
19549W        W35018   0.360  16.862   4.733  0.1575  0.0357 -0.0789
19550W        W35019  11.090  11.533   4.829  0.0292  0.0677  0.1283
19551W        W35020   6.135   1.660   5.073  0.2437 -0.0486  0.0870
19552W        W35021   4.649   8.258   2.156  0.3395  0.0031 -0.0324
19553W        W35022   6.673  11.296  12.016 -0.2335  0.2563  0.5597
19554W        W35023   6.764  17.347   5.771 -0.0439 -0.0114  0.1206
19555W        W35024  16.129  10.431   3.160  0.2075  0.0549 -0.2573
19556W        W35025  10.715  13.833   4.822 -0.2154 -0.2028  0.2277
19557W        W35026   8.343   2.952  16.226 -0.1883 -0.0905  0.2199
19558W        W35027   6.032   6.998  16.573 -0.2274 -0.1665 -0.0400
19559W        W35028  15.334   2.238  12.609  0.1452 -0.2462 -0.0798
19560W        W35029   3.167   4.895   4.778  0.0757 -0.1149  0.0218
19561W        W35030  13.142   7.354   4.494 -0.1431 -0.0973  0.0071
19562W        W35031   1.561  12.064  11.842  0.3607  0.1312 -0.0190
19563W        W35032   2.828   7.050   0.273 -0.2050  0.0515 -0.1291
19564W        W35033  14.792  12.461   2.020 -0.2946  0.0648 -0.0103
19565W        W35034  16.494   4.098   4.107 -0.1392  0.1221  0.0739
19566W        W35035   2.249  11.611  11.414  0.1328 -0.0170  0.0047
19567W        W35036  12.804  14.960  10.584 -0.2294 -0.0983 -0.1092
19568W        W35037  13.518   6.733  13.924 -0.1020  0.2749  0.0607
19569W        W35038  10.832  17.173   2.242 -0.1246  0.2441  0.0850
19570W        W35039  12.086   2.963   4.173 -0.0256  0.0793 -0.1152
19571W        W35040   7.811  16.710  15.555  0.1450 -0.3008  0.0505
19572W        W35041   8.056  15.175  16.131  0.0404  0.1529  0.2396
19573W        W35042  16.745  11.438   2.314  0.0579  0.1077 -0.0516
19574W        W35043  13.980  15.672  12.188  0.0146  0.0041 -0.2049
19575W        W35044   6.588  15.792   5.470  0.3305 -0.1545 -0.1750
19576W        W35045   2.201  11.658   4.593  0.0914  0.0395 -0.0751
19577W        W35046  17.814   2.677  12.395 -0.1512 -0.6753  0.0878
19578W        W35047  13.575   1.502  15.680 -0.0776 -0.3959 -0.0253
19579W        W35048   0.294  13.807   5.564  0.2155 -0.0922 -0.1579
19580W        W35049   8.318   7.776   0.901  0.0639  0.0225 -0.0468
19581W        W35050  13.409  14.783   4.263 -0.0317  0.0536 -0.0370
19582W        W35051  14.960  12.975  11.584  0.0769  0.0794 -0.1028
19583W        W35052  10.982   2.926  14.249 -0.2344  0.0430  0.0349
19584W        W35053   3.541   1.297  12.411 -0.1356  0.5146  0.1371
19585W        W35054   8.008   3.099   2.806  0.0224  0.0411  0.2492
19586W        W35055   2.043   4.354  14.847 -0.2387 -0.3139  0.1120
19587W        W35056   7.534   6.152  11.484 -0.0178 -0.0524 -0.2930
19588W        W35057   5.654   5.975   2.186 -0.0411  0.0509 -0.1596
19589W        W35058  17.377   7.687   2.360  0.0189 -0.0171  0.1293
19590W        W35059  15.607  17.584   0.912  0.2102  0.0197  0.0185
19591W        W35060   0.887  16.086   5.052 -0.0012  0.0173 -0.0614
19592W        W35061  10.849  12.617  16.321 -0.2339  0.0086 -0.1592
19593W        W35062  15.855   6.392  13.500  0.1434 -0.1710  0.1352
19594W        W35063  14.913   0.740   5.639 -0.1014  0.2638 -0.0818
19595W        W35064  11.732   0.672  11.779 -0.2201  0.4260  0.0655
19596W        W35065  15.647   4.497  13.917  0.0653 -0.0484 -0.0126
19597W        W35066   8.021   5.555   5.747 -0.0379  0.1233  0.0452
19598W        W35067   9.359   0.123   2.676  0.0896 -0.0997  0.0254
19599W        W35068  17.963   4.429   2.683 -0.3308 -0.1146 -0.1444
19600W        W35069   5.123   2.861   3.087  0.2285 -0.0844 -0.0127
19601W        W35070   8.212  14.056   3.490 -0.2173  0.0970  0.2354
19602W        W35071  16.596   4.192   3.003  0.0065 -0.0941 -0.0628
19603W        W35072  16.624   9.676   9.968 -0.1852 -0.0603 -0.0453
19604W        W35073  12.660   0.265  12.245  0.4030 -0.4349 -0.0371
19605W        W35074  12.925   5.796  12.370  0.1761  0.1710  0.0286
19606W        W35075  12.124  14.975  12.792  0.3625  0.1536 -0.2055
19607W        W35076  15.471   1.729   2.035  0.2284 -0.1228  0.0534
19608W        W35077   6.564   9.995  12.635 -0.1463  0.3105 -0.1457
19609W        W35078   1.913  13.305  14.885 -0.3280 -0.0570 -0.1422
19610W        W35079   5.103  16.279   1.905  0.2383 -0.1660  0.0620
19611W        W35080  11.320  15.293   6.212  0.0563  0.0957  0.0297
19612W        W35081  15.373   2.337  11.706 -0.1139 -0.0873 -0.0983
19613W        W35082  14.290   1.523  12.186  0.3056  0.1736  0.1655
19614W        W35083  13.676   9.727   5.328  0.0647 -0.1796 -0.0082
19615W        W35084   1.909   0.983   5.496 -0.2538 -0.1160 -0.1933
19616W        W35085   7.504   3.250   5.656 -0.0395  0.3185  0.2570
19617W        W35086  15.416   0.458  11.542  0.2024  0.0310  0.1034
19618W        W35087   0.583   8.947  15.289 -0.1318  0.2318  0.1619
19619W        W35088   8.742   9.014   4.536  0.1549  0.2038  0.0202
19620W        W35089   2.606   3.287   0.150  0.1683  0.1443  0.1786
19621W        W35090   8.311  10.374  10.970 -0.0929 -0.3914  0.0152
19622W        W35091  16.195  14.047  16.011 -0.0094  0.2753  0.2822
19623W        W35092  11.888   1.069   1.116 -0.0399  0.0234  0.2281
19624W        W35093  12.326   1.618  12.552  0.1884  0.2719  0.0224
19625W        W35094   8.488  16.133  11.542  0.0979  0.2035 -0.2161
19626W        W35095   6.533  14.051  15.541 -0.1221  0.1095  0.2844
19627W        W35096   4.447   3.479   5.151  0.0390  0.1627  0.2497
19628W        W35097   7.301  16.203   3.149 -0.1652 -0.0035 -0.2598
19629W        W35098   9.809   1.297   2.827  0.1065  0.0946 -0.1857
19630W        W35099  17.012  11.723   3.017  0.4309  0.0323  0.0973
19631W        W35100   7.032  16.756   5.454 -0.1805  0.0139  0.1691
19632W        W35101  11.762   9.494  10.628 -0.0388  0.1267 -0.1016
19633W        W35102  16.513  14.715   0.902 -0.3332 -0.2838 -0.3279
19634W        W35103   2.317   2.313   4.476  0.0067 -0.0822 -0.2969
19635W        W35104  14.538   7.229   2.436  0.2081 -0.0363 -0.0437
19636W        W35105  16.680   1.679  13.593 -0.0320 -0.0097  0.0995
19637W        W35106   0.649  17.282   3.058 -0.2235  0.1700  0.3526
19638W        W35107   2.791   0.715  12.018  0.1281  0.0853  0.2328
19639W        W35108  11.501   1.584   0.188 -0.0771  0.1233 -0.0125
19640W        W35109  12.472   8.442  11.828 -0.0957  0.0625  0.0408
19641W        W35110   0.565  11.810   5.255  0.1074 -0.3894 -0.4684
19642W        W35111  15.190   1.747  13.228 -0.1232 -0.2591 -0.1179
19643W        W35112  15.576   4.020  13.655 -0.0223 -0.2303  0.0114
19644W        W35113   0.938   7.907  15.947 -0.0394 -0.1385 -0.1467
19645W        W35114  14.703  16.652  16.356 -0.0570  0.0655  0.0807
19646W        W35115   6.935   2.865   4.132 -0.1911  0.2528 -0.2150
19647W        W35116  11.084  16.392   1.234 -0.0327 -0.1883  0.3936
19648W        W35117   7.590  10.139   3.019  0.1206  0.0994 -0.0060
19649W        W35118  16.932  16.997   1.811  0.3665 -0.0399 -0.1538
19650W        W35119  13.996   7.278   3.522  0.1807  0.2309  0.2176
19651W        W35120  12.556   9.991   1.546 -0.1934  0.1256 -0.0111
19652W        W35121   1.545   8.849   0.191 -0.1440  0.3872 -0.1796
19653W        W35122   2.827  13.493   1.644  0.3557 -0.2122 -0.1399
19654W        W35123   8.012   4.704  13.349  0.1788  0.0311 -0.0171
19655W        W35124   6.802  17.554   4.346 -0.0334 -0.1025 -0.0020
19656W        W35125  15.600   0.433   5.134  0.0727  0.2935  0.2981
19657W        W35126   3.884  11.786  16.430  0.1792  0.0961  0.0490
19658W        W35127   2.788  17.193  14.181  0.2363  0.1488  0.1572
19659W        W35128  16.453  17.017   3.640 -0.1745  0.0496 -0.1942
19660W        W35129   0.297   8.190   4.235 -0.1634  0.1009  0.1765
19661W        W35130   0.204   6.230  13.028  0.4388  0.1240  0.1696
19662W        W35131   3.534  11.546   2.473 -0.1589 -0.0357 -0.1744
19663W        W35132  17.013   0.614   3.350 -0.0980 -0.0974  0.0494
19664W        W35133  11.747  17.047   5.737 -0.0866 -0.2725 -0.1696
19665W        W35134  15.979   9.600   4.937 -0.2005  0.2251  0.1374
19666W        W35135   0.121   6.922  13.692  0.3458 -0.2184  0.0682
19667W        W35136   0.236   9.156  15.625  0.2874  0.1019 -0.2702
19668W        W35137  16.398   6.064   3.004  0.1930  0.1119 -0.0214
19669W        W35138  11.004  12.881  11.958 -0.0660  0.0029  0.0964
19670W        W35139  12.378  17.131  12.053 -0.0463 -0.0203  0.2058
19671W        W35140  17.624  12.020   3.655 -0.0553 -0.1485  0.0629
19672W        W35141   5.126   4.959   2.447 -0.4061  0.1201 -0.0438
19673W        W35142  13.870   0.954  12.840 -0.0670  0.2071 -0.0125
19674W        W35143   2.856  11.651   4.231  0.1091  0.1951  0.2010
19675W        W35144   3.069   2.297  15.767  0.2005  0.2487 -0.1955
19676W        W35145   7.094   4.901  14.526  0.1322  0.1216  0.2161
19677W        W35146   4.557  13.004   2.309 -0.1555 -0.3750  0.0025
19678W        W35147   2.940   3.742  15.348 -0.1849  0.1900  0.3612
19679W        W35148   7.579   0.621   4.571 -0.0720  0.1969 -0.1407
19680W        W35149   0.221   7.156  14.503  0.3293 -0.3726 -0.1614
19681W        W35150  16.050  17.266  15.311  0.0040  0.0055 -0.2225
19682W        W35151   6.840  12.203  11.450  0.3351 -0.0954 -0.1771
19683W        W35152   6.759   1.340  16.586 -0.0084  0.2545  0.0112
19684W        W35153  11.942   9.695   5.383  0.0067 -0.0220 -0.0258
19685W        W35154  13.329   1.601  15.224  0.1638  0.1164  0.0951
19686W        W35155  17.884   9.537  14.678 -0.0866  0.0605 -0.0035
19687W        W35156   9.628   7.805   4.010 -0.2543 -0.0570  0.0402
19688W        W35157  13.610  12.935   0.665  0.0310 -0.1677  0.0687
19689W        W35158   0.331  10.706  13.581  0.0838 -0.0170 -0.1055
19690W        W35159   2.987  14.177   5.377  0.1403  0.0593  0.2648
19691W        W35160  13.565  12.048  14.862 -0.1970  0.0316  0.1708
19692W        W35161   1.310   0.774   1.753 -0.0488 -0.3142 -0.1674
19693W        W35162   2.855  13.792   3.482  0.4144 -0.2212 -0.1822
19694W        W35163   4.787   2.592  15.230 -0.4404 -0.2531 -0.2079
19695W        W35164   9.574   4.355   0.118  0.0044 -0.0161  0.0002
19696W        W35165   6.049   9.523  11.765  0.1584 -0.0653 -0.0006
19697W        W35166  15.486  15.527   2.686 -0.1902 -0.0566 -0.0691
19698W        W35167   0.164   8.638  13.770  0.0638  0.0653  0.1736
19699W        W35168  14.119   7.757   1.768 -0.3156  0.2563  0.1692
19700W        W35169   6.866   7.489   5.491 -0.0159 -0.0612 -0.0260
19701W        W35170   3.763   0.372   0.527 -0.1594 -0.0889 -0.2613
19702W        W35171   0.298   9.718   1.015  0.1720 -0.0521 -0.2447
19703W        W35172   7.124   8.104  16.191  0.0213 -0.0616 -0.1261
19704W        W35173  17.939  12.111   2.171  0.0588  0.0672 -0.0987
19705W        W35174  16.782   7.684   0.960 -0.0337  0.1056  0.0435
19706W        W35175   4.081   7.187   4.737  0.2845  0.1545 -0.3049
19707W        W35176   5.942   0.716   0.150  0.3132 -0.1899 -0.2240
19708W        W35177   5.867  13.071   1.095 -0.0297 -0.0829  0.0473
19709W        W35178   5.009  10.962   1.819  0.0428  0.3132  0.1283
19710W        W35179   6.969   5.947  14.138  0.2055 -0.2795 -0.0067
19711W        W35180   6.231  16.050  11.688  0.1612  0.2033 -0.0327
19712W        W35181  12.245   9.546   3.373  0.2610  0.0439  0.1554
19713W        W35182  14.448  13.898   3.223 -0.2088 -0.2429  0.2993
19714W        W35183  10.453  11.735  12.586 -0.1774 -0.0874  0.2699
19715W        W35184   1.365   2.188   4.137 -0.1647  0.0785  0.0583
19716W        W35185  10.037   7.378   2.293 -0.7091 -0.1197 -0.1246
19717W        W35186  14.433   9.649  11.612 -0.2149  0.0742  0.3900
19718W        W35187  15.606   1.900  14.164 -0.0931  0.1238  0.1819
19719W        W35188   8.185   8.722   1.998 -0.1661 -0.1027  0.0100
19720W        W35189   0.360   2.047   5.484 -0.0289 -0.2257  0.2646
19721W        W35190   6.109   0.053   1.460  0.0560 -0.1801 -0.1429
19722W        W35191   9.228   9.306  16.145  0.0933  0.0905  0.0852
19723W        W35192   2.636  14.622  14.560 -0.0243  0.0350 -0.2303
19724W        W35193  10.846   3.858   2.037  0.0794 -0.2106  0.2038
19725W        W35194  10.725  11.448   3.292 -0.0960 -0.2495  0.0255
19726W        W35195   6.723  13.645   5.415 -0.0747  0.1501  0.1029
19727W        W35196   5.867   1.503   1.812 -0.1426  0.0551  0.0284
19728W        W35197   8.538   5.468  15.561  0.0076  0.1197 -0.4291
19729W        W35198  16.896   7.655  11.187 -0.2771  0.0330  0.0688
19730W        W35199   5.500  11.232   0.462 -0.0757  0.3481  0.2359
19731W        W35200   1.148   0.380   1.515  0.0703 -0.1327  0.1181
19732W        W35201   0.486  10.090  14.837  0.0653 -0.2100  0.2335
19733W        W35202   1.232   6.120  13.812 -0.0097 -0.0406  0.1691
19734W        W35203   0.100  12.584  13.100 -0.1677  0.1377  0.0110
19735W        W35204  13.900  16.834  13.748 -0.4963  0.0408  0.3582
19736W        W35205   8.859  17.289   3.558 -0.1015  0.0987 -0.0691
19737W        W35206  15.765   5.758  16.208  0.0388  0.0147 -0.0394
19738W        W35207  14.658  13.414  12.971 -0.0751 -0.0728 -0.2187
19739W        W35208   4.834  12.900   4.530  0.3161  0.0577 -0.0357
19740W        W35209   2.797  12.359   3.305  0.1265  0.1338  0.0731
19741W        W35210   0.002   9.245  12.418 -0.1338 -0.0934  0.1397
19742W        W35211   6.212  12.735   3.672  0.2552 -0.0303 -0.3602
19743W        W35212  17.182   5.198  15.538  0.1194 -0.2537 -0.2604
19744W        W35213   3.421   3.779  13.035  0.0803  0.1766 -0.1763
19745W        W35214  10.130   5.228  13.569  0.2150 -0.0193  0.0499
19746W        W35215   8.225   2.383  12.674  0.3164 -0.2275 -0.2311
19747W        W35216  10.139   0.198   0.508 -0.1129  0.0485 -0.0984
19748W        W35217  13.845  12.411  13.242 -0.1161  0.0782  0.0120
19749W        W35218   0.742   5.807  13.554 -0.2425  0.0476  0.1698
19750W        W35219   5.309  11.246  10.108 -0.1130  0.4841  0.2372
19751W        W35220   6.112   7.943   5.637  0.1822 -0.3811  0.1513
19752W        W35221  11.330   7.202  11.909 -0.2031  0.0993  0.1236
19753W        W35222   0.417   8.673  14.854  0.0080  0.2295 -0.1720
19754W        W35223  11.641   1.405   5.800 -0.1959 -0.0880 -0.0702
19755W        W35224  12.159   3.530  15.091  0.0381  0.0163 -0.2755
19756W        W35225  13.310   7.969   1.831 -0.1229 -0.0913 -0.1034
19757W        W35226   9.260  15.274   6.189  0.0152  0.1272  0.2893
19758W        W35227   3.680   7.511   3.556  0.1258 -0.0482  0.0126
19759W        W35228   4.875   8.891   4.058 -0.1573 -0.0445  0.2377
19760W        W35229  15.870  17.713   0.472  0.2197  0.0403 -0.5278
19761W        W35230   8.048  10.004   0.577  0.0071 -0.1070 -0.0344
19762W        W35231  17.682  10.246   4.104 -0.0471 -0.1306 -0.1930
19763W        W35232  15.279   6.957  11.835 -0.0783 -0.1605 -0.0961
19764W        W35233  17.567   9.546  14.230 -0.1224 -0.2587  0.0899
19765W        W35234  17.194   5.875  16.312 -0.0013  0.1431 -0.3580
19766W        W35235  16.148   3.236  16.151 -0.2742 -0.0406  0.0202
19767W        W35236   9.170   6.615   0.470  0.3592  0.1521  0.5522
19768W        W35237   9.495   2.365   3.766 -0.1384 -0.0454 -0.0500
19769W        W35238  14.056   8.606   5.858 -0.0409  0.0735  0.0842
19770W        W35239   7.383  17.939   0.066 -0.2440  0.1779  0.0122
19771W        W35240  14.010  12.123  12.864 -0.0210 -0.0863  0.3791
19772W        W35241   9.494  12.828   4.210  0.1052  0.2634 -0.0764
19773W        W35242   4.539  16.299   1.123  0.2003 -0.2029 -0.0088
19774W        W35243   4.543   2.699  14.742  0.1216  0.0136  0.2141
19775W        W35244   3.693  10.486  15.323 -0.3896  0.0720  0.0713
19776W        W35245  10.931   2.041  14.616 -0.2368 -0.1235 -0.1243
19777W        W35246   4.571   8.071  13.711  0.0020 -0.2088  0.1367
19778W        W35247   8.683   2.338  15.785 -0.1612  0.3070  0.0953
19779W        W35248  13.867  15.030   5.826 -0.0339 -0.0455 -0.0717
19780W        W35249   8.325   0.026  14.950 -0.1523 -0.2260  0.0815
19781W        W35250  16.725  13.130  12.246  0.0255 -0.1936  0.1695
19782W        W35251   7.094  11.470  15.134  0.0042 -0.1011  0.1052
19783W        W35252   5.061   7.149  15.347 -0.5573  0.0760 -0.1136
19784W        W35253   5.926   9.546  13.167 -0.0188  0.0280  0.0712
19785W        W35254  16.689  15.678   6.381  0.1971  0.1903  0.3195
19786W        W35255  15.500  14.996   4.202 -0.0335  0.2712  0.0152
19787W        W35256  13.227  14.671  12.331  0.1536 -0.1467 -0.1324
19788W        W35257   0.404   8.914  16.110  0.2105 -0.3199  0.2819
19789W        W35258  13.806   5.329  13.624  0.0993 -0.1912 -0.1983
19790W        W35259  11.354  15.104  13.150 -0.0829  0.0070 -0.1470
19791W        W35260  16.764   8.903   0.871 -0.1329 -0.0927 -0.0586
19792W        W35261   7.790  11.475   4.253  0.1795 -0.0718 -0.0497
19793W        W35262  13.364   0.328  11.711 -0.1947  0.2331 -0.0478
19794W        W35263   9.248  14.905  15.222  0.2102  0.1581 -0.0052
19795W        W35264  13.613   7.950   0.040  0.0398  0.0311 -0.0418
19796W        W35265   8.360   2.717  15.797 -0.3305 -0.0298  0.1082
19797W        W35266   3.837   3.925   3.749 -0.2080 -0.1011  0.1477
19798W        W35267   8.080   6.868  11.570  0.0923 -0.2079  0.0193
19799W        W35268  14.312  14.856   5.959 -0.1577 -0.1801 -0.2062
19800W        W35269   8.757  17.826   1.647  0.2110  0.1947 -0.1378
19801W        W35270   6.182  14.855  14.706  0.0964  0.1494  0.0176
19802W        W35271   1.439  17.346   5.132 -0.0860  0.1960 -0.2185
19803W        W35272   1.109   2.909  12.944  0.2801 -0.2666  0.1979
19804W        W35273   7.613   7.977  13.329 -0.0109  0.1575  0.3048
19805W        W35274   0.925   5.532   0.996 -0.1450  0.2355 -0.1799
19806W        W35275   8.169   1.709  14.054  0.0655 -0.1794 -0.2367
19807W        W35276   0.360   3.259   4.609  0.0008  0.2526  0.0516
19808W        W35277   8.918   3.944  12.870  0.3621  0.1229  0.0823
19809W        W35278  11.249  14.758   0.041  0.3378  0.1096 -0.0834
19810W        W35279  13.530   3.230  15.079 -0.1789  0.0214  0.1879
19811W        W35280   4.807  12.479  15.645  0.0158  0.1710  0.3175
19812W        W35281  11.430  13.600   4.258 -0.0041  0.2598 -0.1127
19813W        W35282   4.583  16.396  15.170 -0.0197  0.2184  0.0366
19814W        W35283  11.840   4.640  16.171  0.4750  0.1392 -0.0607
19815W        W35284  12.353  11.420  11.187  0.1269  0.0914 -0.0496
19816W        W35285  15.519  12.186   2.842 -0.0461  0.1373  0.1868
19817W        W35286   2.305   1.867  12.709  0.4400 -0.1320  0.0769
19818W        W35287   0.088   8.444   3.832  0.1482  0.2162  0.0030
19819W        W35288   8.657  16.051   1.918  0.1109  0.4137  0.1466
19820W        W35289   7.799   8.778   1.397 -0.2832  0.0330  0.1995
19821W        W35290  15.559   4.123  15.214 -0.0222 -0.2391  0.0038
19822W        W35291  17.623   2.038   0.169 -0.5329  0.2180  0.2226
19823W        W35292  17.167  11.006  12.250  0.2777 -0.0914 -0.0651
19824W        W35293   7.793   4.475   1.771  0.0329 -0.0687  0.1791
19825W        W35294  14.362   4.721  15.424 -0.2068 -0.3808 -0.1060
19826W        W35295  10.302   9.743   0.776 -0.1137  0.2301 -0.3960
19827W        W35296  11.781   0.497   1.121  0.1622  0.1272  0.5925
19828W        W35297   5.837  13.388  11.511 -0.3086 -0.0902  0.0889
19829W        W35298   2.807  12.159   4.230  0.0500  0.2872  0.0537
19830W        W35299   6.984   2.821   5.100  0.0548  0.1625  0.0997
19831W        W35300  17.508   7.211   1.939  0.0285  0.0928 -0.2145
19832W        W35301  17.606   0.872   1.565 -0.0875 -0.1656 -0.4072
19833W        W35302  10.437   7.783  15.135 -0.3262 -0.0289 -0.1701
19834W        W35303  11.951   8.275   4.894  0.0423  0.3059 -0.1043
19835W        W35304   0.885  12.218   5.244 -0.0614 -0.1176  0.2074
19836W        W35305   9.314   3.754   2.907 -0.1649 -0.0417 -0.0837
19837W        W35306   1.406  16.115   5.823 -0.3532  0.1352  0.1061
19838W        W35307  11.945   3.512  14.510 -0.1990 -0.0090  0.0273
19839W        W35308   5.976  16.432   0.707  0.3301 -0.2895 -0.0213
19840W        W35309   6.423  17.375  11.600 -0.1301  0.0306  0.2200
19841W        W35310  10.985  15.752  16.383  0.0641  0.1547 -0.0324
19842W        W35311   7.277   0.932   4.907  0.0540  0.0822 -0.0139
19843W        W35312  12.264   9.209  12.065  0.3599 -0.0037 -0.0401
19844W        W35313  17.485  15.492  15.259  0.0514 -0.5257 -0.2011
19845W        W35314  12.565   5.403  12.357 -0.1930 -0.1402  0.0696
19846W        W35315   4.225   9.503   2.279  0.0567  0.0995  0.0230
19847W        W35316   9.387   9.667   4.138 -0.2575  0.1351 -0.0086
19848W        W35317  13.914  17.297  12.662  0.3979  0.1257 -0.0550
19849W        W35318  16.016  15.443   2.808  0.0285  0.2124 -0.3738
19850W        W35319  14.301   2.629   5.099 -0.3224 -0.0623 -0.0208
19851W        W35320  11.243  13.593   0.295 -0.2160 -0.0933 -0.0665
19852W        W35321  13.012  14.974   1.754  0.3078 -0.3268 -0.2281
19853W        W35322   0.744  12.083   2.259 -0.0159  0.1915  0.3171
19854W        W35323   6.943   7.226  12.431  0.0470  0.0702  0.0491
19855W        W35324  17.113   6.312   5.722  0.0911 -0.2473  0.1932
19856W        W35325   5.462  10.248  12.080 -0.1588 -0.0331 -0.0981
19857W        W35326  13.074  16.636   3.938 -0.3110 -0.1536  0.0042
19858W        W35327   1.412   6.663  11.355  0.0474 -0.0793  0.0710
19859W        W35328   5.239   1.722   0.307 -0.0190 -0.1130  0.0385
19860W        W35329   8.339  16.702  14.324  0.1967 -0.0742 -0.1581
19861W        W35330  15.976   0.995  13.678 -0.1180 -0.0151  0.0911
19862W        W35331   6.274  17.663   0.176  0.2167  0.2355 -0.2424
19863W        W35332   2.540   3.177  12.741  0.2810  0.0701  0.1367
19864W        W35333   6.508  10.664   3.747  0.1850  0.0825  0.1074
19865W        W35334  13.374  17.705   1.090 -0.4826 -0.1245  0.2252
19866W        W35335   6.317  11.341   1.514  0.1674  0.1849  0.0795
19867W        W35336   6.879  16.461   5.998 -0.0283 -0.1386 -0.1787
19868W        W35337   7.984   6.899   1.007 -0.0307  0.1687  0.0579
19869W        W35338  16.921   4.941   0.118  0.2775  0.0154  0.1178
19870W        W35339  17.177  11.993  13.232 -0.1458 -0.2181  0.0409
19871W        W35340  12.421  15.066  11.945 -0.0358  0.1269 -0.3450
19872W        W35341   6.246   5.786   0.815 -0.0271  0.1162  0.1304
19873W        W35342   7.833  16.667   0.323 -0.0336  0.4943  0.0734
19874W        W35343   5.640   6.951  11.638  0.2710  0.0736  0.2361
19875W        W35344  12.852  10.295  14.644  0.3355 -0.3438  0.0317
19876W        W35345  10.859   2.475   0.909 -0.0042  0.0310  0.0509
19877W        W35346   0.691  15.068  12.834  0.2272 -0.3649 -0.0929
19878W        W35347   5.222   0.838  12.498 -0.3891  0.1627  0.2423
19879W        W35348   7.504   4.440  11.723 -0.0627 -0.2130  0.1214
19880W        W35349  17.053   3.195  16.438  0.1145  0.0992  0.2367
19881W        W35350   7.521   2.120   0.820  0.0309 -0.0285 -0.0970
19882W        W35351  13.154   2.739   4.739 -0.1858  0.0790  0.1085
19883W        W35352  15.665   7.700   4.354 -0.1718  0.0103 -0.0593
19884W        W35353   4.796   4.558   3.362 -0.0790  0.0735 -0.3068
19885W        W35354   5.418  10.287   2.335 -0.0598 -0.2669 -0.1171
19886W        W35355   5.504   6.232  15.270  0.0130 -0.2250 -0.0793
19887W        W35356  16.173   3.333  14.139 -0.0922  0.0306  0.1458
19888W        W35357  11.800   7.983  12.369 -0.1666  0.4165  0.0462
19889W        W35358   3.476  15.859  15.490 -0.3063  0.1211 -0.2042
19890W        W35359   7.108   1.561  16.181 -0.0703 -0.1015 -0.1235
19891W        W35360  14.752  11.865   1.566 -0.0189 -0.0361  0.0383
19892W        W35361   6.521   9.642  11.563  0.1068 -0.1599  0.0404
19893W        W35362   4.542  10.909  14.366 -0.0378  0.0797  0.0961
19894W        W35363  11.398   7.154   4.580  0.2837 -0.3229 -0.0479
19895W        W35364   5.256  11.847   4.153 -0.1637  0.2124 -0.1396
19896W        W35365  13.612   5.426   5.848 -0.0286  0.0128 -0.0601
19897W        W35366   5.970   9.403   1.326  0.3719 -0.0207 -0.1595
19898W        W35367   2.157  10.704   1.477 -0.0150 -0.0139  0.1734
19899W        W35368   0.945   6.684  13.184 -0.3252  0.0895 -0.1113
19900W        W35369   9.106   6.196  11.978  0.3094  0.4229  0.2267
19901W        W35370  10.362   7.884  15.642  0.0268  0.0921 -0.1299
19902W        W35371   2.235  12.594   0.337 -0.0225  0.1059  0.2328
19903W        W35372   7.690  14.167  11.869 -0.2060  0.2458  0.0696
19904W        W35373  10.803  11.963  15.176  0.1254  0.2464  0.1081
19905W        W35374   3.482  15.890  12.701  0.0230  0.0334  0.0699
19906W        W35375  10.237   2.329   1.503  0.0309  0.0418  0.2863
19907W        W35376   8.965  14.060  13.057 -0.1417 -0.0944  0.0550
19908W        W35377  12.378  13.986  12.395  0.0786  0.1307  0.1609
19909W        W35378   3.637  17.047  15.487  0.1518  0.1313  0.0078
19910W        W35379  14.542   2.092   5.742 -0.0306 -0.1762  0.0719
19911W        W35380   9.537   0.013   3.832  0.0846 -0.2616  0.0872
19912W        W35381   0.623   0.837   1.306 -0.0325  0.0426 -0.1534
19913W        W35382  13.173   5.564  16.511  0.3252  0.0470 -0.1682
19914W        W35383   2.767   7.087  14.243 -0.0695  0.1230  0.2368
19915W        W35384  15.732   7.558   3.028  0.0947  0.0628  0.0182
19916W        W35385  15.931   9.177  15.383  0.2668  0.0292  0.2094
19917W        W35386  11.604  17.915  13.218 -0.1243  0.2041  0.0238
19918W        W35387   3.923   9.820   3.199 -0.1655 -0.1911 -0.0761
19919W        W35388   3.703  17.708  13.767 -0.3093  0.3423  0.1165
19920W        W35389   8.531   0.061  11.886 -0.1492 -0.0827 -0.0425
19921W        W35390   4.761  16.171   4.394 -0.0676 -0.1462 -0.2830
19922W        W35391   6.717   5.501  13.373 -0.1667 -0.1235 -0.0196
19923W        W35392   5.157  17.274   2.591  0.2055  0.0148 -0.0737
19924W        W35393   6.206  11.755   1.737  0.1273 -0.2820 -0.0182
19925W        W35394   4.655  13.734  16.540 -0.0518 -0.0194  0.1029
19926W        W35395   2.343  10.724  14.970  0.0887 -0.1961  0.0992
19927W        W35396  12.557  12.203   1.800  0.2405 -0.2321  0.0823
19928W        W35397   5.431   3.755   2.852 -0.1169 -0.0693 -0.1743
19929W        W35398   6.453   6.832  11.242  0.1475 -0.0622 -0.2490
19930W        W35399  14.663   3.282  14.760 -0.1166 -0.2889  0.3095
19931W        W35400   4.235   7.323   2.995  0.0390 -0.0587 -0.1605
19932W        W35401   0.406  10.544   1.396  0.1740 -0.1736  0.0013
19933W        W35402  10.900   6.093  16.099 -0.2055 -0.0516 -0.0442
19934W        W35403   4.957  12.385  14.776  0.0198  0.0232 -0.4019
19935W        W35404  13.037   5.706  11.076 -0.2128  0.1108  0.1299
19936W        W35405  15.115  13.188  15.530  0.2283  0.0313 -0.0662
19937W        W35406  16.199   2.682  15.492  0.0056 -0.0190  0.0181
19938W        W35407   5.286   0.138   1.415  0.1189 -0.2883  0.0158
19939W        W35408   9.039   9.016   3.083  0.2473 -0.0757  0.0896
19940W        W35409   8.038  15.187   1.837 -0.1368  0.1617  0.2068
19941W        W35410  17.762   6.925  14.400 -0.1807 -0.0467  0.3127
19942W        W35411   8.870  16.159  14.788 -0.0844 -0.0633  0.3608
19943W        W35412   4.983   2.003  11.846  0.2153  0.0086 -0.3128
19944W        W35413   5.998   1.640   5.818 -0.0553  0.2051  0.0108
19945W        W35414   0.587   6.323   0.736  0.0350 -0.0308  0.1922
19946W        W35415  16.193   9.977  14.386  0.0537 -0.0912  0.0449
19947W        W35416   1.102   6.440   0.777  0.0198  0.0651  0.1632
19948W        W35417   1.952  16.239  12.734  0.0470  0.1499 -0.1354
19949W        W35418   3.294   6.134  15.156  0.0628 -0.0961 -0.1242
19950W        W35419   1.650  16.442  15.816 -0.0866 -0.1515  0.0587
19951W        W35420  15.188  15.114  13.647 -0.0616 -0.1147  0.1052
19952W        W35421   5.849  12.358  13.622  0.1957  0.0434 -0.0245
19953W        W35422   4.314  15.571   0.795 -0.0894 -0.0269 -0.2227
19954W        W35423   9.676   2.439  14.439 -0.1673  0.2237  0.2740
19955W        W35424   1.915  14.077  13.058  0.2900  0.3695 -0.1511
19956W        W35425  12.598  13.267  11.803 -0.0084 -0.1813  0.2488
19957W        W35426  15.271   6.943  14.094 -0.1660 -0.0561  0.0355
19958W        W35427  14.628  12.260   0.637 -0.2142 -0.2393 -0.0740
19959W        W35428   7.287  12.626  15.935  0.0096 -0.1387 -0.1526
19960W        W35429  12.771   9.490   2.602  0.4817  0.1310 -0.0802
19961W        W35430   5.209   1.677   4.790 -0.1796 -0.0871  0.0270
19962W        W35431  15.702  10.537  15.058 -0.0605  0.0183  0.0727
19963W        W35432   1.207   9.173   4.447  0.0539  0.0656 -0.2429
19964W        W35433  13.943   6.079   5.209  0.2527 -0.0760 -0.0535
19965W        W35434  11.619  10.224  13.108 -0.1997 -0.4475 -0.1623
19966W        W35435   0.370   8.544  14.301  0.1043 -0.0452  0.3088
19967W        W35436   8.154   5.917   0.542 -0.1766 -0.0112 -0.2583
19968W        W35437  11.292   2.151  14.330  0.2949  0.1781 -0.2347
19969W        W35438  12.418  11.496  12.990  0.0240 -0.1140  0.1545
19970W        W35439  10.521  17.631  11.710 -0.0527  0.0896 -0.0545
19971W        W35440   0.477   7.743   4.400  0.0643  0.2416 -0.1599
19972W        W35441   0.467   5.789  12.055  0.3156 -0.0799  0.2881
19973W        W35442  16.922   1.558  12.398  0.3667  0.1562 -0.0715
19974W        W35443  15.321   6.036  16.212 -0.1081 -0.0317 -0.1183
19975W        W35444   7.951   0.091   2.043  0.0434  0.0411 -0.0824
19976W        W35445  13.172  14.075  11.560  0.1362  0.0660  0.0732
19977W        W35446   8.461   1.131   4.180 -0.0466 -0.0678 -0.1878
19978W        W35447  11.971  16.759   3.056  0.0601  0.0561  0.3787
19979W        W35448  11.205   6.924  15.513  0.0099  0.2083 -0.3417
19980W        W35449  13.695   0.680   3.594  0.0129 -0.0880  0.0527
19981W        W35450  10.374   6.479   0.535  0.3168  0.2161 -0.1420
19982W        W35451   4.588   3.489   3.242 -0.1450 -0.1221  0.3086
19983W        W35452   1.559   4.113   5.231 -0.2269 -0.2493 -0.2644
19984W        W35453   3.877  10.451  14.339  0.2150  0.1081 -0.1972
19985W        W35454  17.066   7.083  13.961 -0.0552 -0.1969  0.1834
19986W        W35455  10.747   7.184  11.971 -0.0558  0.3201 -0.0246
19987W        W35456  15.424  11.292   6.229 -0.2499  0.0451 -0.0766
19988W        W35457  12.536   5.224   1.146  0.0765  0.0766  0.0309
19989W        W35458   5.681   2.523   0.032 -0.0899 -0.1052  0.0036
19990W        W35459  14.802  11.293   0.052  0.1673 -0.3939  0.3602
19991W        W35460  10.205   4.079  11.697  0.1266 -0.4315  0.0592
19992W        W35461   4.894   6.171   0.157  0.2874  0.2147  0.0846
19993W        W35462  10.776   6.599   4.069 -0.0093  0.2032 -0.0070
19994W        W35463   8.653   9.192  12.770 -0.4267  0.1910  0.2510
19995W        W35464   7.140  10.129   3.599  0.3044  0.0240  0.0062
19996W        W35465   7.940   6.292  11.730  0.4845 -0.0090 -0.0235
19997W        W35466   9.836  13.281   2.341 -0.2756 -0.1108 -0.0132
19998W        W35467   3.571  10.032  12.169 -0.2101  0.3225  0.0196
19999W        W35468   7.626   9.208   4.525 -0.3039  0.0010  0.2259
20000W        W35469  13.170   0.786   1.207 -0.3007 -0.0944  0.0633
20001W        W35470  12.262  12.444  13.225  0.1884  0.0718  0.1699
20002W        W35471  15.052  12.247  14.058 -0.1494  0.0939 -0.0701
20003W        W35472   2.571  15.226   5.583  0.0117  0.3240 -0.0086
20004W        W35473  17.551   3.844   2.162  0.1245 -0.0620 -0.1133
20005W        W35474  12.472   1.441   3.599 -0.0936 -0.2916  0.2681
20006W        W35475  14.983  17.842   3.248  0.1714 -0.1791  0.1616
20007W        W35476  13.917   8.584  14.244 -0.0632  0.1047 -0.0300
20008W        W35477   9.244   8.659   6.125 -0.4138  0.3662 -0.1168
20009W        W35478  17.182   5.271  13.214 -0.0417 -0.1547  0.2678
20010W        W35479   5.833   0.783   3.180  0.3102  0.2392 -0.0648
20011W        W35480  14.481  11.730  13.565  0.4907 -0.1929  0.1213
20012W        W35481   4.919  17.420   5.561  0.0720  0.1672 -0.0119
20013W        W35482   8.358  17.110   1.982 -0.0047 -0.2616  0.1623
20014W        W35483   0.038   5.253  14.624 -0.0744 -0.1513  0.5406
20015W        W35484  14.749  14.406   0.374 -0.1085  0.0911  0.0137
20016W        W35485  12.154   0.968   5.904 -0.5264  0.0237  0.0295
20017W        W35486   3.862  11.808   3.914  0.2904  0.0662  0.5195
20018W        W35487  17.424   7.079   4.792  0.0881 -0.2265 -0.2652
20019W        W35488  13.717   2.461  11.600  0.1049  0.3543  0.3481
20020W        W35489  16.891  16.783  16.311 -0.1498 -0.1048 -0.1237
20021W        W35490  17.604   3.939  13.094 -0.3171 -0.2195 -0.1506
20022W        W35491  14.512  14.023   0.055 -0.0096  0.1581  0.1272
20023W        W35492   2.817   5.556   0.921  0.1705 -0.0198 -0.2753
20024W        W35493   3.859  17.937   3.338  0.2404  0.0917  0.0657
20025W        W35494  17.501  10.119  10.513  0.3264 -0.1698  0.2301
20026W        W35495  14.842   4.023  15.970  0.0079  0.1741  0.0267
20027W        W35496  16.317   1.975   1.577 -0.0368 -0.2949  0.0976
20028W        W35497   0.193  17.615  15.556  0.3944 -0.2222  0.0484
20029W        W35498   1.276  15.069  13.776  0.0597  0.2444 -0.1978
20030W        W35499  14.002   9.930   2.556 -0.3123 -0.0478 -0.3493
20031W        W35500   8.157   8.603  14.252  0.1351 -0.3693 -0.1164
20032W        W35501  14.882   0.956   4.813  0.0186  0.1873 -0.0473
20033W        W35502  12.701  12.917   1.195 -0.1184  0.1760 -0.4836
20034W        W35503   3.538   3.197   2.605  0.0260  0.0138 -0.0835
20035W        W35504   8.842   0.028   4.844  0.1877 -0.1278 -0.1898
20036W        W35505   0.005   5.710  15.923  0.1800  0.0998  0.0838
20037W        W35506  11.534   5.031   3.863  0.0815 -0.0706 -0.2876
20038W        W35507   4.141   6.248  14.966 -0.1439 -0.0236  0.0946
20039W        W35508  15.219   7.804   4.669 -0.0558 -0.1069 -0.1332
20040W        W35509   2.250  15.094  13.615 -0.1108  0.0794  0.2931
20041W        W35510   1.588   1.454  16.436 -0.0680  0.0117 -0.3084
20042W        W35511   7.409   0.926   0.516  0.0549 -0.0735  0.1867
20043W        W35512  16.052   8.281   2.561 -0.1216  0.0070 -0.1140
20044W        W35513  12.249   0.419   3.723 -0.2721 -0.3670 -0.0060
20045W        W35514  12.766  17.008   3.265 -0.1506 -0.1519  0.1116
20046W        W35515  17.898  14.872   1.462  0.1392  0.2204  0.0186
20047W        W35516   1.610  15.341  14.822 -0.0072  0.1734  0.1395
20048W        W35517  15.033  14.604  15.727  0.0353  0.2813  0.0201
20049W        W35518  10.742  15.219   3.510 -0.0749 -0.0244  0.0015
20050W        W35519   3.649  12.734   3.550  0.2386  0.1049 -0.0150
20051W        W35520  17.890   1.727   2.266  0.1664 -0.0554  0.1404
20052W        W35521   6.905  10.933  15.186 -0.2157 -0.1991 -0.0317
20053W        W35522  15.014   8.910   4.298  0.0928 -0.0030  0.0026
20054W        W35523  16.824  15.922   0.119  0.1352 -0.1208 -0.0860
20055W        W35524  12.944  16.293  12.921  0.2237 -0.0516  0.0782
20056W        W35525   4.071  16.241  13.333 -0.0256 -0.0734 -0.2481
20057W        W35526   8.963   1.906   4.417 -0.1843  0.2017 -0.0582
20058W        W35527   9.001   6.118   3.972  0.2283  0.0357  0.1343
20059W        W35528   8.777   4.070   4.573 -0.0079  0.3235 -0.3447
20060W        W35529   7.466   7.077   0.940  0.1064 -0.1042 -0.0006
20061W        W35530  10.970  14.794  13.472  0.0923  0.0062  0.2380
20062W        W35531   3.905   9.238  10.123 -0.0450  0.0656 -0.3553
20063W        W35532   8.271  10.719  13.225  0.2237 -0.0949 -0.2312
20064W        W35533   0.049   7.653  14.362  0.1721  0.0622 -0.4160
20065W        W35534   3.853   4.321   2.303  0.0022  0.2354  0.2948
20066W        W35535   7.650  14.739   0.271 -0.2248 -0.1647  0.1203
20067W        W35536   1.278   4.184  15.929  0.3802 -0.1782  0.1392
20068W        W35537  10.139   3.607   5.079  0.0391 -0.1059  0.2790
20069W        W35538  17.474   9.965   5.826 -0.3844 -0.3468  0.0207
20070W        W35539   6.634   2.415   1.154  0.0093 -0.0304  0.0874
20071W        W35540  15.094  12.824   4.863 -0.1527 -0.2204  0.0782
20072W        W35541   9.216   0.835   5.503 -0.0036  0.1170  0.0263
20073W        W35542   7.352  10.710   5.302  0.4658  0.0401 -0.3782
20074W        W35543   9.606  16.127  15.662  0.2589 -0.0717 -0.0353
20075W        W35544   3.479   7.877  14.991  0.0292 -0.0389  0.2239
20076W        W35545  13.354   3.989  11.367  0.1923 -0.1957 -0.4157
20077W        W35546   1.507   3.668   2.787 -0.0247  0.0038  0.1562
20078W        W35547   8.406   5.855  14.276 -0.1194  0.0230 -0.0754
20079W        W35548   9.841   9.860   5.673  0.1145  0.1692  0.3620
20080W        W35549  14.612   2.149  16.039  0.0025 -0.1204 -0.0271
20081W        W35550  12.995   9.109   1.267 -0.0868  0.0752  0.0482
20082W        W35551   1.769   6.275   0.412  0.1638 -0.1687  0.2528
20083W        W35552  16.133  11.519  15.453  0.1099 -0.1136  0.0651
20084W        W35553  15.452   8.953   1.372  0.0510  0.2253 -0.1762
20085W        W35554   6.996  10.343   1.444  0.1435 -0.0751 -0.1455
20086W        W35555   8.855  15.026   2.707  0.4610 -0.0188  0.0373
20087W        W35556   8.884  13.554  13.044  0.0016  0.3357  0.2118
20088W        W35557  14.339   2.553  11.266 -0.0166  0.0758 -0.2894
20089W        W35558  17.741   6.520  11.313  0.2617  0.0751 -0.1329
20090W        W35559  16.486   6.639  11.935 -0.0084 -0.0996  0.2835
20091W        W35560   5.197   7.125  14.879 -0.0055 -0.2055  0.1061
20092W        W35561  12.493   7.925  16.311  0.1552 -0.1334 -0.0912
20093W        W35562  10.217  13.245   0.706  0.2188 -0.0240 -0.2695
20094W        W35563   5.515   4.738  11.909  0.3022  0.3120 -0.1477
20095W        W35564  14.782  14.605   4.779  0.1827  0.0420  0.2536
20096W        W35565  17.285  13.271   2.251 -0.0774  0.0751  0.0410
20097W        W35566   3.290  12.619   3.968 -0.2352  0.0621 -0.2305
20098W        W35567  17.190  15.080  12.961  0.2272 -0.0392 -0.1747
20099W        W35568   9.340   1.147  11.657 -0.0523 -0.0419  0.1560
20100W        W35569  12.781  17.291  11.872 -0.0396 -0.0440  0.2478
20101W        W35570  17.539  12.311  11.810 -0.0542 -0.0457 -0.0819
20102W        W35571  14.684  14.058   4.819 -0.0135  0.1286 -0.3651
20103W        W35572  15.435   4.421   4.101 -0.2570 -0.2921 -0.0326
20104W        W35573  12.540  10.101  12.590 -0.0174 -0.3558 -0.0052
20105W        W35574  12.088   7.686   1.649 -0.0035  0.1989 -0.1020
20106W        W35575  15.880   4.385  13.488 -0.0068  0.0518 -0.0642
20107W        W35576   9.604  12.148   1.417  0.0264 -0.1300 -0.0223
20108W        W35577  17.295  12.714   2.063 -0.2651  0.2230 -0.0201
20109W        W35578  13.827   6.908  11.356  0.3240 -0.2907 -0.0921
20110W        W35579   6.976   7.267   0.932  0.2509  0.2170  0.1968
20111W        W35580   3.393   2.653   2.543  0.1228  0.0959  0.0784
20112W        W35581   6.003  16.113   4.691 -0.1355  0.3373 -0.4132
20113W        W35582  16.833   7.388   9.403  0.2418  0.0046 -0.3762
20114W        W35583   4.911  16.270  12.260  0.2159  0.0727 -0.1263
20115W        W35584  13.179  12.757  15.262 -0.3689 -0.2312 -0.3582
20116W        W35585   8.148  13.050  16.083  0.4504  0.3090 -0.1456
20117W        W35586   5.657  14.916  14.911  0.2821  0.1128 -0.0497
20118W        W35587  11.757   7.004   4.880  0.4900 -0.0778 -0.2053
20119W        W35588   7.207   4.292  14.562 -0.0579  0.0899 -0.1879
20120W        W35589   4.499   0.609   0.116 -0.1151  0.1959  0.0726
20121W        W35590   5.102   4.431  14.859  0.0180  0.0952 -0.2737
20122W        W35591   1.757   9.246   4.384 -0.3870  0.2680  0.1061
20123W        W35592  10.536   4.335   3.061  0.2776 -0.1482 -0.0233
20124W        W35593   2.228   9.001   4.540  0.1714  0.0852  0.1055
20125W        W35594  10.964  17.121   3.821  0.2934 -0.0654 -0.0104
20126W        W35595   7.371   3.749   0.196  0.2042  0.0303  0.1820
20127W        W35596   9.861  13.519  15.680 -0.0370  0.2878 -0.1958
20128W        W35597   9.537   4.265  14.311  0.0517 -0.0982 -0.0794
20129W        W35598   8.551  16.778   1.108 -0.0961 -0.0565  0.1555
20130W        W35599  16.504   9.044   2.645  0.1215 -0.0959 -0.0919
20131W        W35600   5.033   8.240   1.197  0.1630 -0.1402  0.2282
20132W        W35601   9.401   7.907  12.695 -0.0393 -0.0307 -0.2989
20133W        W35602   4.373   0.980   0.847 -0.1826 -0.0796 -0.2485
20134W        W35603  15.930  11.525   1.128  0.2059 -0.0792  0.0842
20135W        W35604  14.422  11.468   1.707 -0.0618  0.0808  0.2068
20136W        W35605  11.845   3.227  16.480 -0.2382  0.0103  0.1177
20137W        W35606   3.876  15.718   2.265  0.0587  0.1025 -0.0999
20138W        W35607  15.029   5.888   3.132 -0.0027 -0.0867 -0.2363
20139W        W35608   8.505  10.206  13.593  0.1567 -0.1064  0.4505
20140W        W35609   8.797   2.691  14.868 -0.0480 -0.0454 -0.0746
20141W        W35610   4.806   0.089  14.955  0.0971 -0.1051  0.1054
20142W        W35611   5.287   4.273  13.399  0.3567 -0.0232 -0.0547
20143W        W35612   5.779  15.896   5.369  0.0207 -0.2323  0.3241
20144W        W35613   7.142   9.417   5.156 -0.0214  0.0080 -0.0970
20145W        W35614   0.387   1.822  12.356  0.0544  0.0359  0.2890
20146W        W35615   9.273  17.389  16.128 -0.2708 -0.0963 -0.3211
20147W        W35616   5.086   4.732  13.450 -0.1442 -0.1441  0.0430
20148W        W35617  11.232  15.298  12.022  0.2009 -0.2722  0.1108
20149W        W35618  15.568   2.519   1.214 -0.1606 -0.0090  0.0921
20150W        W35619   6.756  12.271  13.464 -0.0816 -0.0161  0.2029
20151W        W35620   2.520  16.841   3.535  0.0247  0.0362  0.0403
20152W        W35621  11.063  16.751   2.021  0.1253  0.1267  0.0263
20153W        W35622  16.565   6.165   4.543  0.1788 -0.0697  0.5614
20154W        W35623   5.893  16.152   2.932 -0.1745 -0.0024 -0.0339
20155W        W35624  15.749   3.564  13.872  0.0177 -0.2521  0.2957
20156W        W35625   9.970   1.645   4.563 -0.1576 -0.0653  0.1753
20157W        W35626  16.875  16.225   4.876 -0.2330  0.0076 -0.0531
20158W        W35627  12.457   9.573  15.724  0.1123  0.1139  0.0221
20159W        W35628  11.587   1.699  11.974 -0.2128 -0.1045 -0.0635
20160W        W35629  13.343   4.965  12.665  0.2185  0.1406 -0.1022
20161W        W35630   0.945   1.790  11.334 -0.0056 -0.3729  0.0213
20162W        W35631  13.063   2.175   2.735 -0.2783 -0.2197  0.1340
20163W        W35632   6.193  16.363  15.005 -0.2314  0.2661  0.2779
20164W        W35633  11.143  11.730  13.110 -0.0970 -0.2403 -0.3342
20165W        W35634   6.746  13.735  11.803  0.1877  0.0236  0.1199
20166W        W35635  14.253  17.751  15.394  0.0312  0.1174  0.0054
20167W        W35636   5.474  13.750  12.456 -0.1426  0.1004  0.3532
20168W        W35637   4.446  17.178  12.404 -0.1059  0.1316  0.0211
20169W        W35638  16.226  10.520   4.945  0.0772  0.2233  0.0814
20170W        W35639  15.153   3.219  14.844 -0.1805  0.1449 -0.3628
20171W        W35640  16.423  16.067  15.903  0.3449  0.1827 -0.2315
20172W        W35641  15.718  13.548  14.802 -0.1012 -0.1981 -0.1454
20173W        W35642   1.723   4.606   0.172  0.2625 -0.0664 -0.1003
20174W        W35643   1.634   6.444  16.549 -0.1806 -0.2567  0.2375
20175W        W35644  14.296  16.720  13.346 -0.0296 -0.0858 -0.0246
20176W        W35645   7.618  10.732   0.610  0.2877 -0.1223  0.2943
20177W        W35646  11.669  12.704  16.605  0.2665  0.0505  0.1258
20178W        W35647   4.756   3.142  14.995 -0.2584 -0.0141  0.2207
20179W        W35648  12.870   4.036  15.490  0.1484 -0.2177  0.2151
20180W        W35649  17.692  16.521  13.934  0.2294 -0.0410 -0.0241
20181W        W35650   6.603  14.067  14.979  0.0615 -0.0006 -0.2056
20182W        W35651  16.057  12.103   2.362  0.0388  0.1268  0.3852
20183W        W35652  16.592  11.567  12.604  0.1134  0.1616  0.1950
20184W        W35653   2.311  15.878  15.681  0.3768  0.3604 -0.1234
20185W        W35654   3.816  14.050  15.753 -0.2524 -0.0320 -0.1587
20186W        W35655  11.873  11.916  15.040 -0.1551 -0.2698 -0.0410
20187W        W35656  10.906  16.637  13.024 -0.0800 -0.2234  0.2591
20188W        W35657  12.906   5.367   0.877  0.2452 -0.0451  0.0064
20189W        W35658   9.861  15.716   0.036 -0.0939  0.1887 -0.0606
20190W        W35659  15.620   2.502  14.072 -0.0260  0.5588  0.0331
20191W        W35660   6.871   1.418   5.621 -0.0418 -0.1682  0.1745
20192W        W35661   9.811  17.273  12.227 -0.1324 -0.0234  0.0081
20193W        W35662  17.499  12.942   3.943  0.1270  0.2220 -0.1263
20194W        W35663   6.335   8.373  15.488  0.0908 -0.3350 -0.0866
20195W        W35664   4.777   2.318  14.412 -0.0150  0.2020  0.1155
20196W        W35665  15.163   0.986  11.978  0.0318  0.1261 -0.2576
20197W        W35666   0.713   8.934  11.438  0.2569 -0.2586  0.0655
20198W        W35667   9.535   4.718  15.112 -0.1960 -0.1207 -0.2879
20199W        W35668   7.088   2.670   0.034 -0.0352  0.1462 -0.2949
20200W        W35669   5.331  13.401   5.465  0.0677  0.0783 -0.0999
20201W        W35670   1.324   2.000   2.529  0.0764  0.0750  0.2060
20202W        W35671   2.034  10.598  11.006  0.0644 -0.0294 -0.0998
20203W        W35672   8.609   6.732   2.989  0.0385  0.0839 -0.3582
20204W        W35673   5.346  12.512   0.815 -0.1832  0.0477 -0.1554
20205W        W35674   3.226  14.049   4.439 -0.0890 -0.0140 -0.0218
20206W        W35675   5.441   9.117   5.582  0.2355 -0.0946  0.0507
20207W        W35676   8.518  16.112  13.129 -0.0864 -0.1914 -0.1061
20208W        W35677   9.092  14.463   4.777  0.0946 -0.0889 -0.2635
20209W        W35678  14.346   4.377  14.288  0.1185  0.0324 -0.2284
20210W        W35679  14.151  15.559   4.112 -0.0662 -0.1005 -0.3605
20211W        W35680   3.814   4.887   3.344 -0.1006 -0.1881 -0.0202
20212W        W35681  13.609   4.530   2.004 -0.2340 -0.1030  0.1362
20213W        W35682  16.421   1.560  11.948  0.4343 -0.1594 -0.2969
20214W        W35683  11.254  11.270   2.179  0.0439 -0.3131 -0.1700
20215W        W35684   6.914   0.833   3.240 -0.0055  0.1890 -0.1104
20216W        W35685   4.955   1.811   5.290 -0.1275  0.3174 -0.1785
20217W        W35686   4.833   9.866   0.267  0.1536  0.0477  0.1349
20218W        W35687   5.734   1.064   5.144  0.2916 -0.2485  0.0554
20219W        W35688   3.580   3.623   4.702 -0.1408 -0.0173  0.0198
20220W        W35689  14.209  13.065   4.524  0.0615  0.4527  0.2798
20221W        W35690  16.771   5.326  11.605  0.1664 -0.0007  0.1581
20222W        W35691  13.765   5.830   0.422 -0.1483 -0.1702 -0.1025
20223W        W35692   5.051   7.394   3.017 -0.2196  0.0382  0.0863
20224W        W35693  16.322   8.339   4.309 -0.1088 -0.1982 -0.1641
20225W        W35694   5.697  14.739  15.696  0.2267 -0.0863 -0.1310
20226W        W35695   3.018  10.974  14.303  0.0705 -0.1295  0.1207
20227W        W35696  17.876   5.270   1.654  0.2075  0.2701 -0.2519
20228W        W35697   7.734  15.885   3.077  0.1819 -0.0355 -0.2298
20229W        W35698   4.726   0.026   3.853  0.2294 -0.2486 -0.1385
20230W        W35699   6.024   6.551  13.824  0.1603  0.3930 -0.3088
20231W        W35700   8.894  10.699   4.474  0.0963 -0.3190  0.0930
20232W        W35701   7.964  12.312   3.665  0.0648 -0.1178  0.1552
20233W        W35702  10.017   0.553  15.646 -0.1576 -0.0115 -0.2388
20234W        W35703   4.761   5.898  11.216  0.5138 -0.0322  0.3520
20235W        W35704   8.538   0.286  15.358 -0.0562  0.0616 -0.1210
20236W        W35705  10.195  17.229   3.422  0.0719  0.2680  0.1685
20237W        W35706   1.275  12.993   5.722 -0.1660  0.0018 -0.1149
20238W        W35707   7.861   3.671  15.974  0.2832  0.1529 -0.3847
20239W        W35708   3.989   7.162  13.985  0.1693 -0.1099 -0.0445
20240W        W35709   8.652  13.755   5.346  0.1168  0.0079  0.1011
20241W        W35710   3.175   0.869  11.676  0.0688  0.1798  0.0388
20242W        W35711  17.283   3.672  12.166  0.0378  0.1023 -0.2469
20243W        W35712   3.765  14.882   4.313 -0.2923 -0.2552 -0.0514
20244W        W35713  17.615   4.681  12.654 -0.0195  0.0783  0.1377
20245W        W35714   0.341   6.818   2.794 -0.1313 -0.2817  0.1754
20246W        W35715  14.161   0.519   2.165  0.0464 -0.4418 -0.1305
20247W        W35716  13.889   4.320   2.699  0.1746  0.0438 -0.1012
20248W        W35717   5.692  10.018  12.964 -0.3407  0.1942 -0.1561
20249W        W35718   0.193   9.222   1.729  0.1472  0.1699 -0.1095
20250W        W35719   9.660  14.776   5.392  0.0293  0.1499 -0.3721
20251W        W35720  13.225  12.469  11.752 -0.1762  0.0742 -0.1067
20252W        W35721   8.600  12.544  15.654 -0.3517  0.0818  0.0336
20253W        W35722   2.657   4.186  12.989  0.3128  0.3100  0.3658
20254W        W35723   4.346  17.411  14.763 -0.3596 -0.0226  0.4892
20255W        W35724  16.864  10.864  15.735  0.0932 -0.1412  0.1406
20256W        W35725   2.136  12.258  12.588 -0.1174  0.1117 -0.0855
20257W        W35726   4.699   3.030   3.909 -0.1896  0.1886 -0.2210
20258W        W35727   1.101   7.328   0.241  0.0766 -0.0429 -0.1227
20259W        W35728   4.074   3.550   0.798 -0.0797  0.0626 -0.4348
20260W        W35729  11.634  17.773   0.317  0.1794 -0.3459 -0.2114
20261W        W35730   4.367   2.719   4.122  0.0962  0.0065 -0.2247
20262W        W35731   9.089   1.146   2.881 -0.0334  0.2754 -0.2776
20263W        W35732  16.073   0.834   2.668  0.1799 -0.1984  0.2698
20264W        W35733   8.697   5.522  16.082  0.0751  0.2066 -0.2570
20265W        W35734   7.680  17.747   1.717 -0.2915 -0.0402 -0.0644
20266W        W35735   2.601  15.101   6.058 -0.1201  0.2744 -0.1372
20267W        W35736  14.748  13.846  16.182 -0.3414  0.3485  0.0492
20268W        W35737  17.189   2.538   2.211  0.0389 -0.1703  0.1079
20269W        W35738   9.676  14.553   3.768 -0.2764  0.0121 -0.0386
20270W        W35739  14.787   4.456  15.722  0.0546  0.1720  0.1444
20271W        W35740   8.168   1.606  15.381 -0.0570  0.0261  0.0651
20272W        W35741   0.382  10.920   3.243 -0.0449  0.2935  0.2210
20273W        W35742  11.443  10.917  11.362 -0.0211 -0.0554  0.1100
20274W        W35743   7.207   5.948  14.610 -0.3044  0.0655 -0.0166
20275W        W35744   2.228  11.609  10.161  0.0559  0.3771  0.1143
20276W        W35745  12.568  11.685   0.042  0.1845  0.0992 -0.1973
20277W        W35746  13.140   8.116  13.399  0.2300 -0.0737 -0.1133
20278W        W35747   0.753  10.308   1.894 -0.1150 -0.0049  0.2330
20279W        W35748  12.233   4.682  15.847 -0.1322 -0.2667  0.1628
20280W        W35749  11.113   7.920   5.376  0.0073  0.0781 -0.1648
20281W        W35750  11.340   4.609  10.911 -0.1094  0.2774  0.1997
20282W        W35751  16.222  10.566  10.088 -0.0445 -0.1101  0.2954
20283W        W35752  15.449  15.937   3.755  0.0623 -0.3326 -0.0572
20284W        W35753  14.256   7.065  16.539 -0.1299  0.1448 -0.2443
20285W        W35754   7.164  16.136   1.855 -0.0497  0.2132 -0.3753
20286W        W35755  11.239   5.076  16.081  0.5147 -0.0456  0.4671
20287W        W35756  17.300   9.580   4.317  0.0536  0.0505  0.0524
20288W        W35757  14.082   8.801   3.923  0.0546 -0.0228  0.0607
20289W        W35758   1.260   5.716  15.766  0.0093 -0.1608  0.1956
20290W        W35759  10.443   6.718   5.641  0.0527 -0.1332  0.0928
20291W        W35760   1.413   6.734  16.036 -0.2238  0.1470  0.1960
20292W        W35761   1.020   2.827  13.421 -0.1076  0.1811 -0.1817
20293W        W35762   1.277  13.002   3.934 -0.1123 -0.1762  0.1023
20294W        W35763  13.809   6.255   0.843  0.2876 -0.1885 -0.2054
20295W        W35764   1.335   6.164  10.945 -0.1804  0.0048 -0.1575
20296W        W35765   2.051  10.762   2.017 -0.1853 -0.3833 -0.0229
20297W        W35766   7.548  17.086  15.478  0.3524  0.0835  0.0275
20298W        W35767   6.403  11.975   0.926  0.1719 -0.5130 -0.0175
20299W        W35768   3.131   0.623   5.446  0.3250 -0.1282  0.2617
20300W        W35769   4.532   7.750   0.609 -0.0706  0.2492  0.0822
20301W        W35770   7.884  17.563   2.130 -0.1289 -0.2168 -0.1852
20302W        W35771  14.508   9.654   3.249 -0.2144 -0.0779 -0.2277
20303W        W35772  14.319   0.734   3.400 -0.2027 -0.0555 -0.0480
20304W        W35773  14.036  13.854  14.486  0.3455 -0.2399  0.0555
20305W        W35774   7.465   0.944  15.675  0.2914  0.0190  0.0547
20306W        W35775   0.541   7.959  10.968  0.1335  0.1818 -0.2503
20307W        W35776  16.336  14.769   4.780  0.0224 -0.0952 -0.1263
20308W        W35777  15.051   3.719  13.690  0.2369 -0.2309  0.2172
20309W        W35778  15.644  16.590   5.597  0.1507 -0.0030  0.2907
20310W        W35779   6.923  12.231   1.161  0.0836 -0.2727 -0.2464
20311W        W35780  10.776   1.040   4.293  0.1597 -0.0396 -0.1372
20312W        W35781  16.040  10.922  12.593  0.2141  0.4618  0.2515
20313W        W35782   3.245  15.583   3.067  0.2569  0.1743 -0.2129
20314W        W35783  16.706  16.229   6.543  0.0050  0.0793 -0.2049
20315W        W35784  14.037  17.599   5.753  0.1719 -0.2217  0.1019
20316W        W35785   5.455  15.321  11.250  0.1287 -0.2346 -0.1706
20317W        W35786  13.193   1.885  14.081  0.1041  0.0867 -0.1614
20318W        W35787   4.394   6.618  14.766 -0.1996 -0.1936 -0.1682
20319W        W35788   5.587   8.619  11.725 -0.2679 -0.1171 -0.2066
20320W        W35789   8.217   1.464   5.649 -0.0354 -0.0761 -0.1818
20321W        W35790  17.476   5.257  11.879 -0.1703  0.1490  0.2529
20322W        W35791  12.747   3.706  11.880  0.1513  0.1862  0.2689
20323W        W35792   9.253  12.615   1.786 -0.1384  0.0474 -0.2153
20324W        W35793   4.073   4.518   4.471  0.0085  0.0978  0.3136
20325W        W35794   3.840  12.315  12.573  0.1463 -0.3429 -0.1643
20326W        W35795   5.883  11.387   3.728 -0.0360 -0.1645  0.3039
20327W        W35796  12.933   4.979  16.230 -0.1499 -0.1967 -0.2013
20328W        W35797   5.274   0.452   5.522 -0.1327 -0.2095 -0.4391
20329W        W35798   0.037  15.198  15.246 -0.0761  0.3029 -0.0684
20330W        W35799   2.408   7.606   3.642  0.2322 -0.1906  0.0006
20331W        W35800   0.876  13.958  16.509  0.2314 -0.2242  0.0821
20332W        W35801  12.489  14.558  14.332 -0.3163 -0.2562 -0.0178
20333W        W35802  14.365  15.412  15.713  0.2051  0.1807  0.1128
20334W        W35803  16.103   6.081  13.148 -0.1056 -0.0189  0.0114
20335W        W35804   1.620   2.422  15.935 -0.1109 -0.1616 -0.1204
20336W        W35805  12.235  17.642   1.237  0.1750  0.0995  0.0374
20337W        W35806  16.175   5.287  10.691 -0.2431  0.1543  0.1288
20338W        W35807  15.642   3.641   2.474  0.0101  0.0192 -0.3334
20339W        W35808   0.068  16.525   3.924 -0.0532 -0.0892 -0.0091
20340W        W35809  11.413   9.120  14.434 -0.2818  0.1563 -0.1188
20341W        W35810  12.177   1.547   5.178 -0.1393  0.2508  0.1696
20342W        W35811  12.800  11.122   1.035 -0.0340  0.1532 -0.2492
20343W        W35812   8.671  17.741  12.559 -0.1155  0.2343 -0.0151
20344W        W35813   3.184  17.670   2.168  0.0108 -0.1923 -0.1141
20345W        W35814   9.558   0.825   2.005  0.3866  0.2654  0.2564
20346W        W35815  16.017   0.636  14.055  0.0325  0.1049  0.0587
20347W        W35816  10.394  13.330   2.154 -0.0564 -0.0447 -0.3937
20348W        W35817  15.224  13.951  13.834 -0.1885  0.0882 -0.1527
20349W        W35818   7.717  15.477  15.990 -0.0127  0.1317  0.3429
20350W        W35819   3.718   7.200  13.540 -0.0186  0.3591 -0.0703
20351W        W35820   9.602   9.367  11.278  0.1352  0.2441 -0.2955
20352W        W35821  14.039   1.116   0.050  0.0760 -0.2245  0.3047
20353W        W35822  10.272   7.337   1.800  0.2166  0.1243  0.0111
20354W        W35823   6.116   1.812   1.486  0.3080 -0.2225  0.1411
20355W        W35824  13.623  10.018  16.334  0.2309 -0.0527 -0.0160
20356W        W35825  12.712  12.824   0.665 -0.1209  0.2570  0.1670
20357W        W35826   3.747   2.719   0.453 -0.2189  0.2010  0.0516
20358W        W35827   0.364  14.938   1.159 -0.0214  0.0434  0.0671
20359W        W35828   9.090  12.868   0.773 -0.2234 -0.1405  0.0503
20360W        W35829   3.612  11.034  13.179  0.2401 -0.0799 -0.1781
20361W        W35830  17.064   3.552  11.703  0.1540 -0.2317 -0.0368
20362W        W35831  11.459   4.727  15.860  0.3475  0.3305 -0.0658
20363W        W35832  10.708   9.265  14.178  0.2564 -0.2816  0.2849
20364W        W35833  13.452   4.897   4.923  0.2132 -0.0975  0.2710
20365W        W35834   6.385   3.938  12.962  0.0588  0.0919  0.3159
20366W        W35835  15.412  14.508   3.115 -0.2831 -0.0013  0.2351
20367W        W35836   8.858   8.500  15.793  0.1355 -0.3661 -0.3649
20368W        W35837  10.962  15.894   0.506 -0.1008  0.0949  0.1948
20369W        W35838  12.556   5.481  11.010  0.2429 -0.0924  0.1520
20370W        W35839   9.710  11.138   2.914  0.2348 -0.0300  0.0808
20371W        W35840  10.727   0.946  10.928 -0.0444  0.2758  0.1593
20372W        W35841   5.276   9.160   3.181  0.1001 -0.3061 -0.1632
20373W        W35842  16.881   1.628   0.420  0.0754  0.2374 -0.2624
20374W        W35843  13.193  11.276  15.602 -0.0450 -0.1200  0.3292
20375W        W35844   1.103   5.679   2.488 -0.2344 -0.0020 -0.1156
20376W        W35845  15.486  17.903   4.362 -0.0886 -0.0377 -0.0700
20377W        W35846   2.130  15.343  15.557  0.0155  0.0951 -0.0006
20378W        W35847   8.261   1.118  15.218  0.2288  0.2198 -0.1538
20379W        W35848   9.145  13.732  14.370 -0.1064  0.1810  0.0706
20380W        W35849   7.266   8.620   2.883 -0.2208  0.1488 -0.1447
20381W        W35850   3.457   4.541   0.302  0.0071 -0.0823 -0.0242
20382W        W35851   1.443   9.957  10.712 -0.0029 -0.1152  0.1130
20383W        W35852  12.589  16.857   5.598 -0.3226 -0.0369 -0.0359
20384W        W35853  11.868   8.786  16.582 -0.2385 -0.0533 -0.1657
20385W        W35854   0.470   7.984  15.068  0.1422 -0.0362 -0.3459
20386W        W35855  11.215   5.917   0.875 -0.0378 -0.1247  0.2604
20387W        W35856   6.049  15.486   4.526  0.1090  0.1189  0.1775
20388W        W35857  16.858   6.732  11.619  0.2539 -0.1794 -0.0802
20389W        W35858  12.588   7.853   1.667 -0.0414 -0.3206  0.0361
20390W        W35859  17.186   6.196   0.282 -0.1406  0.1338 -0.0571
20391W        W35860  10.983  15.603   1.822 -0.0015  0.2035 -0.0311
20392W        W35861   8.870  16.258   4.985  0.1440 -0.0528  0.3397
20393W        W35862  11.471  12.512   4.967 -0.1697  0.0882 -0.0691
20394W        W35863   3.739   0.198   2.894 -0.0745  0.1305  0.3529
20395W        W35864  10.883   9.733   2.321  0.0945  0.4892  0.0301
20396W        W35865   3.560   2.814  15.258 -0.3192  0.1598 -0.1784
20397W        W35866  13.911   0.906  14.302  0.1287  0.2903 -0.2698
20398W        W35867  11.672   5.234  14.784  0.2209 -0.2032 -0.0390
20399W        W35868  13.271   5.649   3.895  0.1029 -0.1518 -0.0577
20400W        W35869   0.632   7.603   1.079  0.1959  0.1612 -0.1463
20401W        W35870  11.749  16.588  12.187  0.0544  0.1393 -0.1395
20402W        W35871   9.899   7.401  14.214 -0.1865 -0.1974 -0.2400
20403W        W35872   4.220   4.949   0.747 -0.0195  0.1235 -0.2031
20404W        W35873   8.892  12.326   0.822  0.0272  0.0456  0.0578
20405W        W35874  14.976   4.634   4.163  0.1358  0.2462 -0.3287
20406W        W35875   5.367  16.785   2.056  0.0945  0.3198 -0.0420
20407W        W35876   6.875  10.679  13.304  0.0578  0.1128 -0.0971
20408W        W35877  13.911   0.140   2.358  0.0892 -0.0202 -0.1908
20409W        W35878   4.819  17.217  14.919 -0.1448 -0.1153 -0.1404
20410W        W35879   3.720  16.127  11.375  0.1089 -0.0657 -0.0173
20411W        W35880   4.095   0.936   0.032 -0.1461 -0.2327  0.3596
20412W        W35881   6.336   7.661   3.614  0.0421 -0.1064  0.0287
20413W        W35882   5.257   2.769  12.774 -0.0830  0.3173 -0.1182
20414W        W35883  17.595  10.491  14.181 -0.0424  0.0741 -0.2851
20415W        W35884   5.875   7.335   1.779  0.0332 -0.1889 -0.0361
20416W        W35885   1.163   4.811  13.275 -0.0128  0.2938  0.0458
20417W        W35886  14.579   4.943  13.960 -0.0337  0.1732 -0.0968
20418W        W35887  10.104  11.557   4.660  0.0943  0.0733  0.1985
20419W        W35888  16.165  15.518   5.125 -0.2131 -0.3267 -0.2335
20420W        W35889   8.841  13.580  14.815 -0.1824 -0.0256  0.3756
20421W        W35890   8.068  14.872   5.078 -0.1889 -0.2039 -0.3011
20422W        W35891   7.662   6.605  11.463  0.3403 -0.3912 -0.0173
20423W        W35892  10.855   8.566   4.092 -0.1892  0.0721  0.1536
20424W        W35893   7.115  10.247  16.599 -0.1707  0.1406 -0.0915
20425W        W35894  10.477  14.281   3.219 -0.1332 -0.0798 -0.2682
20426W        W35895  16.538   5.093   5.546 -0.0207 -0.0375  0.2103
20427W        W35896   2.162   5.866  14.173  0.2228 -0.2756  0.0286
20428W        W35897  11.344   8.765  16.594  0.1782 -0.0930  0.0883
20429W        W35898   7.552   3.900  16.270  0.2829  0.4093 -0.1742
20430W        W35899   0.316  12.404  15.515  0.1187 -0.0075  0.3631
20431W        W35900   1.263  12.193  13.649 -0.1387 -0.3906 -0.2029
20432W        W35901   5.888   4.388   3.866  0.2547 -0.0747 -0.2359
20433W        W35902  15.352   7.189  16.076  0.0301 -0.1622 -0.2684
20434W        W35903   4.144  10.263   3.475  0.0231 -0.0211  0.0437
20435W        W35904   2.223   9.274  14.575  0.2983 -0.1707 -0.0583
20436W        W35905   6.223   6.200   3.890  0.0193  0.0378  0.0777
20437W        W35906  17.144   6.803  10.920 -0.1660  0.0535 -0.1445
20438W        W35907  11.788   9.124   3.097  0.0278  0.1845  0.1681
20439W        W35908  11.466  16.201  13.816 -0.1079  0.2286 -0.0419
20440W        W35909   1.501  16.125  11.988  0.0369 -0.4847  0.0696
20441W        W35910  10.854   5.981   1.251  0.0891  0.2950 -0.1937
20442W        W35911   4.069   4.519  16.348 -0.3581  0.1591 -0.0044
20443W        W35912   5.763  17.536   3.711  0.0094  0.0762 -0.0592
20444W        W35913  14.883   3.100   1.355  0.1036  0.0299 -0.1071
20445W        W35914  17.092  13.992  12.774  0.2055  0.2720  0.2732
20446W        W35915  11.266   4.524   1.213 -0.1170  0.0594  0.1001
20447W        W35916  11.610  11.870  13.197 -0.1084  0.0956  0.1167
20448W        W35917  17.150   8.071   0.781 -0.2335  0.0965  0.2064
20449W        W35918   5.812   6.333  14.715 -0.1143  0.3254  0.2015
20450W        W35919   0.601   7.213   3.517  0.0392 -0.4196 -0.1909
20451W        W35920   9.621  11.169  16.329 -0.1114  0.0406 -0.1461
20452W        W35921   7.193   4.460  12.087 -0.0978  0.0801 -0.0289
20453W        W35922  14.767  10.692  16.146 -0.0349 -0.3506 -0.1441
20454W        W35923  14.229  16.844   6.360 -0.1062  0.1205 -0.0256
20455W        W35924   7.787   4.924   2.456  0.1328 -0.1187  0.3205
20456W        W35925   6.085  15.000   1.212 -0.1024  0.0498 -0.2036
20457W        W35926   6.487   5.909  16.212 -0.1658 -0.0234  0.2675
20458W        W35927   7.970  14.402   0.692 -0.0067 -0.0549 -0.2349
20459W        W35928  14.343   0.561  12.473  0.0393  0.0124  0.0341
20460W        W35929  14.557   5.547  14.842 -0.0802  0.0263 -0.2007
20461W        W35930   0.236  12.808  12.702  0.0001 -0.2501 -0.1414
20462W        W35931   3.264  14.539  14.953 -0.2284 -0.1036 -0.0041
20463W        W35932  16.281  14.381   5.948  0.2035 -0.0370  0.1055
20464W        W35933  17.130  16.029  12.752  0.0940  0.0207  0.5027
20465W        W35934   8.023  13.228  16.570 -0.0663 -0.0175 -0.0385
20466W        W35935   2.774   9.172   3.876 -0.0669 -0.0864 -0.0566
20467W        W35936  15.117   5.942  15.052 -0.0234 -0.1813  0.2362
20468W        W35937   4.667   7.870  16.105 -0.0902 -0.2236  0.3036
20469W        W35938   2.077   6.442   2.510 -0.0571 -0.0113  0.3193
20470W        W35939  16.698  13.583   2.766 -0.1541 -0.1436  0.0249
20471W        W35940  15.142  15.626   0.435 -0.3197 -0.0179 -0.2706
20472W        W35941   6.819   8.602  13.566 -0.3453 -0.0108 -0.1940
20473W        W35942   1.495   0.765   3.722  0.1771  0.1655  0.2324
20474W        W35943   8.399   9.365  11.040  0.1249 -0.2454 -0.2438
20475W        W35944   6.206   1.185   2.260  0.1166  0.2103  0.0377
20476W        W35945  17.273   3.336  15.683  0.1486 -0.1940  0.0057
20477W        W35946   5.947  17.227   0.311  0.0218 -0.1396 -0.1073
20478W        W35947  15.221   4.871  16.487  0.1107  0.5191 -0.0177
20479W        W35948  10.591   2.872   4.305 -0.1093 -0.2041 -0.1031
20480W        W35949  15.535   8.285  14.784  0.5216  0.2547 -0.2118
20481W        W35950   8.117  11.447  14.467  0.0788 -0.0317  0.0633
20482W        W35951   5.628  13.816   1.329 -0.3268  0.0183 -0.0017
20483W        W35952   6.685  10.809   2.306 -0.1523 -0.1380 -0.0388
20484W        W35953   7.308   0.328  14.051  0.0602 -0.0362  0.1841
20485W        W35954  12.872  17.834   4.573 -0.4628 -0.3316 -0.2225
20486W        W35955   6.031   2.947  11.473 -0.2825  0.0014 -0.0655
20487W        W35956  12.189  13.941   3.299 -0.0372  0.2337  0.2487
20488W        W35957  15.855   6.929   4.487  0.2500 -0.2236 -0.0225
20489W        W35958   8.690   7.430  16.293  0.0209  0.0379  0.1564
20490W        W35959   0.413   4.386   3.043 -0.3553 -0.1676  0.1167
20491W        W35960  16.687   1.184  12.203 -0.0200 -0.4510  0.1411
20492W        W35961  10.075   5.104   2.668  0.3210  0.2510 -0.0461
20493W        W35962   5.600  17.970  16.530  0.1529  0.1180 -0.2770
20494W        W35963  14.777  11.672   3.174  0.3245 -0.0071 -0.0490
20495W        W35964  16.072   9.241  13.029  0.2357 -0.2579  0.2314
20496W        W35965  16.515  11.871   2.958 -0.3078  0.0943  0.1701
20497W        W35966   6.257   3.341   0.851 -0.1027  0.1683 -0.0168
20498W        W35967   8.193  12.102  15.117 -0.6754 -0.2504 -0.1658
20499W        W35968  15.361  15.281  14.207 -0.0981 -0.0657 -0.2804
20500W        W35969   7.951   2.360   4.627 -0.1335  0.0755  0.2208
20501W        W35970   1.408   8.262   0.278  0.1311 -0.1328 -0.1909
20502W        W35971  17.824   3.468   5.776 -0.0742  0.0074 -0.0680
20503W        W35972  17.219  10.312  16.390 -0.2783  0.0554  0.1162
20504W        W35973   6.381  11.080  14.563 -0.0719  0.1260  0.0918
20505W        W35974   1.692   9.978  12.160 -0.1869  0.1754 -0.0989
20506W        W35975   2.897  17.355  14.615  0.2436  0.0513  0.1652
20507W        W35976   5.926   6.765  11.119  0.3850 -0.1333 -0.1123
20508W        W35977  15.477   7.928   1.441 -0.1337 -0.1609  0.3700
20509W        W35978  12.387  16.501  14.540 -0.0133 -0.0513  0.1839
20510W        W35979   9.852  11.565   2.402  0.2753 -0.0229 -0.1847
20511W        W35980  10.328   1.039   6.275  0.0507  0.0140 -0.0930
20512W        W35981  10.445   2.774   1.665  0.0080  0.3573 -0.0046
20513W        W35982   2.663   1.760   3.503 -0.2750 -0.1278 -0.1704
20514W        W35983  15.949   8.634  13.706 -0.1171  0.0119 -0.2334
20515W        W35984   1.305   5.048   0.852 -0.1919 -0.0020  0.1404
20516W        W35985  17.569   5.361  13.553 -0.3194 -0.2629  0.0031
20517W        W35986  13.511   3.184   0.645 -0.2616  0.0825 -0.0790
20518W        W35987  12.786  16.657  14.280 -0.2175  0.0793 -0.0402
20519W        W35988   7.831   6.068   1.635 -0.3386 -0.1998 -0.1317
20520W        W35989   6.309   8.297  11.698 -0.0240 -0.4082  0.0942
20521W        W35990   9.737   0.857   0.634 -0.0571  0.2789 -0.0609
20522W        W35991  15.223   5.351   3.780  0.1615 -0.2066 -0.0337
20523W        W35992   6.096   1.087  11.994 -0.1571  0.1204 -0.1698
20524W        W35993  10.813   7.878  14.125  0.0966 -0.3026  0.0459
20525W        W35994   5.905  14.450  14.996  0.0181  0.0255  0.1447
20526W        W35995  17.614   4.777  13.571 -0.0338 -0.1679  0.1351
20527W        W35996   6.201  13.414   4.915 -0.0330  0.0026 -0.1907
20528W        W35997   2.936  13.188   4.405  0.0368  0.0306 -0.0477
20529W        W35998  14.287  11.537   1.159  0.0326 -0.0727  0.2239
20530W        W35999   9.145   1.497   1.559  0.0680 -0.0383 -0.4187
20531W        W36000  14.162   3.651  13.686  0.3226  0.2520  0.1060
20532W        W36001  11.823   9.082  14.960  0.1773  0.0759 -0.1113
20533W        W36002  12.420  13.327   0.967 -0.1783 -0.0338  0.2323
20534W        W36003   8.343   4.295   5.912  0.0988  0.0187  0.1021
20535W        W36004  17.589   7.320  10.576  0.2424  0.0234 -0.0860
20536W        W36005   0.156  16.964   0.528 -0.0748  0.1365  0.1849
20537W        W36006   8.545  12.214   3.480 -0.1979  0.1326 -0.1005
20538W        W36007   5.967   2.514  15.151  0.0411  0.1315 -0.2441
20539W        W36008   6.549   4.061   5.133  0.1761 -0.0879  0.0515
20540W        W36009   8.150  11.279   3.263  0.1487  0.0729 -0.0717
20541W        W36010  10.329   9.780   2.004  0.2240  0.0282  0.0977
20542W        W36011  17.933   0.764  15.120 -0.0524 -0.3065  0.1075
20543W        W36012   7.395   3.456   4.680 -0.0672  0.0810 -0.3968
20544W        W36013  15.972  12.248  13.496  0.0132  0.0530  0.1880
20545W        W36014   0.319  16.117  15.542  0.3766 -0.0179  0.0427
20546W        W36015   5.248  13.451   3.701  0.0090  0.1488 -0.0505
20547W        W36016   3.740  17.576  11.872 -0.1204  0.0271  0.2564
20548W        W36017   2.951  13.553  13.183  0.1572 -0.0485  0.2408
20549W        W36018  14.425  13.642   3.681 -0.1011 -0.1505  0.3173
20550W        W36019  17.598   3.861   0.386  0.0776  0.0236  0.0136
20551W        W36020  10.299   2.720  13.057  0.1017  0.2386 -0.1234
20552W        W36021  12.712   5.621  11.500 -0.2340  0.0441 -0.0856
20553W        W36022  12.722  12.786   2.889 -0.0441 -0.1568  0.2228
20554W        W36023   2.312   3.444   3.160 -0.1245 -0.3503  0.0924
20555W        W36024   2.443   0.956  12.894 -0.0474  0.3072  0.2747
20556W        W36025  14.771   7.959  14.598  0.1410 -0.0340  0.2231
20557W        W36026   9.898   8.233  13.934  0.0817  0.0188  0.0027
20558W        W36027  17.637   5.787   5.151 -0.1151 -0.0345 -0.0054
20559W        W36028   8.391   3.451   4.614 -0.1072 -0.1268  0.3049
20560W        W36029   7.610  16.826  16.022 -0.0254  0.0171 -0.0297
20561W        W36030  14.579  10.835   5.609  0.2693 -0.1657  0.1462
20562W        W36031   5.416   8.785   0.539 -0.1728 -0.1102  0.0457
20563W        W36032   9.922   9.625  15.392  0.0503 -0.3488 -0.0345
20564W        W36033  14.333  15.223   2.213 -0.1939 -0.2448 -0.1352
20565W        W36034  16.185   5.067  12.735 -0.3000 -0.0059 -0.0641
20566W        W36035   0.137   3.353  13.827  0.0227 -0.0548 -0.0256
20567W        W36036   5.760  12.307   0.963 -0.1065 -0.1546  0.1071
20568W        W36037  17.515  16.833   3.405 -0.1942  0.2525  0.1556
20569W        W36038  15.549   4.257  15.756 -0.0008  0.3735  0.0923
20570W        W36039  11.577  16.968   2.139  0.1755  0.1100 -0.2857
20571W        W36040   2.188   1.043   3.004  0.2457  0.1382  0.3013
20572W        W36041  17.016   8.570  16.485  0.0408 -0.0669 -0.0004
20573W        W36042   0.508   2.828  13.123  0.1794  0.1411  0.0286
20574W        W36043  11.685  14.400  13.838  0.1400  0.0105  0.0170
20575W        W36044   7.582   6.064  16.250 -0.0172  0.3827  0.2132
20576W        W36045   0.332   8.750  11.198  0.0232 -0.0416  0.1292
20577W        W36046  10.354  17.843  12.651 -0.0608  0.0928  0.1302
20578W        W36047  11.528   2.147   5.337  0.0531  0.0362  0.1629
20579W        W36048   2.702  11.944   6.037  0.1680 -0.2221  0.2795
20580W        W36049  10.908   9.263  14.617 -0.1558  0.0651  0.1975
20581W        W36050  17.943  17.813   2.809  0.1958 -0.1406  0.3376
20582W        W36051   8.662   0.341  16.588  0.0003  0.0004  0.0263
20583W        W36052   7.945  11.712  12.969  0.2867 -0.0786 -0.0670
20584W        W36053   2.800  14.035   1.308 -0.0252  0.1419  0.0029
20585W        W36054   2.451   3.952   4.149  0.0307 -0.0924  0.1710
20586W        W36055  14.554   6.764   0.450 -0.1984  0.4618 -0.3897
20587W        W36056  13.093   0.227  12.659 -0.0208  0.0882  0.0483
20588W        W36057   3.570   1.635  14.538 -0.0171 -0.1669  0.0314
20589W        W36058   1.656   7.826  11.551  0.2764 -0.3351 -0.1098
20590W        W36059  14.745  12.788   1.138  0.0325 -0.2070 -0.4813
20591W        W36060   7.521   0.972   1.161  0.5319  0.1246  0.0480
20592W        W36061  16.831   7.589  10.675 -0.2581  0.0124  0.2534
20593W        W36062   4.262   1.538   0.697  0.1147  0.2067  0.0032
20594W        W36063   5.678   2.938   3.927 -0.4040 -0.2090 -0.4022
20595W        W36064  14.698   7.375  12.356 -0.4273 -0.1385  0.2254
20596W        W36065   2.682  12.182  12.545  0.0110  0.3789 -0.1932
20597W        W36066  10.136   9.597   3.506  0.3379 -0.0102  0.0113
20598W        W36067  17.640  11.532   3.553  0.0820 -0.2605  0.0387
20599W        W36068   1.322  12.757  13.169 -0.1467  0.1186  0.1419
20600W        W36069   2.491  10.326  15.849 -0.1733  0.2242  0.0638
20601W        W36070  11.046   5.912   1.861  0.2892 -0.0535 -0.2788
20602W        W36071  13.283   0.606   4.917 -0.0086 -0.1802  0.0968
20603W        W36072  10.773  14.256   2.260 -0.0563 -0.0587  0.2594
20604W        W36073   9.724  13.895  14.732  0.1033 -0.0971 -0.2027
20605W        W36074   8.717   4.479  14.545 -0.0099 -0.3250  0.0651
20606W        W36075  12.218   4.317  12.412  0.0255 -0.0761 -0.1245
20607W        W36076  16.488  14.785  12.314 -0.0131 -0.1943 -0.1091
20608W        W36077   5.226  15.845  16.217  0.0201 -0.0523  0.2830
20609W        W36078   1.138   9.038   3.434 -0.1583 -0.1360  0.0407
20610W        W36079  15.030  13.681  15.373 -0.2594 -0.0510  0.4351
20611W        W36080  15.539  17.189  13.515 -0.1183  0.0070  0.1878
20612W        W36081   9.927  14.726   4.946 -0.2631 -0.1457  0.1570
20613W        W36082  12.979   3.420   2.573  0.2398  0.1487 -0.2134
20614W        W36083   5.431  13.147  12.287 -0.1909 -0.0554  0.1676
20615W        W36084   4.394  12.478   2.433  0.0023 -0.2461 -0.1984
20616W        W36085  14.069  10.129  16.545 -0.3340 -0.0574 -0.1395
20617W        W36086   4.260  14.262  14.280  0.0001 -0.1480 -0.1159
20618W        W36087   5.201   1.742   3.935  0.2171  0.0402  0.0188
20619W        W36088   7.631  15.046  11.692 -0.0886 -0.2769  0.3016
20620W        W36089  10.933   7.116  14.329 -0.2813  0.0028 -0.1019
20621W        W36090   7.485  17.442  12.232 -0.0830  0.0213 -0.1932
20622W        W36091   9.010  12.706   2.368  0.0648  0.0210  0.1173
20623W        W36092  14.459   6.574   2.958 -0.0511  0.1547  0.1782
20624W        W36093  13.129   8.377  15.676 -0.0604  0.1075  0.0999
20625W        W36094   0.014   3.657   3.095  0.0601  0.0296  0.0346
20626W        W36095   7.539  17.325   3.467  0.0917  0.1712  0.3139
20627W        W36096  11.478  10.561  13.487 -0.0721  0.2344  0.1884
20628W        W36097  11.389   0.863   3.484  0.1719  0.0343  0.1300
20629W        W36098  14.654  12.779   0.645  0.0024 -0.1231  0.1037
20630W        W36099   3.066   9.851  13.040  0.0988  0.0879  0.1573
20631W        W36100   0.756   7.460   1.571 -0.1239 -0.1250  0.1044
20632W        W36101  11.560   2.892  10.690 -0.4825  0.1153 -0.2471
20633W        W36102  17.520   3.645   1.431 -0.1103 -0.0767 -0.1273
20634W        W36103  17.102  10.380  14.359  0.0183 -0.0919 -0.1880
20635W        W36104   7.446   9.659   1.649  0.1659  0.1043  0.0276
20636W        W36105   3.745   9.226   0.059 -0.3880  0.2390  0.1310
20637W        W36106  12.260  14.897  14.722 -0.2043 -0.5452  0.3480
20638W        W36107  14.571  17.546   2.402 -0.2419  0.2002 -0.3388
20639W        W36108  12.658  11.694  12.055  0.0177  0.1522 -0.0090
20640W        W36109  12.593   0.852  13.154 -0.0963  0.1647  0.0663
20641W        W36110  16.789   5.089   4.155  0.1157  0.1663  0.0118
20642W        W36111  10.085   0.776   0.237  0.0672  0.1496  0.0049
20643W        W36112   6.070  13.575   4.040 -0.2439 -0.1791 -0.3238
20644W        W36113  12.070   7.365  14.912  0.1157 -0.1434  0.0818
20645W        W36114   6.047   0.536   0.637  0.2313  0.0563  0.0873
20646W        W36115  11.071   3.295  15.816  0.1524  0.1293  0.2688
20647W        W36116  10.068  13.392   4.182  0.0016 -0.0061  0.0798
20648W        W36117  17.991  11.181   2.259 -0.2490  0.4136 -0.1521
20649W        W36118   5.608   4.553  15.526  0.2087  0.0008  0.2255
20650W        W36119   1.192  14.606  12.916 -0.0578 -0.2884  0.0023
20651W        W36120  13.465   2.439   4.488  0.0124 -0.0359  0.1248
20652W        W36121   1.716  14.712  16.051  0.3268 -0.0375 -0.0805
20653W        W36122  17.898   4.604  13.882  0.0370 -0.1029 -0.2505
20654W        W36123  10.686  11.965  12.204 -0.3898  0.1445  0.0743
20655W        W36124   2.574   6.580   0.214  0.2297 -0.0409  0.2209
20656W        W36125   8.200   1.448   1.065  0.0941  0.0399  0.0889
20657W        W36126   9.543   0.652   4.526 -0.0134 -0.1110 -0.1014
20658W        W36127   9.998  13.923  13.214 -0.0433  0.1370  0.1452
20659W        W36128   9.846   8.023   4.468 -0.1890  0.1776  0.1006
20660W        W36129   8.784  14.913  15.459  0.2814 -0.2039 -0.1672
20661W        W36130  14.489   0.807  16.488 -0.2047  0.0085 -0.0286
20662W        W36131  16.910   5.081   1.864  0.2429 -0.0858  0.0117
20663W        W36132  12.222  13.414   4.526 -0.0722  0.3862 -0.0280
20664W        W36133  11.917  14.591  13.032  0.2127 -0.1435  0.2028
20665W        W36134  15.519   5.608  14.165  0.2148 -0.0106  0.1079
20666W        W36135   8.368  15.444  13.559  0.1600 -0.0399 -0.0370
20667W        W36136   0.367   8.032  14.197 -0.0301  0.0252 -0.0529
20668W        W36137   7.134  17.956  13.734 -0.1275  0.0619 -0.2891
20669W        W36138  11.280  11.816  15.475  0.0328  0.1003 -0.3612
20670W        W36139   2.633   6.302   2.513  0.2773 -0.0362  0.0820
20671W        W36140   1.186  14.854  16.510 -0.0849 -0.0256 -0.0055
20672W        W36141  12.186   4.011   3.712  0.2471 -0.2827  0.0419
20673W        W36142  13.659   7.754  14.777 -0.2925 -0.1881  0.2059
20674W        W36143   0.067   6.182  14.590  0.3408 -0.0681  0.1573
20675W        W36144   3.199   9.235   4.903 -0.1437 -0.1119 -0.1105
20676W        W36145  13.701  13.504   3.810  0.0212  0.1079 -0.0559
20677W        W36146  15.761   8.148  10.064  0.0070 -0.0825 -0.0030
20678W        W36147  11.918   3.036   1.997 -0.2981  0.0266  0.2311
20679W        W36148  12.077  15.660   1.671 -0.1886  0.1077 -0.1185
20680W        W36149  10.580  11.482   0.850 -0.2234  0.1468 -0.0219
20681W        W36150   6.439   9.502  14.829 -0.1485 -0.1162 -0.1435
20682W        W36151   1.918  10.314  16.214 -0.0915 -0.0505  0.0587
20683W        W36152   7.456  15.515  13.582  0.1603  0.1295 -0.0571
20684W        W36153  17.568   9.754  13.511  0.2446  0.2239 -0.0952
20685W        W36154   6.619   8.850   4.887  0.1999 -0.1031 -0.0407
20686W        W36155  17.547  15.926   0.826  0.0087  0.0284 -0.3785
20687W        W36156   5.036   6.868   0.970 -0.2170 -0.1185 -0.1484
20688W        W36157   1.142  11.100  10.854  0.0411 -0.2012  0.0356
20689W        W36158  11.635   4.587   3.018  0.0925  0.3560  0.0031
20690W        W36159  14.476  11.056   5.128 -0.2815 -0.0187 -0.3792
20691W        W36160   6.036  16.812   5.891 -0.2673  0.0306  0.0099
20692W        W36161  11.061   7.486   0.910 -0.0381 -0.0079 -0.0606
20693W        W36162  13.426   8.086   3.163 -0.1488 -0.0013 -0.0998
20694W        W36163   9.430  10.343  12.706 -0.1861 -0.0071 -0.0960
20695W        W36164   6.519   5.262  15.668 -0.1351  0.0929  0.0686
20696W        W36165   4.248   2.367  13.081  0.2128 -0.1242  0.0306
20697W        W36166  14.911   2.316  13.983  0.4026 -0.1633  0.1989
20698W        W36167  13.137   3.191  15.522  0.0529  0.1745  0.3522
20699W        W36168   0.068   0.439   0.676  0.0386  0.1010  0.0412
20700W        W36169   8.820   2.140  14.504  0.3527 -0.1589  0.1850
20701W        W36170   5.330  15.073  15.798 -0.1630  0.2259  0.0251
20702W        W36171  13.035   3.091   3.971  0.1649  0.0714 -0.0863
20703W        W36172  17.977  11.921  11.874 -0.0360 -0.1333 -0.0035
20704W        W36173  14.881   2.484  12.478 -0.1052  0.0091  0.1488
20705W        W36174  10.495  13.759  13.112 -0.0522 -0.0535 -0.0540
20706W        W36175   8.976   7.059   0.295 -0.0880  0.2079  0.0337
20707W        W36176  10.123  11.413  11.415  0.0367 -0.1127  0.2198
20708W        W36177  17.942  17.404  13.538 -0.0840  0.2150  0.0665
20709W        W36178  10.275   6.953  12.300  0.3589 -0.3593  0.0617
20710W        W36179  16.363  15.417  11.963 -0.0806  0.2097  0.2438
20711W        W36180  11.606   3.253   1.621  0.1844  0.0844 -0.1310
20712W        W36181   9.550   9.424  15.704  0.2019 -0.3809  0.2676
20713W        W36182  16.305   4.317  16.078 -0.0090  0.1172  0.3602
20714W        W36183  10.015   3.677  15.618  0.0095  0.1179  0.0487
20715W        W36184   7.745  14.642   1.547  0.0800 -0.0087  0.2253
20716W        W36185  13.425  10.390   1.160  0.1021  0.2445  0.0803
20717W        W36186   9.546   1.268   0.453  0.0840  0.2634  0.0660
20718W        W36187  14.762  15.131  11.972 -0.0300  0.1181  0.1242
20719W        W36188  12.834   3.186   1.568 -0.0771  0.3357 -0.0983
20720W        W36189  16.309  12.730  15.186 -0.0698 -0.1345 -0.0138
20721W        W36190   0.053   3.724  12.927 -0.1438  0.0367  0.0678
20722W        W36191   1.386   1.284   0.257  0.2458 -0.0938 -0.3184
20723W        W36192  11.810   1.619  13.858 -0.0047 -0.2404  0.1636
20724W        W36193   6.718  11.432  14.782 -0.0329  0.1993 -0.1103
20725W        W36194  14.136   6.524   4.279  0.1534  0.2014  0.1703
20726W        W36195  16.583  14.206   1.874  0.0011 -0.0115  0.1772
20727W        W36196  12.090   9.300  12.499 -0.0437 -0.0741  0.2564
20728W        W36197   4.876   9.008  12.766 -0.1180 -0.0183 -0.1297
20729W        W36198   6.612   8.506   6.114 -0.1206 -0.2575 -0.1678
20730W        W36199   8.979  11.771  15.607 -0.0700 -0.0286 -0.0183
20731W        W36200  17.609  15.247  16.050  0.1397  0.0285 -0.0970
20732W        W36201  10.400  17.041   4.842  0.1194  0.2081  0.0181
20733W        W36202  15.868   5.854  11.895  0.4833  0.1423  0.0717
20734W        W36203  12.096  11.715  16.447 -0.0197 -0.0834  0.1410
20735W        W36204   3.701   8.111   1.101 -0.0398 -0.0150  0.0283
20736W        W36205   9.544  17.185  13.972 -0.4204  0.1798  0.1076
20737W        W36206  13.573  13.085   5.671 -0.1206  0.2356 -0.0062
20738W        W36207  16.482   2.380   5.622  0.0914 -0.1737  0.0689
20739W        W36208  15.516  15.017   2.022  0.0741 -0.1955 -0.2491
20740W        W36209  17.262   7.743   1.162  0.1553  0.0662 -0.1322
20741W        W36210   3.757  16.900   0.575 -0.1356 -0.1078  0.2006
20742W        W36211   3.508   6.325   3.462  0.2143 -0.3082  0.0381
20743W        W36212  10.250   6.727   1.288 -0.1058  0.1764 -0.1643
20744W        W36213   2.609   0.212  13.330  0.1963  0.1010 -0.0089
20745W        W36214  13.922  10.471   4.191  0.0948 -0.1271  0.2239
20746W        W36215   2.856  15.735  13.365 -0.6318  0.1447  0.0282
20747W        W36216   2.763   8.245  11.322  0.1065 -0.1298 -0.1085
20748W        W36217  12.634   2.505   0.867  0.0654  0.0027 -0.1969
20749W        W36218  17.352   4.744   5.159  0.2474 -0.1502 -0.2425
20750W        W36219   2.447   3.747   3.601  0.0348 -0.0224  0.0361
20751W        W36220  17.847   1.522  13.144 -0.1320 -0.3100  0.0393
20752W        W36221  12.778  16.739   6.131  0.0142  0.0994  0.0398
20753W        W36222  11.026   0.276   6.173 -0.0819 -0.1944  0.0051
20754W        W36223  11.030   2.129   5.375 -0.0867  0.0467 -0.0684
20755W        W36224   6.305   7.421  15.086 -0.0490  0.0460 -0.2878
20756W        W36225   6.602  10.350   4.790  0.0791 -0.0160 -0.1601
20757W        W36226  10.421   4.491   5.270  0.2849  0.1728 -0.1738
20758W        W36227  10.906   3.064  13.803 -0.4342 -0.0507 -0.1272
20759W        W36228   3.006  15.385  12.437  0.1231  0.0054  0.2984
20760W        W36229  16.749  14.949  15.173  0.1261 -0.1108 -0.0166
20761W        W36230   2.550  15.021   3.920 -0.4134  0.2128  0.2300
20762W        W36231  17.062  10.159   1.458 -0.1392  0.0193 -0.0042
20763W        W36232   9.383  15.592   2.084 -0.4215 -0.5454  0.1459
20764W        W36233  14.445   1.428  11.681  0.0665  0.0009 -0.2411
20765W        W36234   2.159  17.687   3.287  0.1430 -0.2744 -0.2183
20766W        W36235  10.999   6.316  15.342 -0.1161 -0.1386  0.2785
20767W        W36236   3.263   4.828   3.355 -0.2035 -0.0594  0.1056
20768W        W36237   7.762  10.385   5.174  0.0607 -0.3014 -0.3309
20769W        W36238   0.423  10.750   4.351 -0.1965 -0.0140  0.0142
20770W        W36239   9.107  11.083   5.686 -0.3570 -0.1008 -0.0541
20771W        W36240   0.591  15.839  15.181  0.0993 -0.1290  0.1757
20772W        W36241   2.858  15.330  11.530  0.1517 -0.0596 -0.0427
20773W        W36242   6.962  13.897   2.854  0.0883 -0.3068  0.2322
20774W        W36243   2.567  13.016  11.952 -0.5815  0.0433  0.1120
20775W        W36244  13.559  11.973   3.304  0.0911  0.0290  0.1621
20776W        W36245  14.331   2.284  13.267  0.1278 -0.2333  0.3051
20777W        W36246   4.763  15.036  12.024  0.0477 -0.1585  0.1807
20778W        W36247  14.553  10.810  14.639  0.2261  0.1595  0.0522
20779W        W36248  17.801  12.477  16.217  0.1515  0.1338 -0.0093
20780W        W36249   4.381  14.742  14.322  0.1479 -0.0980 -0.1151
20781W        W36250  12.195  16.377  15.299  0.0858  0.2233 -0.2932
20782W        W36251  12.294   8.268   1.594  0.0548  0.1140 -0.2794
20783W        W36252   3.033   6.087   0.689 -0.0737  0.2266  0.0532
20784W        W36253  15.695   7.710  12.830  0.0913  0.0636  0.0755
20785W        W36254   7.743  17.221  13.108 -0.1072 -0.0852  0.2690
20786W        W36255  17.550   2.976   3.444  0.0381 -0.2061  0.0940
20787W        W36256   8.570   5.532   1.899 -0.0002 -0.2219 -0.2948
20788W        W36257   7.959  17.087   3.251  0.2533  0.1638 -0.0384
20789W        W36258  17.967   7.262  14.088  0.3846  0.1369 -0.3131
20790W        W36259   1.347  10.737  11.706  0.1388  0.0452  0.1932
20791W        W36260   4.064  14.442   3.465 -0.0413 -0.0058 -0.2522
20792W        W36261   2.070   3.155  15.910  0.1521 -0.0535 -0.2150
20793W        W36262  11.644  10.238   1.230  0.0974  0.1493 -0.3599
20794W        W36263  10.627  10.848  14.400  0.0986  0.0969  0.1396
20795W        W36264  16.968   4.998   6.203  0.0957 -0.0022 -0.0163
20796W        W36265  11.523   1.829   1.569 -0.1209 -0.3929 -0.0854
20797W        W36266  17.792  13.867   0.110 -0.1820  0.0064  0.0693
20798W        W36267   4.988   3.592   4.895 -0.3676 -0.1435 -0.0743
20799W        W36268   4.800  11.056  15.182  0.4019 -0.3289 -0.1208
20800W        W36269   9.822  14.404  13.073  0.0217 -0.0294 -0.1146
20801W        W36270  12.926   9.787  15.687  0.2989 -0.0700  0.0603
20802W        W36271   5.606  14.907   3.115 -0.5039 -0.2865 -0.2629
20803W        W36272   7.451   2.963  16.089 -0.1205 -0.2285 -0.1219
20804W        W36273   1.267   7.842   1.604  0.3840  0.1916 -0.1750
20805W        W36274  10.270  11.582   1.844 -0.0198 -0.3166  0.0859
20806W        W36275  10.235   7.750   6.053 -0.1355  0.2395  0.2483
20807W        W36276  13.823   4.598   3.913 -0.0323 -0.1772  0.0668
20808W        W36277   5.710   8.153  10.778 -0.0595 -0.0228 -0.1813
20809W        W36278   3.167  12.500   5.277 -0.0347  0.1084  0.1208
20810W        W36279  17.498  12.345   1.540  0.0589  0.0146 -0.1205
20811W        W36280   0.964   1.264  15.953 -0.3335  0.3233  0.0853
20812W        W36281   2.837   1.457   1.851 -0.0063 -0.1440  0.1266
20813W        W36282  15.263  11.479   5.405 -0.2468 -0.1791  0.0765
20814W        W36283   6.357   8.566   0.840  0.3367  0.0745  0.0533
20815W        W36284  14.252   0.947  11.627  0.2611  0.2166 -0.0083
20816W        W36285   7.346   6.854  16.204  0.0606  0.2717  0.0465
20817W        W36286  16.097  16.261  15.561 -0.0234 -0.0378 -0.1839
20818W        W36287   7.560   6.023   4.959 -0.1860 -0.0085  0.0983
20819W        W36288  14.480  10.275   4.371  0.0120  0.0001  0.0891
20820W        W36289   2.801  15.422   2.415  0.2429 -0.0771 -0.0738
20821W        W36290   1.290   8.622   0.581  0.1210  0.2456  0.2614
20822W        W36291   4.447   5.162  14.408  0.2036 -0.2784 -0.0544
20823W        W36292  17.942  11.077   1.779  0.0805  0.2785 -0.0940
20824W        W36293  14.564   0.520  11.630 -0.1409 -0.2235 -0.2026
20825W        W36294  11.297   2.293   0.693  0.1578 -0.4018 -0.2271
20826W        W36295   6.474  10.859  15.415 -0.0387 -0.0624  0.1298
20827W        W36296  17.094   6.187  13.459  0.2925  0.2479  0.1196
20828W        W36297   1.793  13.492  15.433  0.1294  0.0804  0.2849
20829W        W36298   9.065   3.270  11.884 -0.0475  0.2441 -0.2384
20830W        W36299  17.127   2.188  14.223  0.0932 -0.1259  0.0869
20831W        W36300  17.929   2.052  10.967 -0.3000 -0.3263 -0.3893
20832W        W36301  12.993   2.501   2.327  0.3097  0.1514  0.1064
20833W        W36302  11.967   4.000   0.326  0.4804 -0.0478  0.2236
20834W        W36303   2.808   2.706   3.917 -0.0100 -0.2237  0.3148
20835W        W36304  17.457   0.548  12.653 -0.0067  0.0643  0.2173
20836W        W36305  12.775  10.950   5.534 -0.0300 -0.0837  0.2473
20837W        W36306   0.439   3.517  14.488  0.0963  0.1943  0.0857
20838W        W36307  16.590   4.612   2.702 -0.0762  0.0246 -0.1904
20839W        W36308   5.461  12.242   4.906 -0.1621 -0.0189  0.2078
20840W        W36309   4.912   4.001   4.514  0.0392  0.1288 -0.1394
20841W        W36310  15.378   6.143   3.320  0.1249 -0.0814 -0.0645
20842W        W36311   3.943  10.535   3.893 -0.1403 -0.2184 -0.0539
20843W        W36312   2.451  17.585   0.330  0.0202 -0.0392 -0.1788
20844W        W36313  11.114  14.607  14.332 -0.0194 -0.1237 -0.1011
20845W        W36314   5.281   0.048   2.186 -0.2240  0.2348 -0.0448
20846W        W36315   9.186   8.987  13.805 -0.0459 -0.0965 -0.0490
20847W        W36316   7.536   3.876   4.885 -0.2522 -0.4165  0.0240
20848W        W36317   2.556   8.532   4.767 -0.4316  0.2326  0.0678
20849W        W36318  12.082  16.664   5.637  0.3921 -0.0332  0.4063
20850W        W36319   7.774  13.535   1.365  0.4757  0.1743 -0.1903
20851W        W36320  12.067   5.449   4.852  0.1762 -0.0080 -0.0492
20852W        W36321  16.218  15.421   1.553  0.0048  0.1491 -0.0716
20853W        W36322   2.590   9.110   1.074  0.4347 -0.1995  0.0623
20854W        W36323  11.950  12.014   1.258  0.1396 -0.1737  0.2165
20855W        W36324  10.302  13.853   3.490 -0.2009  0.2975 -0.2589
20856W        W36325   5.498  15.609   2.430 -0.1766  0.0109 -0.0836
20857W        W36326  17.605  10.312  11.011 -0.1048  0.2816 -0.0695
20858W        W36327   1.629  15.622  11.856  0.0423  0.0733 -0.0274
20859W        W36328   6.002  14.756   3.656  0.0321 -0.1654 -0.3463
20860W        W36329   5.755   1.563   3.863  0.0277  0.0232  0.0175
20861W        W36330  10.659  17.357   3.515  0.0355 -0.1528  0.0809
20862W        W36331   0.547  17.118   2.083 -0.0439  0.1117 -0.0320
20863W        W36332  11.471   3.312   4.485  0.0029  0.0491  0.2502
20864W        W36333  11.834  12.671   2.457  0.2685  0.3431 -0.2146
20865W        W36334   9.897   5.138  12.865  0.1379 -0.1313  0.0358
20866W        W36335   0.844   1.751   0.537 -0.3606  0.4515  0.2022
20867W        W36336   9.964  11.793  14.335 -0.2357 -0.1067 -0.1681
20868W        W36337  15.222   0.517   3.663 -0.2561  0.0215 -0.0739
20869W        W36338   4.071  15.471   2.638  0.1416 -0.0776 -0.0918
20870W        W36339  13.188  12.935   1.496 -0.1610 -0.0562  0.2632
20871W        W36340  12.647  16.848  11.665  0.0670 -0.2387  0.0048
20872W        W36341  15.503  12.093   2.214  0.0435 -0.2761 -0.1427
20873W        W36342  12.582  10.086  13.105 -0.0251  0.0101 -0.1246
20874W        W36343   8.448  15.248   0.606 -0.0715 -0.3167  0.2278
20875W        W36344  12.219  17.411   1.804  0.3930  0.0884 -0.1189
20876W        W36345  13.650   4.141   3.757  0.2729  0.1154  0.0695
20877W        W36346  15.250   9.099  14.157 -0.1862 -0.1291  0.1342
20878W        W36347  11.928   7.386  15.396 -0.2138  0.1629  0.2117
20879W        W36348   5.480   1.839   5.528  0.1833 -0.1638 -0.2347
20880W        W36349  14.734  15.558   1.789 -0.0508  0.1289  0.0170
20881W        W36350  12.749   6.809   3.201  0.0300  0.0596 -0.1715
20882W        W36351   2.478   9.792   4.206 -0.0742 -0.1590 -0.1203
20883W        W36352  15.699  11.242  12.595 -0.0092 -0.1776 -0.1160
20884W        W36353  17.157   0.542  15.111 -0.2712  0.0580 -0.1651
20885W        W36354  16.064  10.843  13.749 -0.0420 -0.2276  0.3808
20886W        W36355  17.484  10.631   3.748 -0.1660  0.0365  0.1083
20887W        W36356   7.060   2.968   5.561  0.0998  0.0274 -0.1199
20888W        W36357   8.245   3.509   2.788 -0.0260  0.0941 -0.0195
20889W        W36358   5.065  13.679  15.447 -0.1309  0.0691  0.2633
20890W        W36359   6.975  12.920  12.894  0.0681 -0.1002  0.1386
20891W        W36360  12.674  12.115  12.310 -0.0458 -0.0019 -0.0864
20892W        W36361   0.785   0.972   4.883 -0.1072  0.2316  0.0126
20893W        W36362  11.489   0.516   6.198 -0.1093 -0.1783 -0.0517
20894W        W36363  13.876   3.475  12.337 -0.0643 -0.1324  0.1861
20895W        W36364  13.360   1.243  12.833  0.1285 -0.0988 -0.1973
20896W        W36365  15.492  13.748  14.273 -0.0326 -0.0076 -0.0442
20897W        W36366   1.166  17.664  14.819  0.1343 -0.1222  0.0567
20898W        W36367  15.575  14.773  14.079 -0.0440 -0.1092  0.2026
20899W        W36368  10.903   2.994   5.128 -0.3933 -0.1051  0.1167
20900W        W36369   9.971   1.188  14.962 -0.1299 -0.4095 -0.4156
20901W        W36370  14.222   7.711   1.271 -0.0278 -0.1924 -0.0675
20902W        W36371  11.174   8.195  15.552  0.0264  0.0438 -0.1071
20903W        W36372   3.318   2.068   1.987  0.0787 -0.0002  0.0166
20904W        W36373   3.085   5.272   5.785 -0.0111  0.0110 -0.0150
20905W        W36374  11.353   8.400   1.147  0.0550  0.1695 -0.0774
20906W        W36375   6.304   6.496  14.632  0.2070 -0.3901 -0.1770
20907W        W36376   3.584  10.084   0.765 -0.4215 -0.2003 -0.1445
20908W        W36377   4.444   6.905   0.910  0.1223 -0.1814 -0.0233
20909W        W36378   8.507  12.405   2.480  0.0735  0.2856  0.5610
20910W        W36379   7.822  13.971   2.893  0.1922  0.2098 -0.2136
20911W        W36380   7.962  17.483  10.869  0.0567 -0.1769  0.0354
20912W        W36381  16.484   0.564   5.576 -0.1749  0.1621  0.1666
20913W        W36382  17.368   7.814   5.929  0.1831 -0.2341  0.0609
20914W        W36383   2.129  16.666  15.782  0.0641 -0.1114  0.2442
20915W        W36384  11.474  10.070   0.290  0.3321 -0.1840  0.0928
20916W        W36385   0.249   6.978  15.175  0.0336  0.1912 -0.0768
20917W        W36386   3.835   2.381   5.662 -0.0150  0.2136 -0.2738
20918W        W36387   0.476   8.629   4.388 -0.2672  0.0375  0.1306
20919W        W36388   7.116   0.913   5.800 -0.1805  0.1706  0.0074
20920W        W36389   2.690   9.909  13.839 -0.0212 -0.1640  0.0463
20921W        W36390   6.685   9.946  14.926  0.0504  0.1431  0.0550
20922W        W36391   5.058  17.167   0.785  0.0701 -0.1971 -0.0355
20923W        W36392  15.757  15.912   1.020  0.1565 -0.3039  0.2119
20924W        W36393  11.273   5.921   2.776 -0.0939 -0.0781 -0.3618
20925W        W36394  15.980   5.042   5.372 -0.1896 -0.5648  0.2956
20926W        W36395  12.555  14.594   2.229  0.2748  0.0170 -0.0729
20927W        W36396  17.956  14.738   5.003 -0.0347  0.0465  0.1220
20928W        W36397   5.479  17.292  11.776  0.0154  0.2414 -0.3750
20929W        W36398   6.633  11.293  16.552 -0.2428 -0.2917  0.0283
20930W        W36399  10.243   7.038   0.451  0.1391  0.0022  0.1637
20931W        W36400   7.934  12.439  13.734  0.1398  0.1589 -0.0062
20932W        W36401   7.450  13.161  14.335  0.2463 -0.0261  0.0548
20933W        W36402   5.787  13.962  11.318  0.0376 -0.1084  0.2063
20934W        W36403  16.597  14.844   0.437 -0.0011  0.2264 -0.1207
20935W        W36404   0.817   8.806  16.341  0.1408  0.0838  0.2063
20936W        W36405  15.115   0.883   2.508  0.0170 -0.2233 -0.0648
20937W        W36406  11.172   4.665   3.849  0.1657  0.2472  0.0746
20938W        W36407  16.761  12.611  15.176 -0.3863 -0.0393  0.1565
20939W        W36408   9.764   1.140  16.210 -0.3196 -0.1065  0.0233
20940W        W36409  11.443   9.384  11.744  0.0981  0.0148  0.0393
20941W        W36410   0.050  11.350   3.220 -0.0190 -0.1245  0.1421
20942W        W36411  15.428   8.432   1.412  0.2523  0.0058  0.2176
20943W        W36412  17.915   2.445   4.211  0.1873 -0.0103 -0.2725
20944W        W36413   8.323  13.366  14.683  0.0394  0.4642  0.0010
20945W        W36414  11.226  12.375   3.738  0.1336 -0.0973 -0.0983
20946W        W36415   9.135   8.527  14.062  0.1057  0.1029  0.0247
20947W        W36416  12.322  12.327   5.296  0.0615  0.3656 -0.3868
20948W        W36417  17.588   4.859   2.573  0.0638 -0.3283  0.1074
20949W        W36418  11.027  11.210  12.032 -0.2279 -0.3448 -0.3154
20950W        W36419   3.280  13.460   3.498 -0.0115 -0.0128  0.1741
20951W        W36420  15.246  12.348  12.317  0.5066  0.1350  0.0856
20952W        W36421  13.699  11.664  11.212 -0.0962 -0.1963 -0.0762
20953W        W36422   0.978   0.809   3.513  0.0531 -0.0086  0.4072
20954W        W36423  12.129   2.853  12.073 -0.3422  0.1114 -0.1074
20955W        W36424  10.431   9.862   1.347  0.0382 -0.3649 -0.0788
20956W        W36425   3.005   0.447   0.009  0.2377 -0.1322 -0.1846
20957W        W36426   8.316   8.204   4.502 -0.0165  0.0303 -0.1000
20958W        W36427  12.890   9.140  11.505  0.2274  0.0619 -0.1344
20959W        W36428   4.864   8.514  12.573  0.0012 -0.0592  0.3309
20960W        W36429   1.719   3.594  13.077  0.3471  0.0387 -0.1183
20961W        W36430  12.424   3.413  16.135 -0.1211 -0.0036  0.0179
20962W        W36431   1.833   7.481   4.317  0.1494  0.1131 -0.2008
20963W        W36432   1.826   2.102  11.995  0.3293 -0.0135 -0.0836
20964W        W36433   6.184   6.377   2.123  0.1097  0.1074  0.0763
20965W        W36434   2.797   6.566  13.450  0.0362 -0.0353  0.1145
20966W        W36435  10.901   4.811  12.885 -0.1010  0.0094 -0.2107
20967W        W36436   6.774   1.713  13.159 -0.1223  0.0006  0.0720
20968W        W36437   1.437  13.055   3.363  0.1601  0.0812  0.2719
20969W        W36438  10.172  16.974  16.348  0.0065  0.0070 -0.0456
20970W        W36439   6.183  11.271  11.922  0.2500  0.4480  0.0804
20971W        W36440   6.822   7.504  10.043  0.0568  0.1555  0.0385
20972W        W36441  14.558  10.763  15.513  0.1474 -0.1376  0.1641
20973W        W36442   8.544  11.471   1.910  0.2423 -0.1046  0.0385
20974W        W36443  15.250  17.597   0.511  0.0366 -0.1903  0.1176
20975W        W36444   9.057   5.223   2.516 -0.0664  0.1523 -0.0266
20976W        W36445   4.579   1.994  15.973  0.2824  0.2705 -0.1022
20977W        W36446  14.720   3.765  11.472 -0.2767  0.2820  0.0449
20978W        W36447   4.357  13.478   1.132 -0.0546 -0.1257  0.0566
20979W        W36448  16.463  10.868  11.732  0.1863  0.0698 -0.0216
20980W        W36449   4.287   4.227   0.113 -0.2089  0.1757  0.0854
20981W        W36450  14.075  16.737   1.000 -0.0760  0.0767 -0.1084
20982W        W36451   0.876   4.228  13.347  0.0673  0.1629 -0.0970
20983W        W36452   0.265   0.312   3.360 -0.0056 -0.1416  0.2641
20984W        W36453  14.416  12.179   1.868 -0.3281  0.1870  0.2113
20985W        W36454  16.015  12.426  15.433 -0.0923 -0.1701  0.2846
20986W        W36455  12.012  12.852   1.986  0.1663 -0.0745 -0.0327
20987W        W36456  16.253   9.820   0.602 -0.0865 -0.0596 -0.0429
20988W        W36457   0.174  16.356  14.592 -0.0130  0.0593 -0.1543
20989W        W36458   5.762  10.484   6.145 -0.0156  0.2195 -0.1094
20990W        W36459  14.123   5.626  11.232  0.2615 -0.0800  0.1425
20991W        W36460   8.975  14.519   0.937 -0.2019  0.2541  0.1149
20992W        W36461   5.650   8.322   0.181  0.1186 -0.0417  0.1617
20993W        W36462   5.013   9.139  14.112  0.1949  0.1762  0.0084
20994W        W36463  11.229   3.065   0.298  0.1115  0.1090 -0.1431
20995W        W36464  11.896  10.630   0.587  0.0361 -0.1137  0.0051
20996W        W36465  16.648   5.150  10.800  0.0687  0.2985  0.1668
20997W        W36466  15.621   2.601  15.572 -0.1886 -0.0441  0.3208
20998W        W36467  13.608  11.116  14.365 -0.2951 -0.0991 -0.0511
20999W        W36468   8.609  10.515  11.863 -0.0720 -0.0642 -0.1543
21000W        W36469  17.200  15.608  14.832  0.0536 -0.1545  0.4292
21001W        W36470   8.734   5.282  13.390  0.0289  0.0968  0.0722
21002W        W36471  17.708   2.106   2.944  0.0809  0.0494 -0.2517
21003W        W36472  10.002  11.299   4.158  0.1451 -0.0041  0.2365
21004W        W36473   0.397   0.524   2.071  0.0935  0.0010 -0.2295
21005W        W36474   9.811   2.418  16.013  0.1098  0.2832 -0.3322
21006W        W36475  14.276  10.218  14.649 -0.0933  0.0303  0.4761
21007W        W36476   9.221   3.580   3.669 -0.0554  0.0069 -0.1347
21008W        W36477   0.323   2.456   4.556 -0.1852  0.1491  0.0136
21009W        W36478   7.392   7.437  14.527 -0.0083  0.0403  0.3530
21010W        W36479   7.747   8.598  12.644  0.2965 -0.0933 -0.3084
21011W        W36480   9.488   5.853  11.829 -0.1740  0.0495 -0.0093
21012W        W36481   5.005   0.630   3.964 -0.0415  0.1244  0.0005
21013W        W36482  16.310  17.608   2.131 -0.0542 -0.0528 -0.3003
21014W        W36483   9.002  16.800   2.256  0.0812  0.0857 -0.1211
21015W        W36484   9.880  14.123   1.246 -0.1722  0.1505  0.2417
21016W        W36485   9.741  15.233  14.112  0.1162  0.0385  0.0093
21017W        W36486   2.869   9.638   4.878  0.0395 -0.2873 -0.2620
21018W        W36487  17.200  16.161   4.408  0.0611 -0.0852  0.0548
21019W        W36488   3.956   7.302  15.497 -0.0983 -0.0693  0.0094
21020W        W36489   3.402   8.888   1.418  0.1423 -0.1336 -0.0663
21021W        W36490   4.756   1.239   5.475 -0.1739 -0.3510 -0.0551
21022W        W36491   1.445   8.678   2.356 -0.3344  0.0432  0.3128
21023W        W36492   8.251  15.072   3.986 -0.1023  0.0625  0.0915
21024W        W36493   1.074   4.000   5.490 -0.0318 -0.1502  0.4037
21025W        W36494  16.975   7.884  12.461  0.2972 -0.3687  0.2121
21026W        W36495  12.095  16.040   6.482 -0.2058  0.2223 -0.2959
21027W        W36496   2.852   7.434   5.474  0.1331  0.0368  0.3579
21028W        W36497  17.637   6.438  14.436  0.0181 -0.1818 -0.0132
21029W        W36498   6.346   3.822   0.783  0.2170 -0.0968  0.0332
21030W        W36499  10.241  15.443  16.582 -0.1336 -0.0695 -0.2532
21031W        W36500  12.068  11.768  15.944  0.3055 -0.1856  0.2098
21032W        W36501   6.331  10.484   0.808 -0.0176  0.0789  0.0546
21033W        W36502  14.971  13.740   5.860  0.0490 -0.1145  0.1712
21034W        W36503   2.872  14.828  14.071  0.3703  0.1445  0.1033
21035W        W36504  12.587   3.721  13.500  0.0161  0.3879  0.0983
21036W        W36505   2.545   4.693   0.977  0.0985  0.1327 -0.0105
21037W        W36506   8.872   1.262  16.500 -0.2626 -0.0746 -0.1873
21038W        W36507   3.021   5.226  12.028  0.4523 -0.2033  0.0740
21039W        W36508  11.983  13.980  13.737  0.0427 -0.0641  0.1918
21040W        W36509  12.754   2.860  14.112  0.0381 -0.0347 -0.3160
21041W        W36510  10.505   1.903  11.591 -0.1676 -0.2782  0.0057
21042W        W36511   0.861  10.419  16.102 -0.1019  0.4459 -0.1055
21043W        W36512   9.417  13.954  13.283  0.0167  0.0433  0.3660
21044W        W36513  17.993  14.351  13.233  0.3045 -0.2537 -0.2126
21045W        W36514  16.673   3.530  16.405 -0.0469 -0.3648 -0.0335
21046W        W36515  10.589   0.829   3.713  0.2285 -0.2309  0.2357
21047W        W36516   8.975   8.715   1.248 -0.0363 -0.0233  0.2474
21048W        W36517  13.348  15.734   5.701  0.3907 -0.0517 -0.1507
21049W        W36518  13.735   8.180   4.671 -0.1212  0.2005 -0.0291
21050W        W36519  17.679   7.357  13.680  0.2519 -0.3996 -0.1280
21051W        W36520   2.200  16.086  11.417 -0.2475 -0.0221  0.3282
21052W        W36521   2.213   8.342  12.193  0.0474  0.2343  0.0185
21053W        W36522   4.722  11.810  16.568 -0.0741 -0.0956 -0.2503
21054W        W36523  13.103  13.070  13.166  0.3862  0.0782  0.1495
21055W        W36524  13.881   0.639   4.645 -0.0531  0.4824  0.2716
21056W        W36525   2.421  13.915   5.648 -0.0167  0.2557 -0.2082
21057W        W36526  16.506   3.958   2.441  0.0075  0.3335  0.5043
21058W        W36527   2.974  14.013   4.869  0.0034 -0.0424  0.0063
21059W        W36528   8.237   3.389  15.372  0.1463 -0.0073 -0.0240
21060W        W36529   6.177  14.348   2.435 -0.0713  0.2314  0.1969
21061W        W36530   9.253  14.439  12.426 -0.1165  0.0025  0.0916
21062W        W36531   9.672   2.060  13.006 -0.0702  0.3424 -0.1129
21063W        W36532  11.184   9.645   3.196  0.0212 -0.2726  0.4616
21064W        W36533  10.280  14.196  15.750  0.1037  0.0166 -0.2124
21065W        W36534   0.230   2.784  13.870  0.3266 -0.2555 -0.0512
21066W        W36535  14.657   6.590  15.829 -0.1772  0.1132  0.0568
21067W        W36536   3.679  14.214  11.773 -0.0885 -0.0537 -0.0655
21068W        W36537  14.605   4.539   3.800 -0.1520  0.0224 -0.1267
21069W        W36538  14.294   3.034   4.102  0.3324 -0.0540 -0.1476
21070W        W36539  11.205   5.289   3.327  0.1919  0.2426  0.2141
21071W        W36540   0.510  15.132   5.958 -0.1111  0.1312 -0.1516
21072W        W36541   7.239   7.331   2.233 -0.3436  0.1301 -0.1151
21073W        W36542   3.099   9.318   2.919 -0.2079  0.1739 -0.1585
21074W        W36543  13.515  10.921  11.598 -0.0856 -0.1201  0.0596
21075W        W36544  10.119   2.739  15.786 -0.0847 -0.4240 -0.1266
21076W        W36545   8.503   0.803  10.674  0.1912  0.1342 -0.2465
21077W        W36546   3.264  16.165  11.213 -0.0180  0.0105 -0.1440
21078W        W36547   5.709   7.407  12.713  0.2758  0.2958  0.1426
21079W        W36548   9.680  11.617  11.451 -0.2624  0.0381  0.2400
21080W        W36549   5.705  15.670   4.888  0.2465  0.2437  0.1884
21081W        W36550  13.444   8.166  14.846  0.0573 -0.2448  0.3411
21082W        W36551   8.498   7.990   5.746  0.4327 -0.0492  0.0661
21083W        W36552   7.758  11.267   2.879 -0.2803 -0.0850  0.0788
21084W        W36553  10.518   1.234  14.866 -0.1900 -0.0799  0.1426
21085W        W36554   4.002  14.544  13.963  0.0066 -0.0061  0.1084
21086W        W36555  12.714  13.746  12.077 -0.3508  0.1048  0.1336
21087W        W36556   3.869   3.718  11.422  0.0976 -0.0796  0.3162
21088W        W36557  15.534  15.721   1.441  0.1765 -0.1099 -0.0698
21089W        W36558  15.954   9.813   3.418 -0.0397  0.1162  0.1485
21090W        W36559   5.810   5.102  14.875 -0.0501  0.2005  0.0112
21091W        W36560   1.111  16.631  12.187  0.3535  0.1010  0.0538
21092W        W36561   0.091   8.322   0.656 -0.1587  0.1707 -0.2109
21093W        W36562   4.971   9.608  15.471 -0.0315 -0.0503  0.0045
21094W        W36563   6.784  13.089  15.249 -0.1514 -0.2785 -0.2934
21095W        W36564  10.150  11.192   0.944  0.1792 -0.0256  0.2564
21096W        W36565   7.166   6.811  12.543 -0.1475  0.0916  0.1635
21097W        W36566   5.848   2.014  13.877 -0.1098  0.1055  0.2163
21098W        W36567  16.995   3.607   1.692  0.2509  0.2005  0.3600
21099W        W36568  15.245   8.224  15.933  0.1931 -0.0205 -0.0383
21100W        W36569  11.693  11.985   0.781  0.2877 -0.1727  0.1663
21101W        W36570  12.484  14.575  15.083 -0.0551 -0.1837 -0.2223
21102W        W36571  15.427   4.847   3.778 -0.0910 -0.1288  0.1921
21103W        W36572  10.126  14.526   1.792  0.0418 -0.4131  0.3132
21104W        W36573   8.567   4.853   4.731  0.0393 -0.0419 -0.0615
21105W        W36574   9.313  16.480  14.610  0.1275 -0.4134  0.1825
21106W        W36575  17.727  11.684   2.321 -0.0245  0.0792 -0.3144
21107W        W36576  12.430   8.076   0.227  0.2728 -0.0758  0.0540
21108W        W36577  10.020   4.518   1.554 -0.0624 -0.1802  0.1173
21109W        W36578  17.015  16.148   5.321 -0.0375 -0.0114  0.3154
21110W        W36579   5.798  13.220   5.280 -0.5103  0.2111  0.2371
21111W        W36580  14.457   1.573  14.955 -0.2060  0.1374  0.0845
21112W        W36581   3.981   4.605  12.509  0.1709 -0.0982  0.1158
21113W        W36582  10.571  17.814   1.256  0.5044 -0.1560 -0.0620
21114W        W36583   4.669   3.883  12.112  0.3078  0.0338  0.2744
21115W        W36584  10.942  11.598  12.591 -0.1202 -0.2012 -0.2218
21116W        W36585  15.626   4.041   4.584  0.1705 -0.2212  0.1613
21117W        W36586  13.904  16.759   1.533 -0.2048 -0.1323 -0.1650
21118W        W36587  10.689   0.692  14.943 -0.1602  0.0577  0.2142
21119W        W36588  13.150  10.651  11.964  0.0316 -0.1699  0.0299
21120W        W36589   9.939  16.020   2.615  0.2383 -0.0390 -0.1759
21121W        W36590   9.670   4.203   3.186 -0.0324  0.0501  0.0016
21122W        W36591   0.537   1.644   3.174 -0.0043 -0.0566  0.0262
21123W        W36592   1.542  12.133   0.618  0.1023  0.1489  0.1972
21124W        W36593   4.051  11.997   3.181 -0.0204  0.2009  0.1711
21125W        W36594  12.214  16.416  12.317  0.1835  0.2383  0.1537
21126W        W36595  12.814   3.657   2.159 -0.1097 -0.1411  0.2214
21127W        W36596   2.651   3.351  15.184  0.2475  0.4229 -0.1179
21128W        W36597   2.612  17.353   3.097  0.2360  0.0958  0.0622
21129W        W36598   7.912   5.227  13.879  0.0041  0.1021  0.0593
21130W        W36599  13.698   9.925  10.675 -0.0543 -0.0187  0.0326
21131W        W36600  10.103   7.441   5.214 -0.1142  0.0774  0.0309
21132W        W36601   4.542   0.624   4.834 -0.2094  0.0326  0.0591
21133W        W36602   4.469   2.383  15.638  0.0988  0.0341  0.0232
21134W        W36603  10.234   4.482  14.630  0.0043 -0.1209  0.2743
21135W        W36604   5.550   5.583  11.279 -0.0038  0.0946 -0.1425
21136W        W36605   8.158  16.395  13.341 -0.3366  0.0039 -0.1076
21137W        W36606  13.351   8.280  10.381  0.2392  0.1189 -0.0707
21138W        W36607   3.945   6.732   2.440  0.3312  0.0389  0.1185
21139W        W36608   2.431   2.185   1.538  0.1337  0.2660 -0.0459
21140W        W36609   4.137   3.981  12.072 -0.1120 -0.1810 -0.3199
21141W        W36610  13.775   6.146  16.026 -0.3963  0.0492 -0.1208
21142W        W36611   1.476  13.415  12.288  0.1164 -0.1218 -0.1024
21143W        W36612   6.137   1.454  12.389 -0.0292  0.2657  0.1302
21144W        W36613  16.386   6.647  15.271  0.1405  0.4288  0.0451
21145W        W36614   0.375  13.043   4.425  0.1366  0.1074 -0.0173
21146W        W36615   8.632  16.283   3.610 -0.0063  0.4215 -0.1967
21147W        W36616  12.377  13.401  14.334  0.0323  0.0221 -0.1509
21148W        W36617   0.153   1.630  13.953 -0.0760 -0.2747 -0.1755
21149W        W36618  11.120   6.318  12.296 -0.1013  0.0085  0.1218
21150W        W36619   5.422  14.039  11.644 -0.1390  0.0006  0.0854
21151W        W36620   0.650   7.333  13.656  0.0712  0.1294  0.1923
21152W        W36621   3.803  12.552   1.734  0.0191 -0.0706  0.1594
21153W        W36622  12.837  14.233  13.358 -0.0829  0.0505  0.0255
21154W        W36623  16.692  11.506  13.678 -0.1671  0.2893 -0.1204
21155W        W36624  11.456   4.829   3.395  0.4701  0.0142 -0.0904
21156W        W36625   3.936   6.735  14.788  0.0114  0.0771 -0.1284
21157W        W36626  15.634   9.009   0.896  0.1088  0.2108  0.0361
21158W        W36627   9.630   1.703   4.943  0.4655  0.0625  0.0902
21159W        W36628  17.825   4.558  15.582 -0.2039 -0.1960  0.1007
21160W        W36629  13.766   0.146   2.900  0.3550  0.0776 -0.0943
21161W        W36630  15.855  14.568   5.133 -0.1460 -0.2252  0.3338
21162W        W36631   6.260   7.316  13.384 -0.0879 -0.2533  0.0336
21163W        W36632  15.591  16.158   3.343 -0.2282 -0.0051  0.0319
21164W        W36633   8.321   4.497   4.514  0.0044 -0.1454 -0.0199
21165W        W36634  16.924  10.255   3.442 -0.2260  0.1520 -0.1945
21166W        W36635   1.317   3.119   2.588  0.2430 -0.1512  0.0733
21167W        W36636  11.541   0.953   5.066 -0.0049  0.0435  0.1562
21168W        W36637   8.174   8.826  11.812  0.0948  0.0136  0.1410
21169W        W36638  14.308   7.077   2.999  0.1044  0.3020 -0.2942
21170W        W36639  14.270   8.720  14.765 -0.0036 -0.1101  0.0210
21171W        W36640  17.894  12.511   1.881 -0.1405  0.2263 -0.1197
21172W        W36641   8.924  14.087  13.910 -0.2550  0.2438  0.3131
21173W        W36642   5.116  11.860  14.673  0.0493  0.0349 -0.2655
21174W        W36643   8.234   7.929   3.278  0.0045  0.1287 -0.0117
21175W        W36644   0.994   4.586  11.211  0.0740 -0.1341  0.1904
21176W        W36645   8.081   6.923  15.491  0.1814 -0.3073 -0.2840
21177W        W36646   3.371  13.064   3.236 -0.1511  0.3072  0.0642
21178W        W36647   0.623  12.131   2.752  0.1117  0.0861 -0.1945
21179W        W36648  15.262  10.831   4.908  0.1792  0.3118  0.2220
21180W        W36649  16.580   4.813   1.479 -0.1609 -0.3823  0.1673
21181W        W36650   9.279   1.284   5.203 -0.0005 -0.1882 -0.0071
21182W        W36651   1.552   8.685  15.756 -0.3067  0.0776  0.1046
21183W        W36652  17.981  14.485   1.053  0.0346 -0.0007 -0.2325
21184W        W36653   6.890   0.167   5.028  0.0449 -0.3221  0.1026
21185W        W36654   1.033  15.695   1.388  0.0467 -0.3007 -0.1698
21186W        W36655   1.417  15.151   5.317  0.0886 -0.1886 -0.0300
21187W        W36656  17.315  11.621  12.930 -0.1879 -0.0225 -0.0104
21188W        W36657   3.315   1.241  14.142  0.0621  0.1275  0.1491
21189W        W36658   8.535  10.741  13.788  0.1897 -0.2065  0.1281
21190W        W36659   0.857   8.094   4.991  0.2439 -0.0089  0.0444
21191W        W36660   1.409   7.757   3.486  0.0426 -0.0087  0.0479
21192W        W36661   1.996   7.834   3.936 -0.2052  0.0046  0.1572
21193W        W36662   9.229   3.617   0.661 -0.0883  0.3321  0.2019
21194W        W36663  12.323  14.861   5.297  0.2447 -0.0533 -0.1082
21195W        W36664  15.708   8.673   0.022  0.0044  0.0320 -0.1155
21196W        W36665  15.482   2.799  11.473 -0.0698 -0.1382 -0.1446
21197W        W36666   5.940   7.309  11.755  0.1401  0.0592  0.0896
21198W        W36667   9.100  12.926  15.455  0.1914  0.0639 -0.0387
21199W        W36668  13.577   5.593  12.950  0.0216 -0.2087 -0.2411
21200W        W36669  17.370  17.085   5.014  0.2635  0.0287  0.0047
21201W        W36670   0.181  11.404  14.250  0.2255  0.1480  0.2407
21202W        W36671   1.732   8.283  11.319 -0.2825 -0.0358 -0.1618
21203W        W36672   8.197  14.484   4.776  0.1683  0.0179  0.0663
21204W        W36673   8.600   9.503   0.964 -0.3432 -0.0722  0.1205
21205W        W36674   8.217  16.341   1.131  0.1980 -0.1104  0.1249
21206W        W36675   2.179  16.857   1.719  0.3837 -0.0330  0.0000
21207W        W36676   2.287  15.720   6.578  0.0447 -0.0354 -0.0687
21208W        W36677   5.367  16.634  14.976 -0.0964 -0.0245 -0.0474
21209W        W36678   4.313  10.799  11.878  0.0949  0.2838  0.1275
21210W        W36679   7.167  12.805   2.676  0.2814 -0.1293 -0.1249
21211W        W36680  13.471   4.293  16.057  0.0685 -0.1155 -0.0839
21212W        W36681  11.187  16.390   5.440 -0.1243 -0.2333  0.1743
21213W        W36682   4.137   9.414   0.842 -0.0774  0.1795 -0.0505
21214W        W36683  12.096   8.068   2.963 -0.0034  0.2146  0.3024
21215W        W36684   8.391   2.300   5.554 -0.1249 -0.0390  0.3943
21216W        W36685  12.837   8.315  14.531 -0.2113 -0.2690  0.2066
21217W        W36686   8.672   1.894   1.775 -0.1644 -0.0325  0.0652
21218W        W36687   6.992  15.104  12.187  0.2920 -0.1349 -0.1841
21219W        W36688   1.478  10.726  15.567 -0.0359 -0.0585 -0.0871
21220W        W36689  17.096  13.588   4.966  0.1072  0.1192 -0.1377
21221W        W36690  11.542  12.222   2.544 -0.3642 -0.0722  0.0909
21222W        W36691  17.468  10.823   0.269  0.1275  0.0238 -0.0257
21223W        W36692   4.702   5.829  12.225 -0.1687 -0.1502  0.0177
21224W        W36693  12.616  17.088   1.803 -0.0867 -0.0919  0.1270
21225W        W36694  15.119  14.283   4.622 -0.0113 -0.1547  0.2157
21226W        W36695  12.340  14.757   1.106  0.1109 -0.1360  0.2615
21227W        W36696   7.725  14.848   4.347  0.0246  0.0842 -0.1025
21228W        W36697   1.082  10.057  15.921 -0.0967  0.0630  0.1272
21229W        W36698  14.924  15.806  14.571  0.0993  0.1241  0.3139
21230W        W36699   6.984  12.205   0.020 -0.2184  0.0986  0.0449
21231W        W36700  16.460  17.044  15.649  0.0317 -0.5051  0.0122
21232W        W36701  15.605  13.723   1.383  0.1360 -0.2056 -0.0658
21233W        W36702   7.978  15.194   0.356 -0.1351 -0.0266  0.1073
21234W        W36703   6.634  17.243   3.894 -0.0052 -0.0770  0.3107
21235W        W36704   2.347   5.524   0.769  0.2022 -0.3918  0.0070
21236W        W36705   4.832   1.553   4.489 -0.1310 -0.1638  0.1365
21237W        W36706  16.204  11.449  14.444  0.0500  0.0720  0.1573
21238W        W36707   5.026  10.299  11.730  0.1338  0.6877  0.0493
21239W        W36708   5.240   0.397  14.118 -0.0359 -0.0699  0.1439
21240W        W36709   4.577  13.601   4.061  0.2641  0.0851 -0.1234
21241W        W36710   8.639   0.586   1.023  0.2299  0.2390  0.2707
21242W        W36711   0.802  17.902   0.991  0.2677  0.1712 -0.0263
21243W        W36712   9.021   3.034  15.223  0.1831 -0.0495 -0.2663
21244W        W36713  12.692  14.975   5.564 -0.0218 -0.1310 -0.1586
21245W        W36714   8.328   7.811  15.098  0.0970 -0.0587 -0.3058
21246W        W36715   0.943  17.598  13.867 -0.0241  0.2104 -0.1441
21247W        W36716   4.541  12.870   0.577  0.0703 -0.2234 -0.0118
21248W        W36717   5.778   9.896   1.499  0.0481 -0.0818  0.1280
21249W        W36718   7.227   3.544   1.149 -0.2065  0.1410 -0.0463
21250W        W36719  12.929   7.106   4.949  0.0267  0.0404  0.1936
21251W        W36720  10.532  16.084   0.778 -0.1316  0.2709 -0.3398
21252W        W36721   1.207  15.194   1.204  0.1958  0.1864  0.2031
21253W        W36722  11.683   4.550   3.737  0.0050 -0.0163  0.0810
21254W        W36723  13.235  17.509  14.310  0.2753 -0.0197 -0.1160
21255W        W36724   9.187   4.502  14.822  0.0205 -0.1556  0.0321
21256W        W36725   7.359  15.903   4.433 -0.1348 -0.3258  0.0716
21257W        W36726   6.267  14.800  13.702 -0.2455 -0.0656 -0.1432
21258W        W36727   9.102  13.334  11.494 -0.2729 -0.0254 -0.0735
21259W        W36728   2.481   7.817  12.113  0.0534  0.3029  0.2226
21260W        W36729  14.002  13.324  15.535  0.2398 -0.1020 -0.1331
21261W        W36730  17.103   6.703   0.188 -0.0798 -0.1035  0.4285
21262W        W36731   3.924  14.155  12.508  0.3306 -0.1861 -0.1027
21263W        W36732   5.111  17.973   5.427  0.0639 -0.0586 -0.2970
21264W        W36733  10.903  13.713  14.800 -0.0252  0.1832  0.1864
21265W        W36734   8.021   6.371   0.283  0.1377 -0.0262  0.0174
21266W        W36735   2.627  15.545   1.515 -0.0061 -0.1303  0.0875
21267W        W36736  14.069   7.292   1.196 -0.2123  0.0641 -0.4532
21268W        W36737   4.736  10.040  11.362 -0.0883 -0.1081 -0.0602
21269W        W36738  16.277  10.465  16.381  0.0959  0.2409 -0.0205
21270W        W36739   3.004  11.250   3.505  0.3274  0.1701  0.2819
21271W        W36740   4.461   6.617  13.501  0.2259  0.0250 -0.0017
21272W        W36741   0.171   1.872  14.906  0.0446  0.1332  0.0560
21273W        W36742  12.002   0.308   2.793  0.1752  0.1300 -0.1141
21274W        W36743  13.436   9.993  15.853  0.0805 -0.0107 -0.1114
21275W        W36744   4.277   7.814   4.666  0.3468 -0.1449 -0.0962
21276W        W36745   6.972   3.424   3.293  0.2328  0.0236 -0.2577
21277W        W36746  13.161  14.935  16.223 -0.2260  0.3699  0.2061
21278W        W36747   9.772   8.536   0.854  0.0034 -0.3630  0.0523
21279W        W36748   3.550   2.316  12.283  0.2195 -0.1026 -0.0151
21280W        W36749  13.542   7.792   4.954  0.3597 -0.2563 -0.0466
21281W        W36750   4.186   9.035   2.824 -0.2956 -0.0161 -0.0742
21282W        W36751  16.325   0.254  13.844  0.1811  0.2589  0.1374
21283W        W36752   8.689   1.121   1.015 -0.0112  0.1771 -0.1238
21284W        W36753   3.004   5.028   0.993  0.3430  0.0871 -0.1045
21285W        W36754   1.882  17.280   5.529  0.0126  0.2693  0.2809
21286W        W36755  14.408  16.448   6.779  0.1102  0.0485 -0.2535
21287W        W36756   3.157   8.727  12.605  0.2141  0.1314 -0.0488
21288W        W36757   5.411   3.957  13.893 -0.0748 -0.1084 -0.0653
21289W        W36758   2.032   5.856   2.527  0.0590 -0.2069  0.1338
21290W        W36759   1.522   0.253   5.569 -0.2513  0.2189  0.0866
21291W        W36760   4.656  12.264  15.195 -0.4146 -0.1512  0.4013
21292W        W36761   4.259   5.984   2.890 -0.0022 -0.1342  0.1238
21293W        W36762   3.917   6.241   2.425  0.1027  0.4753  0.0682
21294W        W36763   6.237  15.115   3.836 -0.5262  0.1835 -0.0079
21295W        W36764   1.770  16.327   3.904  0.2433 -0.2191 -0.3032
21296W        W36765   3.332   6.408  14.143  0.0659 -0.0316 -0.0348
21297W        W36766  14.130   6.910  13.067  0.2799  0.2915 -0.0408
21298W        W36767   3.637   4.222  12.130  0.2933 -0.2227 -0.1208
21299W        W36768  14.529   7.888   4.156 -0.2748 -0.0281  0.1635
21300W        W36769  14.219   6.128   2.956 -0.3515  0.0642 -0.0717
21301W        W36770  16.131   2.677  12.718  0.1605 -0.0907 -0.0412
21302W        W36771   0.743   1.225   3.356 -0.2389 -0.3718 -0.2754
21303W        W36772   9.951  16.038  14.051  0.0737 -0.2188  0.3330
21304W        W36773  15.556   3.667  16.419  0.1499 -0.1785  0.0210
21305W        W36774  10.668   3.267   1.691 -0.0058 -0.0562  0.1810
21306W        W36775  11.655   6.472   5.043  0.3111 -0.3506 -0.0685
21307W        W36776   4.928  17.818  15.411  0.3292  0.2846 -0.0203
21308W        W36777  11.066   0.487  12.710 -0.1213 -0.2149  0.2874
21309W        W36778  11.282  11.280  15.510 -0.2330 -0.0040 -0.3863
21310W        W36779  11.715  15.237  12.772  0.1275  0.0543 -0.0979
21311W        W36780  14.813  17.861  12.651 -0.1200 -0.2966 -0.1899
21312W        W36781   0.689   2.420  10.626  0.3846  0.1677  0.1305
21313W        W36782  14.386  16.326  14.842 -0.0729 -0.0948 -0.0962
21314W        W36783   8.202  12.840  13.865 -0.1888 -0.1367 -0.0728
21315W        W36784  11.251  11.132   4.430  0.0851 -0.0060  0.1205
21316W        W36785  16.063  17.401   0.875  0.2299 -0.1040 -0.2390
21317W        W36786   6.792   5.831   5.970  0.2155 -0.1012 -0.1270
21318W        W36787  14.503   9.809   1.158 -0.1633  0.0415 -0.1528
21319W        W36788  10.450  16.152  16.003  0.0677  0.1897 -0.1769
21320W        W36789   5.353   4.907  13.907 -0.0671  0.0644 -0.2580
21321W        W36790  11.161  10.317   3.445 -0.1621 -0.2310  0.1843
21322W        W36791  16.141  12.289  11.978 -0.3565  0.3454  0.0860
21323W        W36792  15.169   1.478   1.574  0.2220  0.2111  0.2645
21324W        W36793   3.779   4.771  13.592 -0.0116 -0.1402 -0.1426
21325W        W36794   7.949   9.174   2.110  0.0304  0.0203 -0.0185
21326W        W36795  10.576   0.575  12.577  0.4216  0.1029 -0.0768
21327W        W36796  11.380  14.851   4.550  0.0480 -0.0605 -0.1641
21328W        W36797   1.063   8.273   2.001  0.1341  0.0393  0.0933
21329W        W36798  14.303   4.502   5.326  0.0054 -0.3180  0.1658
21330W        W36799  11.422   1.121   1.258 -0.0062  0.1750  0.2521
21331W        W36800  16.692   2.989   0.664  0.1199 -0.0425 -0.0907
21332W        W36801   6.170   3.509  13.365 -0.0920 -0.0011 -0.0213
21333W        W36802  12.117   8.273  15.374 -0.1651 -0.0294  0.0003
21334W        W36803  17.919  15.961   1.856  0.1481  0.0575  0.0839
21335W        W36804   4.016  13.114   3.978  0.0885  0.0646 -0.0139
21336W        W36805   5.275  15.422   1.766 -0.1183 -0.0075  0.0954
21337W        W36806  14.296   3.500   3.970 -0.3140 -0.0640  0.2464
21338W        W36807   9.860  14.093   3.766  0.3342  0.3521 -0.0345
21339W        W36808   2.164   3.470   0.311  0.0700 -0.0211  0.2199
21340W        W36809   5.518   9.301   2.312  0.2085 -0.2276 -0.1042
21341W        W36810   0.492   9.776   3.167 -0.0011 -0.1494 -0.1874
21342W        W36811  16.984  11.818  14.461 -0.1955 -0.1817 -0.0983
21343W        W36812   5.015  15.373  14.075 -0.0192 -0.1670  0.2603
21344W        W36813   6.237   3.052  11.996  0.1240 -0.0443  0.0901
21345W        W36814   2.407  12.300  13.638  0.2180 -0.1107 -0.0455
21346W        W36815  12.882   3.532   5.630  0.3199  0.4574 -0.2423
21347W        W36816   2.444   2.015  14.241 -0.3526 -0.2962 -0.0366
21348W        W36817   3.984   0.678   3.811 -0.4521 -0.0373  0.0593
21349W        W36818   1.953   9.676   4.266  0.1443  0.0459  0.1743
21350W        W36819  12.190   5.058  14.577 -0.2290  0.3647  0.3746
21351W        W36820   8.345  13.801   3.870  0.1399 -0.2460 -0.2502
21352W        W36821   2.315   0.812   3.725 -0.3750  0.0005  0.1128
21353W        W36822   2.646   9.607  14.263  0.0258 -0.0914 -0.3908
21354W        W36823  11.934   0.600   4.759 -0.1017 -0.0563 -0.1987
21355W        W36824   8.043  12.834   5.546  0.0909 -0.0368  0.1772
21356W        W36825   2.684   3.604  14.735  0.1517  0.1301 -0.0647
21357W        W36826   5.469   5.335  13.598  0.1707 -0.1479 -0.0137
21358W        W36827   3.332  11.241  14.651  0.2911  0.2551 -0.0175
21359W        W36828   8.668   0.720   3.169 -0.0358  0.0431  0.0753
21360W        W36829  16.036   5.271  16.144 -0.1746  0.5075 -0.3850
21361W        W36830  14.103   6.927   2.549 -0.0450 -0.0934 -0.2046
21362W        W36831   7.996  15.616   3.529  0.3102 -0.1470  0.0031
21363W        W36832   7.948  12.049   0.867 -0.1644  0.0608  0.1063
21364W        W36833   1.499  17.166  12.520 -0.2166  0.1037 -0.0448
21365W        W36834  12.347   8.494   5.109  0.1537  0.0649 -0.3770
21366W        W36835  10.727  15.292  16.562  0.2933  0.5218  0.2917
21367W        W36836  17.525  16.575  15.736 -0.1254 -0.0401  0.2407
21368W        W36837   5.552   2.916   2.826 -0.0665 -0.1348  0.0898
21369W        W36838   7.541   6.534  12.466 -0.0628  0.1811 -0.0212
21370W        W36839   5.728  12.705   0.468  0.0651 -0.0845 -0.0109
21371W        W36840   6.601   2.193  15.876 -0.2067  0.1347 -0.0839
21372W        W36841   8.844  12.873   3.511  0.2104  0.1073  0.0161
21373W        W36842   8.204   6.891   3.212 -0.0765  0.0756 -0.4957
21374W        W36843   8.343   9.490  12.497  0.2566 -0.0176 -0.0050
21375W        W36844   0.176  12.079  12.889  0.3448 -0.3091  0.0107
21376W        W36845  13.353   2.233   3.347  0.1388  0.1179  0.2241
21377W        W36846  10.208   5.583  14.530 -0.2757 -0.0518  0.0634
21378W        W36847  13.688  15.612  15.607 -0.3436  0.1581 -0.1749
21379W        W36848  15.020   6.407   3.069  0.1927 -0.1306  0.2010
21380W        W36849   5.680  10.327   3.784 -0.0126 -0.1849 -0.5045
21381W        W36850   1.142  17.056   4.131  0.0080  0.0320 -0.0984
21382W        W36851   6.027  17.789  16.259  0.2809 -0.1692  0.0398
21383W        W36852   1.201  11.395  14.021  0.3695  0.4780 -0.0343
21384W        W36853  12.437   6.884   0.027 -0.0222 -0.2279 -0.0295
21385W        W36854   3.806   2.165  14.872 -0.2872 -0.0370 -0.1361
21386W        W36855   6.488   1.852  13.543  0.3088  0.1056 -0.0112
21387W        W36856   1.968   0.118   4.032 -0.1177 -0.1856 -0.1090
21388W        W36857  11.433   5.444  16.406 -0.2706 -0.0786  0.0618
21389W        W36858  11.840   4.594   5.446  0.1225  0.0906 -0.1447
21390W        W36859   4.959  14.402  15.112 -0.1430 -0.0638  0.1587
21391W        W36860   3.113   8.818  16.047  0.0948 -0.1044 -0.0330
21392W        W36861  17.701   2.840  13.913 -0.0081  0.1491  0.2311
21393W        W36862   2.801   5.758  11.939  0.0553  0.3125 -0.0033
21394W        W36863  13.176   3.834  16.269  0.0116  0.3900 -0.2403
21395W        W36864   2.563   2.302  12.207 -0.0190  0.0372  0.3389
21396W        W36865  14.958   7.259  14.335  0.1850  0.3969 -0.1581
21397W        W36866   5.287   0.835   2.852  0.0913  0.1237  0.0708
21398W        W36867   2.296  13.507  13.940  0.1146 -0.0506  0.0696
21399W        W36868   2.000   3.189  13.419  0.0858 -0.0787  0.0412
21400W        W36869   6.467  12.393  16.559 -0.1986 -0.0836 -0.0036
21401W        W36870  12.016   0.125  16.464  0.1840  0.1006 -0.0199
21402W        W36871  12.775   8.680   4.783  0.0983  0.1515  0.0634
21403W        W36872   1.108   5.465   0.507  0.0504 -0.0827 -0.2005
21404W        W36873  12.233  12.707  15.442  0.0925 -0.1401  0.3646
21405W        W36874   9.155   9.705   2.417  0.0760 -0.1419  0.1405
21406W        W36875   7.648  12.528   4.592 -0.2060 -0.0889 -0.4020
21407W        W36876   4.996  13.129  14.358  0.0628  0.0440 -0.0872
21408W        W36877  17.190   6.751   1.580  0.1416  0.0000 -0.0087
21409W        W36878  16.103  16.688   6.380 -0.0031  0.0040 -0.0093
21410W        W36879   2.970  11.699  12.779 -0.1585  0.0435 -0.0701
21411W        W36880   6.447  16.338   4.570  0.2126  0.1495  0.0639
21412W        W36881  17.436   6.831  14.920  0.1920  0.0836  0.2489
21413W        W36882  17.293   1.418  15.733  0.1632 -0.0442  0.0179
21414W        W36883   5.772   0.225   5.921 -0.2826  0.3135  0.0065
21415W        W36884   5.410  13.966   0.878  0.3091 -0.1018 -0.1754
21416W        W36885  11.143   1.524  12.596  0.1637 -0.1806  0.1181
21417W        W36886  11.739  12.353  15.297 -0.2024 -0.0022  0.1079
21418W        W36887  14.431   4.150  12.483  0.0388 -0.1063  0.1425
21419W        W36888   6.725   5.304   0.537 -0.3268  0.0832  0.1133
21420W        W36889   7.549  17.424  15.063  0.0170  0.2138  0.1534
21421W        W36890  10.524   6.220  16.429  0.0250  0.0588 -0.1660
21422W        W36891   5.786   3.769   3.233  0.2276 -0.1736  0.0876
21423W        W36892  10.612   7.403  13.125  0.1616  0.1090  0.2343
21424W        W36893   8.177  15.285   5.545 -0.0803  0.3023 -0.0604
21425W        W36894   0.465   9.713  13.529  0.2717 -0.1112  0.1426
21426W        W36895  15.341   2.898   1.464  0.3818  0.0054 -0.1195
21427W        W36896   5.674  12.639  15.924  0.0629 -0.2469  0.2006
21428W        W36897  13.298  10.263  10.704 -0.1070  0.0938  0.0375
21429W        W36898   7.407   6.212   0.703 -0.1234  0.0738  0.1232
21430W        W36899   4.326   7.570  13.958 -0.2642  0.0394 -0.0338
21431W        W36900  15.338   1.129   2.002  0.0471 -0.3433  0.0071
21432W        W36901   2.302   7.826  10.998 -0.1652 -0.0575 -0.4052
21433W        W36902   5.034  10.336  12.400  0.0015 -0.1269 -0.3611
21434W        W36903   6.668  16.538   5.070 -0.2051  0.0547 -0.0092
21435W        W36904  10.039  13.670  14.487  0.1197  0.2283  0.1114
21436W        W36905   4.212   5.700   1.111 -0.1061  0.2050 -0.0304
21437W        W36906   9.061  11.047   2.292 -0.0011  0.0497 -0.1227
21438W        W36907   7.657   8.844   3.741  0.3481 -0.0918 -0.1972
21439W        W36908  17.374   7.504   0.702 -0.2738  0.0403  0.0164
21440W        W36909  12.987   3.236  13.018 -0.1712  0.0216  0.2312
21441W        W36910   6.025  10.464   1.581  0.0298 -0.0034  0.1982
21442W        W36911   0.080   5.819  11.769  0.0846 -0.2496 -0.0340
21443W        W36912   1.290   7.079   4.623  0.1180  0.0112 -0.0195
21444W        W36913  13.817  14.508   1.857  0.2665  0.1311  0.1714
21445W        W36914  10.548  16.936  13.329  0.0988  0.1456  0.1695
21446W        W36915  16.757  16.758   4.712  0.1571  0.0904 -0.1227
21447W        W36916   2.663   6.892  14.782 -0.0180  0.0010 -0.0219
21448W        W36917  17.350   5.415   1.235  0.3771  0.1435  0.0356
21449W        W36918  11.226   7.876  11.654  0.0267  0.0295  0.0891
21450W        W36919   7.766   0.633   0.907  0.1802 -0.0454  0.0257
21451W        W36920   6.181  10.649  14.109  0.3781  0.0435 -0.3003
21452W        W36921  17.387   8.124  13.355  0.0102  0.0055  0.2112
21453W        W36922   6.501   4.416   4.735  0.0938 -0.0979 -0.0255
21454W        W36923   4.466  13.144   4.353  0.4558 -0.2398 -0.2225
21455W        W36924   7.200   5.104  12.543  0.1478 -0.1040 -0.1926
21456W        W36925   9.854  16.128  16.045 -0.2307 -0.0255 -0.1283
21457W        W36926   2.805   3.132   4.600 -0.1281  0.1701  0.0987
21458W        W36927   9.879  12.720  14.538  0.2689 -0.1884 -0.0454
21459W        W36928  12.963  16.487  11.736  0.2905 -0.1003 -0.0952
21460W        W36929  17.164  11.512  13.434  0.2013 -0.3691 -0.0206
21461W        W36930  17.659  14.381   1.535  0.2746  0.1776  0.0990
21462W        W36931   0.130  13.695   2.332 -0.0258  0.2013  0.2758
21463W        W36932   4.137   5.033   1.754 -0.2314 -0.1263  0.1183
21464W        W36933   2.545   5.340  12.242  0.1515 -0.2848 -0.2886
21465W        W36934  12.958   6.968  16.304 -0.3152  0.0082  0.0016
21466W        W36935  12.661  11.317   1.610 -0.1328  0.0318 -0.3508
21467W        W36936  17.141  14.311  13.645 -0.2770 -0.0988  0.0709
21468W        W36937   0.145  11.269   0.952 -0.3108 -0.2649 -0.0003
21469W        W36938  13.723   9.423   1.078 -0.1909  0.2291 -0.1212
21470W        W36939   1.239  16.096   2.945 -0.0980 -0.0023 -0.0345
21471W        W36940  10.051  16.833  12.044  0.0044  0.0358  0.1010
21472W        W36941  10.629  14.277   4.567  0.1058 -0.1766  0.0122
21473W        W36942  13.753   9.091  12.749  0.0929  0.2287  0.0628
21474W        W36943   9.533  10.107   4.925  0.1342  0.1693  0.2275
21475W        W36944  12.768   9.479  13.670 -0.2380 -0.0355  0.3301
21476W        W36945   8.206  12.868   0.870 -0.0847 -0.2390  0.0938
21477W        W36946  15.353  16.615  14.039  0.1018  0.1035  0.0756
21478W        W36947   0.801   5.124   0.717 -0.2537 -0.1726 -0.2008
21479W        W36948   2.121  16.227  16.045 -0.0679  0.0852  0.2665
21480W        W36949  13.182  17.155   3.992 -0.0475 -0.2951  0.1852
21481W        W36950  12.453   7.721  14.817 -0.0913 -0.0491 -0.2361
21482W        W36951  10.854  14.898   0.277 -0.1166  0.0732 -0.1155
21483W        W36952   8.555   9.703  12.038 -0.0730 -0.1923 -0.2150
21484W        W36953  14.130   6.548   5.152  0.2195 -0.1778 -0.2439
21485W        W36954  13.277   5.743  14.297 -0.2557  0.0741  0.0812
21486W        W36955   7.890  10.787  15.218  0.1224  0.1640  0.0200
21487W        W36956  14.350   8.972   0.628 -0.0469  0.0816 -0.4804
21488W        W36957  16.220  14.115   3.695  0.0516  0.2419  0.1888
21489W        W36958   2.219  10.465   0.133  0.0056 -0.1367 -0.0696
21490W        W36959  16.776  17.352  14.078  0.0969  0.0018  0.0420
21491W        W36960  17.808   1.960   4.424  0.3224  0.2090 -0.0291
21492W        W36961  14.348   7.304  11.795 -0.4024  0.1080  0.1990
21493W        W36962   1.210   4.063   4.052  0.2302 -0.3915  0.0069
21494W        W36963  15.608   1.551   2.778  0.0128  0.2986  0.0746
21495W        W36964  16.000   0.707   4.176 -0.1965  0.1531  0.2387
21496W        W36965  11.734   7.908  11.584 -0.0874 -0.0514  0.2371
21497W        W36966   7.442  14.474   0.646  0.2060  0.0648 -0.0144
21498W        W36967   1.373   8.147   0.757  0.0221  0.0907 -0.1978
21499W        W36968   1.251  11.406   1.868 -0.0113  0.2253  0.0263
21500W        W36969   4.151   5.927  11.668  0.1305  0.0762  0.2590
21501W        W36970   2.583   3.248   6.278 -0.0506  0.0162 -0.0797
21502W        W36971  16.931   6.353  12.482 -0.1924 -0.2436  0.1527
21503W        W36972  10.325   5.796  13.746  0.0015  0.0743 -0.1692
21504W        W36973   1.797  17.993  12.350 -0.0595 -0.1896  0.1590
21505W        W36974  10.465  10.253  12.648  0.0837 -0.2566  0.0201
21506W        W36975  11.923  16.051  16.540 -0.0953 -0.1104  0.1779
21507W        W36976  15.352   1.068   5.141  0.2599 -0.3194 -0.2043
21508W        W36977   5.606   7.336   4.549  0.1924 -0.1251  0.0129
21509W        W36978  13.093  15.098   3.408 -0.5811  0.1017  0.2911
21510W        W36979   5.442  10.591   0.783 -0.0878  0.1265 -0.0321
21511W        W36980   5.907  15.437  16.502 -0.2070 -0.0067 -0.0262
21512W        W36981   7.659  11.171   5.084  0.2236 -0.0507  0.0131
21513W        W36982  17.169   3.228  13.444  0.2368 -0.1812 -0.0968
21514W        W36983   8.188  17.684  14.446  0.1224 -0.2876 -0.0290
21515W        W36984   4.944  17.937   1.816  0.0903 -0.0269 -0.2914
21516W        W36985  10.085  11.349   3.141 -0.1560 -0.0807  0.0649
21517W        W36986  14.268   9.695  12.120 -0.0878 -0.2487  0.0136
21518W        W36987   1.399   8.720   4.741  0.2532  0.4504  0.0788
21519W        W36988  13.741  17.989   4.524 -0.1097 -0.2435 -0.2370
21520W        W36989   7.662  17.105   5.798 -0.3042  0.0703  0.1542
21521W        W36990  17.668  16.037   2.668 -0.0253 -0.1638 -0.0570
21522W        W36991   3.178  10.629  11.196  0.1227 -0.1235  0.2276
21523W        W36992   4.678  10.831  12.626 -0.1184 -0.0111 -0.0523
21524W        W36993  14.198  11.461   4.977 -0.2984 -0.1182  0.0516
21525W        W36994  11.989  14.831  11.725  0.1894 -0.2653 -0.0413
21526W        W36995   4.922  16.957  15.873 -0.0281 -0.1331  0.0176
21527W        W36996  14.953  12.404  13.477 -0.5256 -0.2270 -0.2884
21528W        W36997   3.939  14.935  12.267 -0.5460  0.0642  0.2383
21529W        W36998  11.170  10.825   5.298 -0.0827  0.1574  0.0078
21530W        W36999   0.407   7.720   3.435 -0.0404 -0.1640 -0.0775
21531W        W37000   2.552   9.996   2.663  0.2595  0.2761  0.0132
21532W        W37001   5.775   4.924  15.928  0.1049  0.1904  0.0487
21533W        W37002  11.406   7.971  11.199  0.2287  0.1689  0.0070
21534W        W37003  11.016   9.644  14.968  0.0885  0.3185  0.2654
21535W        W37004  10.869   7.363  13.960 -0.1824  0.1387 -0.1488
21536W        W37005   9.501   1.086   1.577 -0.0006 -0.0263  0.3544
21537W        W37006   7.526  17.853   1.238 -0.0868 -0.3652 -0.1015
21538W        W37007  10.005   8.844  14.986 -0.2537  0.1122 -0.0075
21539W        W37008   8.339  14.750  16.185 -0.0171 -0.2484  0.2417
21540W        W37009   9.817   4.692   2.541  0.2622  0.1036 -0.3215
21541W        W37010   3.517   2.509  15.668  0.0134  0.2516  0.1314
21542W        W37011   8.568  14.040  13.396  0.1028  0.0621  0.0456
21543W        W37012   4.495  15.296  12.380  0.0595 -0.1394 -0.0386
21544W        W37013  14.395   3.175  13.126  0.1162  0.0932  0.0524
21545W        W37014   5.145   8.517   3.407 -0.0022  0.2310  0.0890
21546W        W37015  13.477   0.884   5.555 -0.1730  0.0394 -0.2495
21547W        W37016  16.062  16.193   0.666  0.1243  0.0275  0.0103
21548W        W37017  12.956   7.974  10.370  0.2815  0.3804  0.0410
21549W        W37018   1.797   7.985  13.064  0.0106  0.3821 -0.2141
21550W        W37019   5.054  16.283  13.486  0.0477  0.2315 -0.1314
21551W        W37020   5.752  17.300  12.782 -0.1220  0.0066  0.2749
21552W        W37021  14.893   8.860  16.393  0.1444  0.1950  0.1735
21553W        W37022  10.490   4.503   4.752 -0.3586 -0.1046 -0.2600
21554W        W37023  13.078   8.006   5.282  0.1180  0.2899  0.1995
21555W        W37024   0.503   9.863  13.072  0.1919 -0.4621  0.0884
21556W        W37025   9.137   5.217  16.041 -0.1254 -0.1049 -0.0022
21557W        W37026   1.472   0.976   3.232  0.1014  0.2011 -0.2019
21558W        W37027   2.390  15.917   5.068  0.2348  0.0278 -0.2428
21559W        W37028   0.333  13.190  11.347  0.0545 -0.1168 -0.1260
21560W        W37029  12.178  12.737   5.597 -0.2008  0.0526  0.0245
21561W        W37030   5.354   6.575  12.675 -0.2576  0.3461 -0.0674
21562W        W37031  16.620   3.393  14.401 -0.1167 -0.0700 -0.2777
21563W        W37032   6.933  14.446   1.585 -0.1117  0.3925 -0.0985
21564W        W37033   7.344  10.700   4.267 -0.1510  0.1687  0.2281
21565W        W37034  10.991   1.175   3.804  0.0791  0.3069 -0.4417
21566W        W37035   5.744   9.119   3.818  0.0395 -0.0648 -0.1711
21567W        W37036  14.944   3.945  14.111 -0.3928 -0.0831 -0.3060
21568W        W37037  16.665   9.581   0.282  0.3224 -0.2299  0.1216
21569W        W37038  15.400   5.522  12.989  0.2157 -0.1806  0.1662
21570W        W37039   1.655  14.660   1.714  0.2308  0.1042  0.2100
21571W        W37040   7.356  10.435   1.012 -0.1341  0.1230  0.3154
21572W        W37041   0.535  12.129  13.254 -0.4067 -0.2939 -0.1289
21573W        W37042  16.368  10.541  13.303 -0.1492 -0.1920  0.0369
21574W        W37043   5.188   3.430   0.204 -0.0561  0.1417  0.2239
21575W        W37044   5.241   3.690   3.373 -0.1929  0.1362  0.2244
21576W        W37045   9.280   2.585   0.410  0.1289  0.0146 -0.0943
21577W        W37046   6.912   0.601   5.216 -0.0308  0.0289 -0.0665
21578W        W37047  13.291  12.539   6.353  0.0426 -0.0894  0.1058
21579W        W37048   8.376   1.002  11.471  0.0947 -0.1423  0.2220
21580W        W37049   8.478  14.865   5.473 -0.2738  0.0119  0.1193
21581W        W37050   9.087  17.991  13.614  0.1196  0.0100  0.2074
21582W        W37051  11.033   5.571  16.085 -0.0306 -0.1808 -0.4058
21583W        W37052   0.285  14.660   0.046 -0.1141 -0.1955 -0.3238
21584W        W37053  15.550   2.029   1.045 -0.2145 -0.0434  0.1648
21585W        W37054   2.931   1.107  16.028 -0.1047 -0.2524 -0.2192
21586W        W37055  17.970   1.548  15.827  0.0752 -0.2279 -0.0684
21587W        W37056   7.776  13.736   0.598 -0.3193  0.0557 -0.1055
21588W        W37057   5.264   0.348  16.098 -0.1289  0.1163  0.2098
21589W        W37058   9.917  12.089   4.771  0.1891 -0.0168 -0.0291
21590W        W37059  13.389  11.073   3.069 -0.0592 -0.0155 -0.2804
21591W        W37060   8.671   8.683   3.180 -0.0190 -0.3971  0.0842
21592W        W37061  16.415   0.653  16.304 -0.0228  0.0223 -0.1857
21593W        W37062   7.543  10.838  11.131  0.2326 -0.0659  0.2019
21594W        W37063  10.654   5.250   3.220 -0.1020  0.0696 -0.4246
21595W        W37064  12.991   8.255   1.357  0.2916 -0.1815  0.1953
21596W        W37065   9.061   3.578  12.225 -0.0791  0.0445 -0.0805
21597W        W37066   9.362  15.965   1.068  0.0960  0.1935  0.1118
21598W        W37067   6.109  11.177   0.999  0.2701  0.1064 -0.0732
21599W        W37068  11.904  12.738  12.010  0.3456 -0.0619 -0.2018
21600W        W37069   6.903   0.925  14.924  0.1216 -0.0443  0.0860
21601W        W37070  15.751  17.541  15.007 -0.1593  0.3322  0.0528
21602W        W37071   1.180  10.662  11.225 -0.0945  0.0615 -0.0867
21603W        W37072   9.946   5.141  15.774  0.1123  0.0116 -0.1639
21604W        W37073   8.817   9.959   2.670  0.3914 -0.0703 -0.0811
21605W        W37074   6.685  17.316   4.762 -0.2088 -0.1205  0.0331
21606W        W37075   4.837   8.786   1.105  0.1887 -0.1265  0.0484
21607W        W37076  11.453   8.819  12.570  0.0312 -0.0337 -0.1501
21608W        W37077  10.325   3.159  12.843  0.1599 -0.0990 -0.1958
21609W        W37078  13.395   9.873  15.389  0.2308  0.2097 -0.0025
21610W        W37079   6.507  17.849   4.846  0.0282 -0.2464 -0.2203
21611W        W37080  15.360  11.195   1.509 -0.2778 -0.0144 -0.0877
21612W        W37081   8.048  10.712  13.725  0.0347  0.0311 -0.2277
21613W        W37082   6.981   1.159   5.227 -0.0681  0.1400  0.1632
21614W        W37083   2.291  15.964   4.028 -0.1312  0.1145 -0.0575
21615W        W37084   7.164   2.782  12.987 -0.1145 -0.0721  0.0202
21616W        W37085  16.425   3.269   6.116 -0.0029 -0.1029  0.1466
21617W        W37086  10.736   6.938  13.118 -0.1317  0.0364  0.0256
21618W        W37087   7.801  12.612   0.605 -0.2639  0.0622  0.1185
21619W        W37088   2.505   5.209   2.957  0.1532  0.0432  0.1425
21620W        W37089   2.780  13.316  14.857  0.0843  0.0516  0.0265
21621W        W37090  10.745  15.817  13.714 -0.0870 -0.3638  0.1249
21622W        W37091   9.440  13.988   2.029  0.2133  0.2172  0.1947
21623W        W37092  16.079  16.008  13.386 -0.2255  0.1188 -0.2546
21624W        W37093   2.785   6.625   4.678  0.2357 -0.2697 -0.0343
21625W        W37094  14.900  16.922  12.762  0.2358  0.0952 -0.1500
21626W        W37095   1.040   1.714  14.320  0.0768  0.0458 -0.1962
21627W        W37096  15.909  10.633   2.216 -0.2254 -0.0589 -0.1018
21628W        W37097  16.332   5.596   2.806  0.2215  0.0572 -0.2647
21629W        W37098   1.126   1.261  16.455  0.0093  0.0171 -0.1780
21630W        W37099  13.347   6.753   4.834  0.3051 -0.1950  0.1049
21631W        W37100   6.108  12.141   4.196  0.0042 -0.2789  0.3031
21632W        W37101   9.770  11.361  14.464 -0.0048 -0.1411  0.0204
21633W        W37102  15.876   1.172  13.103  0.1284  0.0534  0.0769
21634W        W37103   6.105   0.928  11.149 -0.1494  0.3179 -0.1632
21635W        W37104   2.529  13.494  13.476 -0.0185 -0.1346 -0.1568
21636W        W37105  17.424   9.505   0.719 -0.1365 -0.1605 -0.0401
21637W        W37106  17.322   5.725   3.574 -0.1061  0.3265 -0.0639
21638W        W37107  12.080   7.477   4.187 -0.0085  0.1825 -0.1880
21639W        W37108  13.562   0.162  13.059 -0.1016 -0.0189 -0.0071
21640W        W37109   4.747   2.482   4.736 -0.1026 -0.0048 -0.0171
21641W        W37110  16.477   4.297   5.090  0.1181 -0.0696 -0.1270
21642W        W37111   2.469   3.304  13.725 -0.3541  0.0602  0.1714
21643W        W37112   0.345   6.783   0.801 -0.1104 -0.0429 -0.1231
21644W        W37113  13.769   1.941  15.689 -0.2265  0.1523 -0.2627
21645W        W37114   7.334  16.893  10.862  0.1376 -0.2780 -0.1733
21646W        W37115   6.062  16.716  14.145 -0.1697 -0.3749 -0.0005
21647W        W37116   6.654   5.131  14.664  0.2027 -0.1284  0.4396
21648W        W37117   4.013  11.870   2.634  0.1028 -0.4915 -0.0571
21649W        W37118   2.163  10.468  14.586  0.1512 -0.1490 -0.6349
21650W        W37119  12.789   5.964   1.704 -0.0435 -0.4688  0.2194
21651W        W37120   9.903   9.646  12.666 -0.3848 -0.0796 -0.1038
21652W        W37121  16.674   8.038  13.356  0.1495  0.0981 -0.1812
21653W        W37122  10.698  10.227  16.444 -0.0396 -0.1229  0.0837
21654W        W37123   7.672   5.459   0.401  0.0298  0.0582 -0.1097
21655W        W37124  13.909   7.363   3.020  0.0039  0.0639  0.2976
21656W        W37125   7.308  11.808   1.643  0.1184  0.1326  0.2633
21657W        W37126  10.089   4.176   0.885  0.0257  0.0860 -0.2270
21658W        W37127  11.427   4.268   3.335 -0.2037 -0.0659 -0.0654
21659W        W37128   0.487  11.555   0.598 -0.2893  0.1803 -0.1575
21660W        W37129   1.827  12.301  13.430 -0.1716  0.0529  0.1671
21661W        W37130   8.467   3.972  13.168 -0.1163  0.0829  0.3010
21662W        W37131   8.725  10.828   3.129  0.1663  0.1992 -0.3623
21663W        W37132   0.370  17.667  16.080 -0.0223 -0.3055  0.0532
21664W        W37133  16.442  12.620  12.217  0.0579  0.0179 -0.1254
21665W        W37134  11.705  10.885   4.507  0.0578  0.0440  0.2420
21666W        W37135  12.708   9.203   3.583 -0.2319 -0.0782  0.2289
21667W        W37136   4.203  13.611   3.678  0.0954  0.0277  0.0500
21668W        W37137   1.189  10.629  10.600  0.0681 -0.2755 -0.1116
21669W        W37138   0.976   1.359   5.603  0.0585  0.0494 -0.1434
21670W        W37139   9.145   9.273   4.453 -0.1237  0.0439  0.4350
21671W        W37140  12.290   9.344   2.506  0.1211 -0.0581  0.3775
21672W        W37141   3.479  12.674  14.620  0.2727  0.3220  0.2337
21673W        W37142   0.215  14.064  15.961  0.1909  0.2472 -0.1617
21674W        W37143  11.082   4.678   1.835  0.2319  0.0512 -0.0250
21675W        W37144  14.132  14.967   1.821  0.5176 -0.2870 -0.0339
21676W        W37145   5.337   9.109  14.470 -0.0369 -0.1806  0.2373
21677W        W37146   6.855  10.931  11.683  0.0045 -0.2111 -0.2267
21678W        W37147  10.812  13.551  13.880 -0.0661  0.0628 -0.2596
21679W        W37148   1.651   8.922  14.253 -0.0795 -0.0416 -0.0231
21680W        W37149   0.675  17.167   0.214 -0.0244  0.0684  0.0316
21681W        W37150   1.835   3.333   3.069  0.3551  0.0785  0.0863
21682W        W37151  10.458  15.305  14.482 -0.0428 -0.1444 -0.0321
21683W        W37152   1.337   0.313   1.969 -0.0325  0.0546 -0.0177
21684W        W37153  10.566   9.358   2.489 -0.1314 -0.1569 -0.3787
21685W        W37154  17.696  15.003  15.604 -0.0484 -0.0898  0.0771
21686W        W37155  14.134   8.177  11.623 -0.0433 -0.2672  0.0558
21687W        W37156   0.607  17.932   0.551 -0.2218 -0.0202  0.0766
21688W        W37157  16.720  16.410  12.748 -0.0702  0.1011  0.1787
21689W        W37158  17.229   4.378  14.428 -0.0489 -0.2184  0.1937
21690W        W37159   6.985  10.740  12.638 -0.2742 -0.1735 -0.2498
21691W        W37160  13.889  10.167   1.276  0.2305  0.1859 -0.2220
21692W        W37161   7.044  11.074  13.016 -0.1504 -0.0349  0.0894
21693W        W37162  10.002   6.012  13.342 -0.0210  0.1771 -0.1242
21694W        W37163  11.990   3.893  11.361 -0.0540  0.1489  0.4459
21695W        W37164  14.041   2.632   2.272 -0.0381  0.1202  0.0600
21696W        W37165  10.528  12.692  12.034 -0.2057 -0.2259 -0.0541
21697W        W37166   1.468   2.040   0.985 -0.0249 -0.2553  0.0134
21698W        W37167  17.518   1.786  12.891 -0.2763  0.1330  0.0336
21699W        W37168   3.706   6.750  14.053 -0.0533 -0.0990 -0.3192
21700W        W37169  17.987  17.645   5.434  0.3235  0.0892  0.2139
21701W        W37170  16.564  17.899  14.678 -0.0403  0.3263  0.1217
21702W        W37171  13.743   6.399   1.434  0.0703 -0.1259  0.1348
21703W        W37172   1.898   4.679   2.199  0.0577 -0.0536 -0.2837
21704W        W37173   4.356  17.192   1.253 -0.0619  0.0497  0.0975
21705W        W37174   2.603   5.262  13.223 -0.1192 -0.2438 -0.1371
21706W        W37175  12.619  13.652   3.067  0.0867 -0.0567  0.2780
21707W        W37176   6.025  16.713   3.137  0.0190 -0.1771 -0.1395
21708W        W37177  11.681   7.061  14.148 -0.0704  0.2305 -0.0217
21709W        W37178   5.246  16.387  16.084 -0.0827 -0.0336  0.3443
21710W        W37179  12.899   9.282  15.818  0.0357 -0.0860  0.2927
21711W        W37180  13.950   1.937   3.242 -0.2244 -0.0982 -0.4137
21712W        W37181  15.535  15.945  13.281 -0.1872 -0.2692 -0.1192
21713W        W37182  16.795  15.398  14.653 -0.0267  0.0214  0.1241
21714W        W37183   5.988   7.145   2.839  0.0015  0.4006  0.2385
21715W        W37184   8.394   0.274  15.843 -0.1929 -0.0807 -0.0886
21716W        W37185   3.270  13.879  13.907  0.1709 -0.1106  0.1846
21717W        W37186  12.884   4.647  10.089 -0.1618  0.0094  0.0965
21718W        W37187   0.283  17.594  10.819  0.1900 -0.1311  0.0969
21719W        W37188  17.652  11.941   3.125  0.2197 -0.0391 -0.1095
21720W        W37189   2.929  14.047   2.272 -0.0193  0.0338  0.0219
21721W        W37190  17.811   9.751   0.394 -0.1149 -0.1031  0.1672
21722W        W37191   5.411  11.590   3.658 -0.0659  0.3734  0.0659
21723W        W37192   5.226   2.749   0.001  0.0832 -0.5017  0.0037
21724W        W37193   1.973   0.791   2.423 -0.1493  0.0626  0.2123
21725W        W37194  16.612  14.739   3.404 -0.2113  0.1477 -0.1224
21726W        W37195   7.513  13.464   0.940  0.2902 -0.1259 -0.0007
21727W        W37196   7.723   0.651  16.144  0.1912 -0.3073  0.2357
21728W        W37197  10.481   4.296  12.026  0.0117 -0.1427 -0.1092
21729W        W37198   1.898   2.743   1.177 -0.3023  0.1227 -0.1688
21730W        W37199  10.160  10.971  12.274  0.0121  0.0626 -0.0553
21731W        W37200   1.779  16.022   1.101 -0.2323 -0.0316 -0.0633
21732W        W37201   3.257  16.898   3.442  0.3136 -0.2870  0.2402
21733W        W37202  13.775   7.245   0.811  0.1358  0.0854  0.2101
21734W        W37203  12.561   8.877  13.739 -0.0151 -0.0677  0.0532
21735W        W37204   5.305   4.476   2.309 -0.1239  0.2229 -0.0151
21736W        W37205   0.910  13.280   2.642  0.1962  0.1379  0.5236
21737W        W37206  13.286  17.205   6.136  0.2553 -0.0748 -0.2772
21738W        W37207  13.750  13.299  11.484  0.0864  0.0562 -0.2016
21739W        W37208  10.121   6.406   2.286  0.0998  0.0585  0.0457
21740W        W37209  17.793   7.849  13.434 -0.2278  0.1268  0.0688
21741W        W37210  12.042   7.280   0.016 -0.3752 -0.0759  0.2870
21742W        W37211   5.583  17.509  13.830 -0.1707  0.3681 -0.2410
21743W        W37212   0.292   8.648  15.576 -0.2373  0.4030  0.3309
21744W        W37213   2.983   8.895   3.506  0.1415  0.1544  0.2553
21745W        W37214  15.152   2.852   1.007  0.2171 -0.1211  0.0913
21746W        W37215  17.951  12.335  12.187 -0.0101 -0.4653  0.0119
21747W        W37216   0.012  13.317   0.775  0.0049  0.0576  0.0375
21748W        W37217   0.134   9.311   5.284  0.0524 -0.0719 -0.1898
21749W        W37218   8.871   2.392  12.260  0.1753 -0.0900  0.1026
21750W        W37219  11.957   4.255   3.328 -0.2202  0.1311 -0.0261
21751W        W37220   4.422  12.224   3.461 -0.1063 -0.1898  0.0037
21752W        W37221   4.607  10.392  11.886  0.1156  0.3791 -0.1609
21753W        W37222   6.427   8.480  14.962  0.2821  0.1295  0.1036
21754W        W37223  14.497  16.749  14.572  0.0493  0.0209  0.3942
21755W        W37224   3.327  13.631   4.700 -0.0978  0.2977  0.1382
21756W        W37225   1.604  11.108   0.079  0.1162 -0.3419 -0.2929
21757W        W37226   0.317   3.404  12.146  0.0466 -0.2157 -0.0604
21758W        W37227  11.713   5.350  10.413  0.0070  0.1280 -0.0867
21759W        W37228   8.553   4.219  12.636 -0.0670 -0.0009  0.0332
21760W        W37229   5.830  12.917  11.368 -0.1064  0.0271  0.0217
21761W        W37230  15.225   3.919   1.098  0.1099 -0.2473  0.0736
21762W        W37231  11.269  17.059  13.367 -0.2280 -0.5055 -0.0943
21763W        W37232  11.583  11.639  10.625 -0.2848 -0.2300 -0.0100
21764W        W37233  11.235  17.568   1.854  0.1064 -0.1097  0.1197
21765W        W37234   2.532   4.461  16.403  0.2536  0.0474 -0.0203
21766W        W37235   1.936  12.170  15.334 -0.0132  0.1392  0.3189
21767W        W37236  12.806   8.486  13.579 -0.3255  0.0578  0.4834
21768W        W37237   0.444   5.909  15.941  0.1679 -0.2613  0.1964
21769W        W37238   9.148   7.492  15.894 -0.0141 -0.0393 -0.0676
21770W        W37239   5.415   3.018   4.373  0.0212  0.1520 -0.0671
21771W        W37240   5.245   9.104   0.937 -0.2240  0.2593  0.2575
21772W        W37241   8.719   1.648  13.044 -0.1324 -0.1053  0.1893
21773W        W37242   8.770   8.978  15.932 -0.0404  0.1029  0.1529
21774W        W37243  16.417  16.579   3.387 -0.0166  0.1771  0.1283
21775W        W37244   4.508   4.626   4.010 -0.3242  0.0912  0.0631
21776W        W37245   1.086   7.971   1.103 -0.0381 -0.0658 -0.5255
21777W        W37246   1.957   3.198  12.868  0.0798  0.1065  0.2331
21778W        W37247   0.258  12.525   4.109 -0.2906 -0.2280 -0.0515
21779W        W37248   3.137   5.909   3.353 -0.1007  0.0359  0.1623
21780W        W37249  12.039   5.012  11.649  0.0798  0.1455 -0.0983
21781W        W37250   0.953   2.229   3.737 -0.2130  0.0562 -0.2179
21782W        W37251  15.518  17.009   3.399 -0.0214  0.0024 -0.2098
21783W        W37252   8.093   9.399  14.241 -0.1010  0.1075  0.1462
21784W        W37253  11.764  13.534  13.550  0.0073  0.0177  0.2388
21785W        W37254   4.897   2.705   2.254 -0.0534 -0.0501 -0.2168
21786W        W37255   4.794   6.245   2.969 -0.2053  0.3331 -0.1858
21787W        W37256   8.127   9.992   3.112 -0.2119  0.0351  0.0493
21788W        W37257  15.196   6.397  12.002  0.1473  0.0547 -0.0075
21789W        W37258  13.706   0.666  16.548 -0.1402 -0.0968  0.1551
21790W        W37259   2.666  13.486   4.842 -0.1564 -0.1440  0.2569
21791W        W37260  15.327  11.818  13.911 -0.0529  0.1202  0.0131
21792W        W37261  10.486   9.474   4.862 -0.1403  0.0188  0.1549
21793W        W37262  13.373   0.475  14.050 -0.1131 -0.0376 -0.1083
21794W        W37263   4.608   2.800  15.788 -0.2968 -0.0801 -0.1259
21795W        W37264  16.309   4.634  14.777 -0.0467  0.1420  0.4039
21796W        W37265   3.645   3.802   2.249  0.0273 -0.2921 -0.2917
21797W        W37266   7.466   4.709  13.135 -0.3669 -0.1066 -0.3048
21798W        W37267   6.817  14.248  14.496 -0.4233 -0.3976  0.1387
21799W        W37268   5.818  11.234  12.348  0.0484  0.5522  0.0629
21800W        W37269  14.451   7.449  14.140  0.0032 -0.0634 -0.1667
21801W        W37270   0.517  17.391  15.251 -0.0195 -0.1838 -0.0651
21802W        W37271   3.844   2.573   1.629 -0.0034  0.0734  0.2021
21803W        W37272  15.728  14.969  13.668 -0.0534 -0.2534  0.1117
21804W        W37273   9.243  15.288  14.239 -0.0553 -0.1826  0.0438
21805W        W37274   1.373   0.859  13.899 -0.1811  0.2407 -0.0755
21806W        W37275  15.345   7.478  14.054 -0.4887  0.2508  0.0123
21807W        W37276  17.736  14.898  16.388 -0.1365 -0.1572 -0.0821
21808W        W37277   1.595  16.052   2.559 -0.0051 -0.1886 -0.0370
21809W        W37278  14.154   3.494  14.219  0.1780  0.0121  0.0461
21810W        W37279   0.067   9.575   3.040  0.1172 -0.3161  0.3407
21811W        W37280  17.788  16.869  14.853  0.0719  0.1206 -0.0312
21812W        W37281   2.632  12.957  14.556  0.1783 -0.1249 -0.2526
21813W        W37282   8.789  11.717  15.145 -0.2063 -0.0495  0.0949
21814W        W37283  13.663  17.905  11.889  0.3306  0.1734 -0.2138
21815W        W37284   1.808   5.817   3.840  0.1897  0.0369  0.0525
21816W        W37285   8.295  17.668   1.879  0.0076  0.0328  0.1222
21817W        W37286   5.754  16.389  15.966  0.3178  0.0576 -0.1434
21818W        W37287  17.559   2.206   2.443  0.2637  0.0716 -0.0264
21819W        W37288   6.889   5.900  15.947 -0.3643  0.0544 -0.4011
21820W        W37289  15.194  12.914   3.386 -0.0403 -0.0563  0.1271
21821W        W37290  17.802   5.906   0.254  0.3177  0.1977  0.1048
21822W        W37291  13.351  10.633   2.230 -0.3928 -0.2500  0.1043
21823W        W37292   2.160  11.246   0.476  0.0882 -0.0288 -0.0336
21824W        W37293  10.797  17.176   5.081 -0.1001  0.1560 -0.1591
21825W        W37294   8.326  13.293   6.092  0.2896 -0.1805  0.2231
21826W        W37295   3.611   3.407  16.254  0.1375  0.1759 -0.1182
21827W        W37296  13.010   9.836   0.438 -0.2576  0.3162  0.1459
21828W        W37297  13.282   9.522   0.778 -0.0251 -0.1435 -0.0889
21829W        W37298   4.190  15.959   2.609  0.2197 -0.2883  0.1189
21830W        W37299   0.343  16.253   3.206 -0.0426  0.0008 -0.1030
21831W        W37300  12.832   3.232  12.575 -0.0680  0.1002  0.0475
21832W        W37301   2.952  16.122   5.002  0.1235  0.1171 -0.1639
21833W        W37302  13.979   3.598  13.184  0.2386 -0.2796  0.0844
21834W        W37303   1.539   3.723   4.343 -0.2634 -0.1274  0.0502
21835W        W37304  10.656   0.907   2.962  0.3606  0.2360 -0.0834
21836W        W37305  13.021  12.211  12.685 -0.0247  0.4362 -0.3295
21837W        W37306   8.257   6.394   5.700  0.0436 -0.1479 -0.1225
21838W        W37307   9.886  16.092   0.818 -0.0519  0.1556 -0.2218
21839W        W37308  11.147  12.059  12.240 -0.0838 -0.0733 -0.0384
21840W        W37309   4.407   9.364   1.514 -0.1019 -0.3037  0.0284
21841W        W37310   8.422   6.022   1.007 -0.1907  0.0361 -0.0754
21842W        W37311   7.851   4.867  12.533 -0.2798  0.2141  0.5140
21843W        W37312   6.516  10.916  12.773 -0.0437  0.0102 -0.0808
21844W        W37313  11.261  13.730   3.627  0.1581 -0.2280 -0.2430
21845W        W37314   6.378   2.913   1.150  0.1006 -0.2027  0.2000
21846W        W37315  16.997   6.191  15.241  0.1886  0.4994  0.2898
21847W        W37316  13.913  14.153   5.241 -0.2471 -0.0625 -0.1547
21848W        W37317   2.220  11.354  15.420 -0.1982  0.2390  0.0245
21849W        W37318   6.612  10.501  16.304  0.2324  0.0202  0.3069
21850W        W37319  10.863  12.894  13.091 -0.1603  0.0751 -0.1497
21851W        W37320   7.699  12.339  15.714 -0.1869 -0.1401 -0.1514
21852W        W37321  15.398  10.419  11.838 -0.2355 -0.1206  0.0179
21853W        W37322   4.558  11.423   4.054  0.3991  0.2032  0.0687
21854W        W37323  13.282  17.211   3.143  0.0631  0.1278 -0.0445
21855W        W37324  17.125   7.565   2.829  0.3703 -0.0240 -0.1443
21856W        W37325  14.155   7.850   4.739  0.3107 -0.2701  0.0588
21857W        W37326  10.784   8.194  13.680  0.0086 -0.0773  0.0238
21858W        W37327   2.651  17.086  15.118  0.0872 -0.0282  0.0647
21859W        W37328   5.303   2.904   2.408  0.3431  0.2433  0.1907
21860W        W37329  13.732   8.514  11.579 -0.0281 -0.0550  0.0030
21861W        W37330  10.920   0.861   3.373 -0.1965  0.1138 -0.1814
21862W        W37331   5.443   8.147   3.539 -0.3022 -0.0183 -0.1366
21863W        W37332   0.171  17.352  12.963  0.0792  0.0979  0.2017
21864W        W37333   5.632  11.253   5.745 -0.0064  0.0364 -0.0684
21865W        W37334   9.056  17.473   0.136 -0.1955 -0.2936 -0.3320
21866W        W37335  11.162  12.226  16.574 -0.1658  0.1477  0.1023
21867W        W37336   4.402   8.651  15.492  0.1345 -0.0010 -0.2310
21868W        W37337   5.510   1.764  13.625  0.0232  0.1372  0.3573
21869W        W37338   4.632   9.381   5.991  0.0328  0.0350 -0.0389
21870W        W37339  16.784  15.907   5.738  0.0704  0.0911  0.3745
21871W        W37340  11.748  14.243  13.339  0.1849 -0.0852  0.1635
21872W        W37341  10.890   5.256  11.493  0.4405 -0.1820 -0.3550
21873W        W37342   6.298   5.041  15.081  0.0805  0.0225 -0.1235
21874W        W37343  13.980  13.780  11.244  0.0201  0.1966  0.1732
21875W        W37344   1.845   6.081  15.401 -0.0850  0.3200  0.1085
21876W        W37345  13.673  12.758  11.921  0.1398  0.0712 -0.0294
21877W        W37346   4.105   2.328  14.001 -0.1731  0.1171 -0.1051
21878W        W37347   2.563  11.328  12.727 -0.0941 -0.2177 -0.2229
21879W        W37348  15.958   0.873  16.148  0.0515  0.0392  0.1827
21880W        W37349   8.756  10.785   5.796 -0.1668  0.0442 -0.1714
21881W        W37350  14.406   1.128   4.806  0.0595 -0.1873 -0.3018
21882W        W37351  10.168   1.017  11.924  0.3022  0.2017  0.0998
21883W        W37352   8.345   3.956   0.702  0.1205 -0.0781  0.0281
21884W        W37353  13.104   8.400  11.147 -0.1124 -0.1086  0.0852
21885W        W37354  14.668  14.186   2.294 -0.2947  0.0323  0.1307
21886W        W37355  15.101   4.079  14.967 -0.0216 -0.0675 -0.0902
21887W        W37356   2.026  17.674   1.623  0.0512  0.2169  0.2355
21888W        W37357  16.787  12.356   0.892  0.1235  0.0405  0.0530
21889W        W37358   8.336  16.093  15.876  0.0668  0.2610  0.1023
21890W        W37359  10.368   4.110  13.405  0.3648  0.0294  0.1254
21891W        W37360  17.699  15.054   2.434  0.0122  0.0805 -0.0061
21892W        W37361  11.973  16.085   4.244 -0.0048 -0.1147 -0.2196
21893W        W37362   7.789  16.711  13.132 -0.1471 -0.2206 -0.1895
21894W        W37363   1.514   2.813   1.617 -0.2523 -0.3106  0.1114
21895W        W37364   9.528   2.588  13.733 -0.1399 -0.0694 -0.1886
21896W        W37365   1.343  17.999   1.197  0.1096 -0.1397  0.1823
21897W        W37366  12.882   1.574  12.184 -0.3606 -0.1140  0.1161
21898W        W37367   1.088   1.388   5.004  0.1539  0.2823 -0.0459
21899W        W37368  15.203  14.737  11.986 -0.1803  0.1887 -0.2915
21900W        W37369  16.686   1.678   4.357  0.0273 -0.3730 -0.0594
21901W        W37370   6.239   9.011   3.008  0.0464  0.0305 -0.2684
21902W        W37371   8.676   8.901  11.802  0.1208  0.1001 -0.1019
21903W        W37372  13.719   1.105   2.670 -0.1605 -0.0334  0.0701
21904W        W37373  15.812  12.900  14.245 -0.1770 -0.0814 -0.2918
21905W        W37374   5.010  14.502   0.458 -0.2399  0.1359 -0.0900
21906W        W37375   3.101   0.979   3.109 -0.1189 -0.2283 -0.1645
21907W        W37376   6.296  10.811   2.041  0.2518 -0.2625  0.0096
21908W        W37377  15.473  10.338  12.340  0.2001  0.1219  0.0821
21909W        W37378   2.453  12.474  14.899  0.4075  0.1821  0.1428
21910W        W37379  15.989  14.791   0.631  0.3507 -0.1625  0.1092
21911W        W37380  16.237  14.116   3.198  0.0171  0.2304 -0.0555
21912W        W37381   8.643   2.834   3.465 -0.3076  0.2360 -0.1834
21913W        W37382  12.697   4.026   3.623  0.0777 -0.0141 -0.1081
21914W        W37383   6.415   7.122   2.102  0.1813  0.2026  0.0345
21915W        W37384  17.521  17.784  14.716 -0.2286  0.0574  0.0451
21916W        W37385  15.560  17.461  15.520 -0.2842  0.3205  0.1335
21917W        W37386   3.218   2.316  11.013  0.0973  0.1243 -0.0169
21918W        W37387  11.029   1.095  14.788  0.1549  0.2528  0.0346
21919W        W37388   8.492   6.529   1.072 -0.0786 -0.0683  0.1576
21920W        W37389   0.519   2.451  16.601  0.0397 -0.3081 -0.1134
21921W        W37390  12.714  15.054   4.203  0.4321  0.0346  0.0303
21922W        W37391   0.581   6.865   2.361 -0.3606  0.1585 -0.0300
21923W        W37392  15.407  11.728   3.050  0.0566 -0.2095 -0.3532
21924W        W37393   2.213  10.342   1.837  0.0008  0.1646  0.3557
21925W        W37394   2.303   3.057   2.321 -0.0488 -0.0217  0.3548
21926W        W37395   9.599   3.301   0.919 -0.1108 -0.3064  0.2257
21927W        W37396   2.988   5.609  12.386  0.1567  0.0504 -0.2320
21928W        W37397   0.260  11.036   1.431  0.2658  0.1212 -0.3881
21929W        W37398   4.056   7.281  12.047 -0.5325  0.2470 -0.0902
21930W        W37399  12.892  13.387  15.541 -0.0815  0.3327 -0.1046
21931W        W37400  15.649   5.923  12.784  0.1583  0.2007 -0.0391
21932W        W37401  15.960   3.227   1.884 -0.4095 -0.0455  0.0193
21933W        W37402   8.615   0.533   5.814 -0.1917 -0.0832  0.0446
21934W        W37403  13.061   6.296  15.486  0.1350 -0.0237  0.0422
21935W        W37404  10.876  11.845   3.526 -0.0334 -0.0748  0.3591
21936W        W37405  11.641  12.979  14.137  0.1598  0.1509 -0.2397
21937W        W37406  16.196   9.115   3.656  0.0878  0.0803 -0.1272
21938W        W37407   1.462   3.471  13.547  0.2960  0.3757  0.0614
21939W        W37408   8.573  16.767   3.761 -0.0493  0.0484 -0.1750
21940W        W37409   5.506   4.390  14.179  0.0594  0.0829  0.3250
21941W        W37410   3.272  13.115   3.994  0.0865  0.0755 -0.0883
21942W        W37411   3.607  16.720   3.714 -0.2073 -0.2428 -0.2833
21943W        W37412  13.248  14.955  14.591 -0.3826  0.0053 -0.0048
21944W        W37413  14.310   3.815  16.022 -0.2142 -0.1301  0.3320
21945W        W37414   3.993   8.774  12.966 -0.3272 -0.2021 -0.1171
21946W        W37415   5.521   8.772  15.836  0.0783  0.1682  0.0748
21947W        W37416   8.655   7.391  13.817 -0.0288  0.0240  0.0199
21948W        W37417  15.379   8.719  14.391 -0.0863 -0.1152  0.2167
21949W        W37418  15.113   7.313   0.447 -0.1184 -0.1567  0.3661
21950W        W37419  11.146   8.822   5.839  0.0244  0.3086  0.0322
21951W        W37420  16.609   8.582   1.768  0.0992 -0.0471 -0.1721
21952W        W37421  17.407   6.794  16.104 -0.1257 -0.2040 -0.1915
21953W        W37422  14.227  14.875  11.779 -0.0738 -0.1756  0.1800
21954W        W37423   5.405   0.874  16.159 -0.2461  0.1021 -0.2895
21955W        W37424  16.592   5.589   3.284 -0.0536  0.2052  0.0778
21956W        W37425   3.822  15.590   0.858  0.0458  0.1101  0.0590
21957W        W37426  13.272   0.156   4.609  0.1747  0.0523 -0.0973
21958W        W37427  17.333  15.071   5.735 -0.1924 -0.2046 -0.0481
21959W        W37428   2.072   7.815   1.203  0.0222  0.2172 -0.1248
21960W        W37429  17.960   3.022   3.796 -0.2127  0.1277  0.1650
21961W        W37430  16.362   2.821  11.898 -0.3293  0.2050 -0.1234
21962W        W37431   0.848   1.299  14.566 -0.1534  0.0073  0.0350
21963W        W37432   7.612   9.174   1.658 -0.1539  0.1637  0.3078
21964W        W37433  17.602   2.505   3.173  0.0803 -0.1987 -0.0854
21965W        W37434   3.052  15.259  13.192 -0.0354  0.1880  0.4117
21966W        W37435  17.302   2.529  11.643  0.0991 -0.1565  0.2026
21967W        W37436  15.899   0.015   4.710  0.2147  0.0766  0.3387
21968W        W37437   4.877   0.040  14.204 -0.0181 -0.1947  0.4464
21969W        W37438  11.122  13.492   2.672 -0.1840  0.0029 -0.1297
21970W        W37439  10.232  14.391  13.318 -0.0520  0.0173 -0.0701
21971W        W37440   4.444   5.837  14.974 -0.0206  0.1419 -0.1789
21972W        W37441   7.337  14.763  12.992  0.0988 -0.1167 -0.2392
21973W        W37442  16.372  11.313  16.391  0.0084  0.2529 -0.0378
21974W        W37443  16.577   9.945  13.925  0.0837 -0.0852 -0.2042
21975W        W37444   6.654  17.114  12.122 -0.0746 -0.0395 -0.0365
21976W        W37445   7.332  12.416  15.011 -0.2110  0.0947  0.1520
21977W        W37446   0.592  13.896   2.346 -0.1638  0.0032  0.0936
21978W        W37447  16.777   4.057   1.822 -0.0348  0.3098  0.0972
21979W        W37448   6.625  17.592   6.241  0.2244  0.0544  0.1599
21980W        W37449   3.542  16.334   4.551 -0.0929  0.0014 -0.2871
21981W        W37450  14.863  11.038   1.709  0.0863 -0.1259 -0.1159
21982W        W37451   5.359   6.649  16.397 -0.0021 -0.0493 -0.0784
21983W        W37452  17.116   0.012  12.566 -0.0919  0.0110  0.3138
21984W        W37453   8.567   7.017  13.129 -0.1639 -0.1110 -0.4249
21985W        W37454   8.266   5.026   3.164  0.0485  0.0913  0.1848
21986W        W37455  10.664   6.223  15.701 -0.0345  0.3882 -0.0028
21987W        W37456   9.773  14.061  15.682 -0.2521  0.0529 -0.3474
21988W        W37457   1.783   0.619   5.236 -0.1538  0.1480  0.1627
21989W        W37458   1.618  14.402  12.668  0.1308  0.0566 -0.1154
21990W        W37459  12.210  14.176  12.890  0.1873 -0.0567  0.2759
21991W        W37460  17.003   8.160  13.705  0.1731 -0.0077 -0.1012
21992W        W37461   5.304  12.988  13.516 -0.2229 -0.0442  0.2181
21993W        W37462   0.356  14.651  12.489  0.1317 -0.1439  0.1615
21994W        W37463   3.523   5.601   4.171 -0.2523 -0.0422  0.0661
21995W        W37464  17.079   1.975   1.333  0.1520 -0.2403 -0.3455
21996W        W37465  17.957   8.636  16.382  0.1383 -0.0670 -0.2776
21997W        W37466   2.151   4.004   0.460  0.0393  0.0147 -0.1426
21998W        W37467   3.070   9.494   3.431 -0.2516 -0.3417  0.0703
21999W        W37468  15.052   8.847  15.793 -0.0273 -0.0581 -0.1431
22000W        W37469   4.086   6.652   1.155 -0.0750  0.1352  0.0327
22001W        W37470  12.732   7.858   4.525  0.0311 -0.2767  0.0604
22002W        W37471  11.588   5.872   0.534 -0.0126  0.3014  0.2756
22003W        W37472   8.061  14.947   2.435 -0.0615 -0.0098  0.1654
22004W        W37473  11.387  11.160   1.223  0.1334  0.0702 -0.3183
22005W        W37474   2.677   1.678  13.483  0.1291 -0.0125  0.3498
22006W        W37475   8.816   0.065  15.068 -0.1845  0.0739 -0.3761
22007W        W37476   9.629   6.874   3.389 -0.0534  0.0795  0.0355
22008W        W37477   6.836  15.499   3.446 -0.2930  0.0378  0.0455
22009W        W37478   4.738   2.737  12.469 -0.4840 -0.2626 -0.1084
22010W        W37479  12.570  12.343  16.369 -0.0781 -0.0735 -0.0484
22011W        W37480   2.849   1.942  13.967  0.0443 -0.0317  0.1969
22012W        W37481   1.648   2.174  15.391  0.1138 -0.0950  0.0928
22013W        W37482   4.402  11.821  11.384  0.0250 -0.2580  0.2845
22014W        W37483   8.440  14.868  14.699  0.1028 -0.1615 -0.0676
22015W        W37484  13.836   4.460  13.303 -0.2224 -0.2958  0.3579
22016W        W37485  17.664  11.996  12.397  0.1462 -0.1814 -0.1714
22017W        W37486  10.927  12.331  14.890  0.0667 -0.3482 -0.0770
22018W        W37487  17.879   7.168  14.845  0.0408  0.3329 -0.0994
22019W        W37488   7.999   3.570   0.985 -0.0015 -0.0969  0.1835
22020W        W37489   4.587  10.338   2.268  0.2324  0.0451  0.1115
22021W        W37490   6.499   2.602   0.714  0.0282  0.0205  0.1805
22022W        W37491  12.671  11.943  15.068 -0.1312  0.0015 -0.2427
22023W        W37492   5.936   4.166   0.728  0.0658 -0.2182 -0.3442
22024W        W37493   7.175  11.345   1.914 -0.1290  0.1424 -0.0974
22025W        W37494  13.286   9.077  15.523 -0.1510  0.3175  0.0885
22026W        W37495   1.624  16.694   0.787 -0.0019  0.1001 -0.4156
22027W        W37496   8.110   8.935   0.358 -0.2511  0.1883  0.1804
22028W        W37497   1.645   6.554   1.772 -0.1335  0.1391 -0.0867
22029W        W37498  15.021   9.232  13.230 -0.3185  0.0426 -0.0085
22030W        W37499  14.674  10.314   1.115 -0.3244 -0.3571  0.2355
22031W        W37500  13.820  10.624   0.957  0.2492  0.2791  0.0270
22032W        W37501   6.566   7.911   1.095  0.0225 -0.1666 -0.0084
22033W        W37502  17.889   9.428  15.283  0.3260 -0.0500 -0.1368
22034W        W37503   8.764   9.074   0.305 -0.0069 -0.0798 -0.4090
22035W        W37504  11.138   6.343   1.093 -0.1356 -0.2903 -0.2366
22036W        W37505  12.436  15.788  11.770  0.3365 -0.0001  0.3154
22037W        W37506  15.290   2.795   4.669 -0.1304 -0.3056 -0.1957
22038W        W37507   6.758   1.664   1.742 -0.2419  0.0798 -0.1992
22039W        W37508   9.187   6.839  13.946 -0.3759  0.0948  0.1395
22040W        W37509  13.990   0.105  12.258  0.2450 -0.2251  0.0631
22041W        W37510  13.752  12.364   0.239 -0.1026 -0.2696 -0.2069
22042W        W37511   6.582   3.946   4.577 -0.1995  0.0569  0.1262
22043W        W37512  16.207   5.024  12.155  0.2159  0.0209 -0.3562
22044W        W37513   8.500  15.021   4.815 -0.0329  0.0226  0.0595
22045W        W37514   3.722   4.432   2.913  0.0869 -0.1486  0.0584
22046W        W37515   2.185   5.224  11.343 -0.0280  0.0212  0.0299
22047W        W37516  16.291  12.662   2.943 -0.0021 -0.0534 -0.2910
22048W        W37517  17.628   6.284   2.783  0.1537 -0.0647 -0.1137
22049W        W37518  15.181   7.652  15.988 -0.0983  0.2156 -0.0037
22050W        W37519   4.915   3.662   1.969  0.1746  0.0935  0.0472
22051W        W37520   4.187   3.355  11.506  0.2156  0.2049  0.0991
22052W        W37521  16.625   0.018  11.758  0.1077  0.1703 -0.0148
22053W        W37522  17.890   5.441   1.188  0.1614 -0.1870 -0.0309
22054W        W37523  17.822  17.386   1.531 -0.0787 -0.0865 -0.1571
22055W        W37524   3.563  12.131  12.151 -0.2413 -0.5182  0.0584
22056W        W37525   1.168   4.549  14.436  0.3013  0.2316  0.2055
22057W        W37526  16.753   2.020  11.077 -0.4037 -0.4196  0.2342
22058W        W37527   0.586  15.705  12.382 -0.1338 -0.4821  0.0492
22059W        W37528  13.153  16.510  13.412  0.1020 -0.0222 -0.1023
22060W        W37529  12.499  10.684  15.115  0.2882 -0.1234 -0.0709
22061W        W37530   4.933   4.385  12.589 -0.2403 -0.1210 -0.0534
22062W        W37531   7.845  16.372   1.611  0.1285 -0.3359  0.0447
22063W        W37532  17.191   9.726   0.292 -0.0807 -0.0484  0.2878
22064W        W37533  17.722  12.860   2.838  0.1191  0.1379  0.0977
22065W        W37534  17.918   9.448   4.279 -0.1753  0.0230 -0.0292
22066W        W37535   0.194   8.291  11.273  0.0048 -0.2401 -0.3137
22067W        W37536  12.571  13.776  13.501  0.1716 -0.2589 -0.0939
22068W        W37537  13.150  16.535  13.939  0.1856  0.2289 -0.1863
22069W        W37538   7.900   6.210  12.254  0.1053  0.0144  0.1374
22070W        W37539  16.522  17.769  14.177  0.2432 -0.1407  0.1252
22071W        W37540   2.840  11.401   2.013  0.3904  0.0101 -0.0283
22072W        W37541   2.500   8.749   2.486  0.1614  0.0360  0.1692
22073W        W37542  17.466   8.115   3.588  0.3326 -0.0776  0.0956
22074W        W37543   9.318  12.993  12.195 -0.2392  0.2523 -0.1606
22075W        W37544  15.421   7.237  14.563  0.2661 -0.0359 -0.0307
22076W        W37545   8.602   8.347   1.163  0.1812  0.0825  0.1857
22077W        W37546  14.222  10.388  15.519  0.0903  0.1046 -0.0707
22078W        W37547  15.693  14.144  13.281 -0.1347  0.0070 -0.0523
22079W        W37548  17.165  12.640   0.753  0.1753  0.0075 -0.0198
22080W        W37549  14.809  10.902  13.937  0.2998  0.1445 -0.0954
22081W        W37550   0.494  10.046   0.127 -0.2382  0.1013  0.0075
22082W        W37551  14.561  15.608  16.196 -0.2353 -0.2580 -0.0318
22083W        W37552  12.622  12.831  13.109 -0.3304 -0.2759 -0.0225
22084W        W37553  10.130  16.370   5.422  0.3031 -0.2236 -0.0135
22085W        W37554  15.602  12.576   2.489 -0.0434  0.2288 -0.2090
22086W        W37555  13.566  12.715   1.784 -0.1321  0.2017  0.0869
22087W        W37556  13.195  12.103  12.149 -0.1768 -0.0191 -0.0888
22088W        W37557  16.920  10.383   4.648 -0.0163 -0.0423 -0.0796
22089W        W37558  13.041   9.148   4.999 -0.0443 -0.0706  0.0764
22090W        W37559  16.227   5.008  15.678 -0.1245  0.3228 -0.0978
22091W        W37560   8.635   5.121   1.621 -0.0264 -0.0607 -0.0908
22092W        W37561   4.151  15.656  11.646  0.0724  0.1741  0.2195
22093W        W37562   7.794   3.885   4.394 -0.0247  0.2129 -0.2342
22094W        W37563  15.536   5.803   3.652 -0.1877  0.2314  0.2162
22095W        W37564   5.939   8.556   1.121 -0.0488  0.1065  0.1259
22096W        W37565   5.791  11.208  15.579  0.0031 -0.0053  0.0773
22097W        W37566  13.347   5.225  11.889 -0.1869 -0.0696 -0.0542
22098W        W37567  14.309  10.146  12.922  0.0488  0.0886 -0.0224
22099W        W37568  17.115   4.218   5.227 -0.3846 -0.0424 -0.1979
22100W        W37569   4.879  12.829   0.936  0.2958 -0.0243  0.0224
22101W        W37570   4.104  16.700   3.120 -0.0963 -0.1135  0.0968
22102W        W37571  13.793   0.346  15.219  0.0010 -0.2442 -0.2138
22103W        W37572  14.987   3.223  13.868  0.1688 -0.1761 -0.1858
22104W        W37573   1.726   6.664   3.715  0.2015 -0.1509  0.0061
22105W        W37574  12.029  12.478  11.429  0.0077  0.0960 -0.1382
22106W        W37575  14.155  15.364   6.066  0.0413  0.2449  0.1742
22107W        W37576  13.495  15.066   6.127 -0.0639 -0.1510  0.0845
22108W        W37577   3.026  13.749  16.132  0.2907 -0.0618 -0.1562
22109W        W37578  12.838   4.516  15.224  0.1023  0.0826  0.1227
22110W        W37579   1.411   0.321   0.318 -0.0692 -0.1910 -0.2532
22111W        W37580  15.347  14.853  14.598  0.1624 -0.0546 -0.0763
22112W        W37581   9.590  10.907  15.865  0.2385  0.3521 -0.2313
22113W        W37582  13.202  16.396  14.452  0.0435  0.0712 -0.0576
22114W        W37583   6.768  17.927   6.641 -0.1839 -0.2377 -0.2251
22115W        W37584  14.022   2.847  15.637  0.1363  0.2491 -0.1989
22116W        W37585   1.277   5.377  12.748 -0.0897 -0.2120  0.2252
22117W        W37586   7.639   0.005  12.878  0.2028  0.1362 -0.2914
22118W        W37587   4.650  17.337   2.565 -0.3095 -0.2597  0.2856
22119W        W37588   1.801  12.271   2.401 -0.0045  0.0717  0.2340
22120W        W37589   1.838   1.359   1.311 -0.0445 -0.0806  0.3531
22121W        W37590   8.101  16.580   3.422 -0.1066 -0.2469 -0.1109
22122W        W37591   2.811   2.099  15.324 -0.0362 -0.1931 -0.1874
22123W        W37592  15.439   3.668  13.308  0.3551 -0.0407 -0.0306
22124W        W37593  16.741   4.350  13.227 -0.0602  0.2657 -0.0455
22125W        W37594  17.223   9.065   4.395 -0.1555 -0.1832 -0.5376
22126W        W37595  12.992   1.976  16.373 -0.0712 -0.3852 -0.0355
22127W        W37596   7.370   2.700   3.882  0.0536  0.2329 -0.1009
22128W        W37597   7.900  17.590   3.226 -0.2346 -0.1723 -0.0309
22129W        W37598  16.026  11.958   1.337 -0.1717  0.1302  0.2050
22130W        W37599   0.851   6.065   1.090 -0.1787 -0.0546  0.0150
22131W        W37600   9.887  14.106  15.153  0.0142 -0.1119 -0.0280
22132W        W37601  14.427  12.367  15.207  0.1864  0.0747 -0.0032
22133W        W37602   3.958   9.186  12.346  0.1023  0.2202  0.1403
22134W        W37603   9.036   7.762  13.630  0.0748  0.3002 -0.1026
22135W        W37604  15.791   7.258  14.032 -0.1122  0.3864  0.1243
22136W        W37605   3.591   3.650   4.155  0.1596  0.1716  0.0675
22137W        W37606  12.176  11.985   0.557 -0.0392  0.4583  0.1227
22138W        W37607   8.207  12.428   4.663  0.1463  0.0299 -0.0414
22139W        W37608   2.653  14.923  12.935 -0.1403  0.0409 -0.0091
22140W        W37609  12.322  11.395  14.487 -0.1269  0.1217  0.0973
22141W        W37610   2.788  13.100   3.178 -0.0268  0.0507  0.2909
22142W        W37611  17.962  13.831  15.012  0.0696 -0.2903 -0.0577
22143W        W37612   8.890  14.125   2.085 -0.1236  0.0899 -0.1583
22144W        W37613   8.191   8.135   5.198 -0.1506 -0.3545 -0.0203
22145W        W37614  13.356  12.046   2.838  0.5646  0.0200  0.1027
22146W        W37615   8.417   4.415   2.477 -0.0780  0.1168  0.3306
22147W        W37616  13.356  13.136  15.655 -0.2351 -0.0549 -0.0759
22148W        W37617   5.673   4.570  12.890  0.0903 -0.1977  0.0638
22149W        W37618   3.009  17.740   4.412 -0.0520 -0.0039  0.1441
22150W        W37619  15.544  15.843  13.985 -0.5611  0.1363 -0.0907
22151W        W37620  10.017   5.606  11.637  0.0327  0.0623 -0.0311
22152W        W37621   6.431   1.177  11.513 -0.1727 -0.1589  0.1040
22153W        W37622   3.009   0.552  12.495  0.4720  0.1897  0.1879
22154W        W37623  12.163   6.307  10.626 -0.2713 -0.1860 -0.2932
22155W        W37624   0.153   4.886  14.208 -0.1272  0.0115 -0.0778
22156W        W37625  17.962   0.174   2.011 -0.1468 -0.0890 -0.1212
22157W        W37626   4.747   1.918   3.993  0.1563 -0.0069 -0.3633
22158W        W37627   2.257  14.230   3.338 -0.0868  0.1110 -0.2095
22159W        W37628  14.973   0.504  14.225  0.3233 -0.1553  0.0662
22160W        W37629   9.067  13.169  16.412  0.1400 -0.1602  0.1646
22161W        W37630  16.422  14.617   2.918 -0.1221  0.0009  0.1531
22162W        W37631  16.912  15.372  15.410 -0.1214  0.2007 -0.1263
22163W        W37632   8.286  13.284   4.137 -0.0314 -0.1959 -0.2856
22164W        W37633   3.410   9.238  15.028  0.1574  0.4161 -0.0317
22165W        W37634  16.717   4.464   0.204  0.2613 -0.1039  0.1757
22166W        W37635  17.893   8.535   2.563 -0.3199 -0.0523 -0.1448
22167W        W37636   2.042   5.151  14.677 -0.3293  0.1931  0.2279
22168W        W37637   3.127   9.518  14.056  0.0594  0.2884  0.0248
22169W        W37638  13.131  15.840  14.296 -0.1907 -0.0169 -0.0959
22170W        W37639  16.850  16.216  16.237 -0.0934  0.3047 -0.1676
22171W        W37640   3.820   9.486  15.237 -0.1589 -0.3668  0.0477
22172W        W37641   1.164   6.591   4.484  0.2925 -0.1265 -0.1502
22173W        W37642   7.310   0.320   2.279  0.2723 -0.0166 -0.1875
22174W        W37643   9.684   5.420   1.582  0.4519 -0.4414 -0.0027
22175W        W37644  11.493   5.656   3.120  0.1540 -0.0945 -0.1576
22176W        W37645   8.634  16.678  14.767 -0.0185  0.1890 -0.0077
22177W        W37646   6.319  13.543   2.946  0.0480 -0.5293 -0.1516
22178W        W37647   1.522  16.183  15.378 -0.0368 -0.1878  0.0962
22179W        W37648   7.368  17.114   5.372  0.0123 -0.2206  0.1187
22180W        W37649  10.863   9.368   0.178  0.0572 -0.2375 -0.3319
22181W        W37650   5.825  11.159  16.095 -0.2856 -0.0700  0.4546
22182W        W37651  14.813  16.332   4.277 -0.0808  0.2178 -0.1341
22183W        W37652  13.148   3.311  16.434 -0.1596 -0.3600  0.1064
22184W        W37653   7.005   5.828  12.335 -0.0608  0.2161  0.1902
22185W        W37654  13.718  17.866  14.059 -0.0110 -0.2138  0.3500
22186W        W37655   4.832   9.535  13.852 -0.1048 -0.0762 -0.1547
22187W        W37656   9.568  14.073  16.184 -0.1379  0.0014 -0.0104
22188W        W37657   0.903   4.423   3.012 -0.0905  0.0866  0.0680
22189W        W37658  10.984  13.556   4.501 -0.0954  0.0455  0.0093
22190W        W37659  16.905   1.283  15.174  0.0064  0.1361 -0.0487
22191W        W37660   2.272  10.509  12.851 -0.0941  0.0661  0.1777
22192W        W37661   5.007  12.083  13.394  0.0862  0.2665  0.0525
22193W        W37662   4.860   2.351   1.353  0.0099 -0.0402 -0.3106
22194W        W37663  13.338  17.189   4.502 -0.0776 -0.4605  0.0173
22195W        W37664   0.402   4.998   0.410  0.1671 -0.0080 -0.2559
22196W        W37665   4.499  10.085  16.092 -0.1734 -0.1178 -0.2360
22197W        W37666  13.140  11.574  14.279 -0.1089  0.0744  0.2181
22198W        W37667   0.112  15.220  12.012 -0.2747  0.2182 -0.0346
22199W        W37668   0.185  13.814   0.424  0.1490 -0.1384  0.0140
22200W        W37669   3.151  11.787   0.965  0.0480 -0.0541 -0.1734
22201W        W37670  10.332   0.777   4.129 -0.1877  0.3216  0.1447
22202W        W37671  17.542  17.905   5.453 -0.0473  0.3379  0.1348
22203W        W37672   4.684   5.368  14.854 -0.1840  0.0278 -0.0593
22204W        W37673  16.807   7.041  11.223  0.0521 -0.2229  0.2603
22205W        W37674  15.549   7.924  12.407  0.1273 -0.1088  0.1335
22206W        W37675   0.059  13.373  12.886 -0.1491  0.5331 -0.0133
22207W        W37676  16.396  15.882   6.824  0.1171  0.0524  0.1040
22208W        W37677   7.807   3.064   3.417 -0.2471  0.0736  0.1612
22209W        W37678   3.888   7.517  15.917 -0.1114  0.2856  0.0275
22210W        W37679   8.253  11.394  15.975  0.0607  0.1052 -0.0780
22211W        W37680   0.449  10.544   0.071 -0.2258 -0.1636 -0.0811
22212W        W37681  13.891   9.070   0.751  0.0893 -0.0787 -0.0048
22213W        W37682   5.890   8.970   1.546 -0.1293 -0.0217 -0.1054
22214W        W37683  17.340   2.607   5.039 -0.1104  0.0916  0.2304
22215W        W37684  16.439   2.660  13.754 -0.2231  0.0756 -0.1295
22216W        W37685  12.395  14.484   3.045  0.0516 -0.0551  0.1492
22217W        W37686  11.441  10.690   1.491 -0.1094 -0.1106  0.0378
22218W        W37687   3.879   7.175   2.626  0.1032 -0.0004 -0.1561
22219W        W37688  10.398  10.279   2.740  0.1807  0.1886  0.2781
22220W        W37689   0.664   9.632  11.306  0.0852 -0.2114  0.1304
22221W        W37690  13.635  16.127   2.646 -0.1878 -0.3791 -0.3296
22222W        W37691  16.689  11.891  15.070 -0.1724 -0.0205 -0.0608
22223W        W37692   4.801   8.192  15.562  0.2770 -0.1354 -0.0629
22224W        W37693  16.250   1.405  12.925 -0.1353  0.1242 -0.4081
22225W        W37694   1.010  10.559  15.640  0.1769 -0.1663 -0.0219
22226W        W37695   5.691   5.499  12.238  0.1783 -0.1747  0.0624
22227W        W37696  13.417   9.776  12.962  0.0351  0.1837 -0.1531
22228W        W37697  11.546  14.503  15.229  0.0943 -0.0136  0.4606
22229W        W37698   3.839   9.307   3.096 -0.3522 -0.1450  0.1983
22230W        W37699  11.763   5.822   2.757 -0.2261 -0.2886 -0.2607
22231W        W37700   2.702  13.872   4.427 -0.1340 -0.2897 -0.0436
22232W        W37701   4.931   8.473   2.637 -0.1960  0.1979  0.0343
22233W        W37702   1.763  12.876  16.599 -0.3473  0.0247  0.3476
22234W        W37703   5.456   4.844  15.140  0.1644 -0.1313 -0.0548
22235W        W37704  16.554   2.287  11.986 -0.3090  0.0243 -0.1565
22236W        W37705  15.935   9.951   0.142  0.2229 -0.0769 -0.1393
22237W        W37706   5.449  15.805  14.482  0.1061 -0.0711 -0.2499
22238W        W37707  12.578   2.498  14.540 -0.4288  0.1539  0.2681
22239W        W37708   9.437  13.042   5.851 -0.1566 -0.0531 -0.0756
22240W        W37709  14.906   9.798  11.531  0.0423 -0.1799 -0.1082
22241W        W37710   6.238   1.031   4.301 -0.0352 -0.1282 -0.1625
22242W        W37711   7.762  10.875   3.528  0.0726  0.0144  0.0599
22243W        W37712   4.570   1.017  16.439 -0.2891  0.0684 -0.1596
22244W        W37713  15.637  13.146   5.240 -0.1897 -0.0658  0.0196
22245W        W37714   7.697   2.187  11.817 -0.0154 -0.1374 -0.1987
22246W        W37715   3.355  10.509   2.494 -0.1940  0.2057 -0.1262
22247W        W37716  16.581  15.198  13.891  0.2485  0.2495  0.0244
22248W        W37717  14.605   6.181   3.279 -0.1478 -0.0079 -0.2328
22249W        W37718   6.191  10.832   2.678  0.2192  0.2826 -0.0181
22250W        W37719   0.747   3.089   3.898  0.0643  0.0872 -0.0264
22251W        W37720  13.536  16.867   4.119  0.1764  0.0138 -0.1937
22252W        W37721  12.940  16.862  12.474 -0.0365 -0.0660  0.3583
22253W        W37722   9.824   6.806  15.738  0.0590 -0.0167  0.0571
22254W        W37723   6.630  17.248  16.010 -0.6099 -0.1919 -0.0990
22255W        W37724   4.332   9.248   5.144  0.0520 -0.0497 -0.0883
22256W        W37725  17.046   7.907  15.572  0.2396  0.3478 -0.3109
22257W        W37726   4.319   9.352  14.748  0.0011  0.0304  0.2884
22258W        W37727   1.500   7.791  12.563  0.1921 -0.1924  0.3780
22259W        W37728   4.999  12.458   5.013 -0.2352 -0.1893  0.2303
22260W        W37729   0.862   3.924  15.765 -0.0409 -0.1143  0.0595
22261W        W37730   4.834   3.864  11.599 -0.3355  0.0878  0.3675
22262W        W37731  17.412   1.100   4.001  0.2180  0.1142  0.0389
22263W        W37732   1.171   2.272   2.086  0.2546  0.1084 -0.3037
22264W        W37733   7.346  15.353   6.416 -0.1040  0.1836 -0.0253
22265W        W37734  12.337  14.702   4.062 -0.1228 -0.2660 -0.0489
22266W        W37735  15.020   5.833   3.621  0.0750  0.3200 -0.0926
22267W        W37736  15.120  15.318   4.403 -0.1336 -0.2576  0.2875
22268W        W37737   8.984  10.423   2.885  0.3828  0.1101 -0.1232
22269W        W37738   2.277   5.621   3.779 -0.1979 -0.1564 -0.2203
22270W        W37739  10.668  16.143   1.311 -0.1862 -0.1739  0.1758
22271W        W37740   9.530  14.475   1.096 -0.0404  0.1373 -0.0995
22272W        W37741   5.302   1.941  15.211 -0.1987 -0.2195  0.0332
22273W        W37742   8.377  15.733  11.824  0.0581  0.3390 -0.0867
22274W        W37743  12.097  10.858  15.974 -0.2069 -0.0529 -0.2131
22275W        W37744   7.495   9.548  16.498 -0.1985 -0.0964 -0.0218
22276W        W37745   1.078   5.488   3.480 -0.1676 -0.4800  0.0227
22277W        W37746  16.936  14.158   2.741 -0.0139 -0.2283 -0.1046
22278W        W37747  16.273   9.142  16.259 -0.0490  0.1126 -0.1144
22279W        W37748   8.956   9.525   3.378  0.1053 -0.0931  0.2782
22280W        W37749  11.046   5.526   1.560  0.0485  0.0682 -0.1510
22281W        W37750  14.986   2.647  11.595  0.0222 -0.2673  0.1323
22282W        W37751   6.803   0.470   1.883 -0.0932 -0.0447  0.2370
22283W        W37752   9.408   7.109   0.517  0.1939  0.4371  0.0181
22284W        W37753  11.048  11.735  16.539 -0.2199 -0.0981 -0.2599
22285W        W37754  14.744  11.905  13.164 -0.0937 -0.2024  0.3684
22286W        W37755   7.920   5.781  12.509  0.0255 -0.1315  0.2379
22287W        W37756   4.134  14.443   5.132 -0.0343 -0.3055 -0.1760
22288W        W37757  16.019   3.302  11.499 -0.0424  0.1139  0.0406
22289W        W37758  16.800  10.972   0.985  0.0583  0.2032 -0.4137
22290W        W37759  15.647  16.948  15.384 -0.2065  0.0213 -0.0078
22291W        W37760  17.556  11.288   2.433  0.4045  0.1072 -0.0239
22292W        W37761  10.435  11.616   4.023 -0.2583 -0.3036  0.3043
22293W        W37762   3.000   1.390   4.853  0.1283  0.0459  0.0791
22294W        W37763   0.341  11.965   1.908 -0.2196 -0.0398  0.2171
22295W        W37764  13.180  12.922   2.736 -0.1208 -0.2598 -0.2530
22296W        W37765  17.372   8.944   2.013  0.2744 -0.0584  0.1743
22297W        W37766  17.992   9.745   2.453 -0.2737 -0.1504  0.1170
22298W        W37767   1.399  13.672   1.902 -0.1632 -0.2301 -0.1570
22299W        W37768   6.217   3.508   1.368 -0.1127  0.0204 -0.0113
22300W        W37769   6.099   6.062  12.648  0.1037  0.1941 -0.0886
22301W        W37770   7.892   2.750   0.407 -0.1959  0.1686 -0.1001
22302W        W37771  17.822  13.759  11.892  0.2620 -0.1789 -0.0449
22303W        W37772   5.405   0.359  12.331  0.1927  0.1306 -0.2100
22304W        W37773  17.160  14.671   5.395 -0.0044  0.1511 -0.1971
22305W        W37774  13.403   1.477  13.269  0.0650 -0.1301  0.0011
22306W        W37775  16.905  13.429   3.642  0.0618 -0.1147  0.0352
22307W        W37776   5.220  12.851   1.352  0.0021  0.0037 -0.2228
22308W        W37777  13.799   8.400  13.453 -0.0994  0.0903 -0.1318
22309W        W37778   8.452   9.984   0.984  0.0115  0.1018 -0.3591
22310W        W37779   2.175  17.175   3.415 -0.1894  0.2048 -0.0455
22311W        W37780  12.737   5.719   3.255  0.0044  0.0684  0.3400
22312W        W37781   5.269  11.920  11.714 -0.1139 -0.1474  0.4344
22313W        W37782   2.047   3.191   1.066 -0.0764 -0.2135 -0.1729
22314W        W37783  16.565   1.750  15.927 -0.1423 -0.0626 -0.2002
22315W        W37784  13.754   0.603   3.132  0.2190 -0.1636  0.0172
22316W        W37785   4.759   4.965   6.170 -0.3225 -0.0268 -0.2427
22317W        W37786   6.854   1.336  15.278 -0.1268 -0.2307  0.0404
22318W        W37787  12.992  17.925   2.741 -0.1540  0.4317 -0.3532
22319W        W37788  15.664  17.069   5.455 -0.5392 -0.0238  0.1536
22320W        W37789   4.745  11.701  13.172  0.0199  0.1324 -0.0842
22321W        W37790   1.322  13.254  16.297 -0.0582  0.1775  0.0804
22322W        W37791  17.757  15.767   1.364 -0.2828  0.2941  0.1399
22323W        W37792  14.937   8.405  10.536 -0.2916 -0.1003 -0.1233
22324W        W37793   6.443   4.675   3.957 -0.1289  0.3883  0.1490
22325W        W37794   6.025  16.143   1.516 -0.0193 -0.0531  0.1386
22326W        W37795   0.442   7.933  11.980 -0.0563 -0.2737 -0.0787
22327W        W37796   9.765   7.999   5.814 -0.1210  0.0622 -0.1285
22328W        W37797   9.098  11.725   0.419 -0.4689 -0.3622 -0.0311
22329W        W37798   6.597   5.749   1.879 -0.0398  0.2072 -0.0469
22330W        W37799   5.775   4.508   1.296  0.2866  0.0540  0.1572
22331W        W37800  12.297  15.403  13.042  0.1655 -0.1856 -0.2742
22332W        W37801  17.006   6.669  14.557 -0.4601  0.0276 -0.0231
22333W        W37802   8.766   1.042   3.788 -0.0736  0.1310  0.0631
22334W        W37803   6.034  15.187   3.113  0.0039 -0.0054  0.1198
22335W        W37804  11.589  11.294   2.576 -0.0159  0.0101 -0.0800
22336W        W37805   7.474  10.786  13.178 -0.1209 -0.3691 -0.0903
22337W        W37806   0.744   5.688  14.489 -0.0376  0.1098  0.2368
22338W        W37807  13.682  11.791   4.438 -0.0899 -0.2860  0.0442
22339W        W37808  16.008  17.778   2.576  0.0711  0.2397 -0.1704
22340W        W37809  13.944  10.118   4.536 -0.2907  0.0100 -0.2340
22341W        W37810   1.482   7.302  15.948  0.1115 -0.0512  0.2977
22342W        W37811   0.175   7.395   4.751 -0.0056 -0.0414  0.0343
22343W        W37812  10.795   0.065   0.759  0.0285 -0.0357 -0.0865
22344W        W37813   3.410   7.778   4.864  0.0287 -0.0059 -0.1604
22345W        W37814   0.529   5.675   0.661  0.1937 -0.0219 -0.0019
22346W        W37815  14.238  11.914   5.290  0.0867 -0.2631 -0.3970
22347W        W37816  12.286   3.135   3.257 -0.1352 -0.1650 -0.0314
22348W        W37817  11.357   3.065   4.888 -0.1700 -0.2184 -0.1882
22349W        W37818  14.041   2.579  12.572 -0.2729  0.0797  0.0398
22350W        W37819   6.279   5.043   3.227  0.2060  0.1834  0.0543
22351W        W37820   4.352   5.256   0.328  0.0853  0.0932  0.2760
22352W        W37821  14.762  15.281   0.456 -0.1087  0.2473 -0.0089
22353W        W37822  12.882  11.417  13.831  0.1003  0.1085  0.1471
22354W        W37823  12.144   1.766  14.169  0.2073  0.0129  0.1780
22355W        W37824   5.199  11.427  12.936 -0.2680 -0.0867  0.0123
22356W        W37825   5.448   3.118   1.428  0.2432 -0.0963 -0.0758
22357W        W37826   9.481   3.343   6.105 -0.0328  0.0186 -0.0529
22358W        W37827   1.132   1.938  15.329 -0.1058 -0.0171 -0.1916
22359W        W37828   1.048  10.089   4.285 -0.0131 -0.0671  0.0440
22360W        W37829   0.279  17.500   2.279 -0.0606 -0.1053 -0.2425
22361W        W37830   8.211  17.920  10.803  0.1960 -0.1678  0.0785
22362W        W37831  11.980   1.449  12.225 -0.1513  0.1892 -0.2141
22363W        W37832   3.029  13.029  15.385  0.0399 -0.1952 -0.2909
22364W        W37833   2.185  12.036  16.087  0.0262  0.2050 -0.0909
22365W        W37834  16.074  11.057  11.955  0.4254  0.2169  0.0778
22366W        W37835  17.068   1.148   4.398  0.1464  0.2100 -0.1029
22367W        W37836  17.855  13.503  16.336  0.2620 -0.0915 -0.1683
22368W        W37837   4.795  11.960  12.151  0.1816 -0.0269  0.2519
22369W        W37838  11.494   3.884   0.116 -0.0552  0.1054  0.0151
22370W        W37839  14.179   5.357   0.689 -0.0198  0.1829 -0.0858
22371W        W37840  11.593  16.331   5.650 -0.0713 -0.1711 -0.0354
22372W        W37841  16.189  10.512  11.481 -0.2024 -0.0333 -0.0315
22373W        W37842  11.468   7.770   2.199 -0.0128 -0.1476 -0.3541
22374W        W37843  13.448  15.910   4.479 -0.1376  0.0233 -0.0910
22375W        W37844   3.705  15.761   5.125  0.1060 -0.1708  0.0013
22376W        W37845   6.974   2.516  15.347  0.3961  0.3857 -0.0749
22377W        W37846  11.682   7.405   1.449 -0.0566  0.0526 -0.1249
22378W        W37847   0.497   1.807  13.642 -0.1313 -0.0864 -0.2686
22379W        W37848  16.178   4.654   2.383 -0.2536 -0.2754  0.2605
22380W        W37849   7.286   4.250   3.570  0.1073  0.2929 -0.1552
22381W        W37850  15.736   9.961   3.885 -0.1859  0.0035  0.0551
22382W        W37851  13.025  13.068  16.513 -0.0228  0.2877 -0.0688
22383W        W37852   5.478   6.881   1.222  0.0840 -0.1050 -0.0103
22384W        W37853   6.483  16.696   3.329 -0.0833 -0.3768 -0.0884
22385W        W37854  12.801   4.725   4.055 -0.7094  0.0884 -0.1757
22386W        W37855   9.288  13.861  15.759 -0.2889  0.0667  0.1793
22387W        W37856  12.949   4.928   2.532 -0.0165  0.1295  0.0756
22388W        W37857  14.704   2.185   4.774 -0.0626  0.2362 -0.1506
22389W        W37858   0.636   8.457  15.276  0.1077  0.0299 -0.0187
22390W        W37859  12.589  15.661   4.998 -0.0012 -0.0497 -0.2284
22391W        W37860   2.907   1.968  16.534  0.5037  0.1118  0.1272
22392W        W37861  10.910  16.067   4.008 -0.2361  0.0172  0.0244
22393W        W37862  12.798  16.769  15.982 -0.1732  0.0299 -0.1485
22394W        W37863  14.119  11.261   2.937  0.0271  0.0599 -0.0995
22395W        W37864  12.140   0.272   1.422 -0.0225 -0.1099 -0.0118
22396W        W37865   1.014  11.605   0.712 -0.0859 -0.0995 -0.1366
22397W        W37866   1.398  12.193  13.118  0.0556  0.0140  0.1556
22398W        W37867  16.979   3.763   2.165  0.0550  0.2224  0.5173
22399W        W37868  16.215   5.435  11.813 -0.3164 -0.1892  0.0603
22400W        W37869   6.148   9.687  11.252 -0.0531 -0.0818  0.0776
22401W        W37870  10.908   5.928  13.256  0.0436 -0.2888 -0.1377
22402W        W37871  11.855  16.085   4.757 -0.4884  0.4470  0.0448
22403W        W37872  16.861  16.484  14.354 -0.0067  0.1222 -0.1161
22404W        W37873   8.774  16.052   2.769 -0.3089  0.0740  0.1170
22405W        W37874  14.903  15.826   3.461 -0.0987 -0.0347 -0.2372
22406W        W37875   9.086   9.652  13.343 -0.0852  0.0029  0.0085
22407W        W37876   2.945  15.315   1.209  0.1130 -0.3413  0.2629
22408W        W37877  10.365   6.124   4.908  0.0608  0.0649 -0.0407
22409W        W37878  14.785  14.115   6.219 -0.2489 -0.0068  0.1676
22410W        W37879  12.464   9.292   2.997 -0.0655 -0.0302 -0.0054
22411W        W37880  15.252  12.772   1.272 -0.2573 -0.0910  0.0006
22412W        W37881  17.360   2.382   5.530  0.0692 -0.0593 -0.0022
22413W        W37882  17.687   1.213  16.091 -0.0366 -0.1162 -0.2012
22414W        W37883  11.987  13.495   4.961  0.1870 -0.0385 -0.0131
22415W        W37884   7.175   6.684   0.501  0.1331  0.2606  0.0591
22416W        W37885  10.349  17.401  13.048 -0.4823 -0.0285 -0.0391
22417W        W37886   0.364   5.952   0.204 -0.0683  0.2676  0.0472
22418W        W37887  15.792   0.056   0.986  0.0774 -0.0522 -0.2178
22419W        W37888  15.901   3.510   3.254  0.3831 -0.1570  0.0390
22420W        W37889  17.719  16.063   4.021 -0.1050  0.0279 -0.2921
22421W        W37890  16.353  14.510  15.610  0.1425 -0.0682 -0.2150
22422W        W37891   2.605  13.781  14.843  0.0139  0.0091 -0.0138
22423W        W37892  14.375  16.357  12.904 -0.1957  0.1062 -0.2431
22424W        W37893   7.158   8.746  11.546  0.2518  0.0372 -0.2058
22425W        W37894   2.195   9.785  11.362 -0.2119 -0.2463  0.4211
22426W        W37895   2.780  13.744  12.071 -0.0497 -0.0968 -0.1737
22427W        W37896   1.856  15.196  16.039  0.1443  0.2592 -0.0647
22428W        W37897  12.538   5.358  14.938 -0.2217  0.1921 -0.3288
22429W        W37898   3.072  10.727  13.806  0.0466  0.0882  0.1412
22430W        W37899  12.365  11.936   4.988 -0.1485  0.1518  0.2621
22431W        W37900   7.279  15.455   0.941 -0.1794  0.2887 -0.0860
22432W        W37901   0.596   4.779   1.546 -0.0984 -0.0311 -0.3836
22433W        W37902  10.849   1.781   3.689  0.1815  0.0665  0.1259
22434W        W37903   8.700   9.466   2.461  0.1176 -0.2192  0.2172
22435W        W37904  15.600  15.644   6.173  0.0404  0.1373  0.1622
22436W        W37905  12.282   5.701  13.128  0.0807 -0.2970 -0.3109
22437W        W37906  11.790   9.463   2.447  0.0225 -0.1574  0.3027
22438W        W37907   6.343   9.886   3.613  0.2101 -0.1821  0.1655
22439W        W37908   9.284  14.261   0.592  0.2463  0.0531 -0.2057
22440W        W37909   2.404  14.755   5.716 -0.0749 -0.2399 -0.0150
22441W        W37910   2.010   0.150  12.875 -0.1440 -0.0158 -0.2064
22442W        W37911  12.890  12.048  11.742 -0.2528 -0.0733 -0.0854
22443W        W37912   2.437  15.034  14.198  0.0750  0.3365  0.2096
22444W        W37913   7.013  17.886   3.049  0.0412 -0.2328  0.0627
22445W        W37914  11.407   8.821   0.924 -0.1472  0.0103  0.2490
22446W        W37915   3.296   5.318  15.283  0.0186 -0.2302  0.0097
22447W        W37916  13.155   6.117   1.341  0.1240 -0.1686 -0.0630
22448W        W37917  15.173   6.877   5.034 -0.0709  0.1593 -0.1821
22449W        W37918   4.531  15.006  16.188 -0.0372 -0.4747 -0.1914
22450W        W37919   9.551  10.037  15.653 -0.0409  0.1706  0.0915
22451W        W37920   1.264   5.260  15.994  0.2125  0.0314 -0.1016
22452W        W37921  15.199  10.233   5.966  0.0071 -0.2260  0.0936
22453W        W37922   1.913   4.283  11.754  0.1705  0.1143  0.1967
22454W        W37923   5.720  13.314   4.781  0.2997  0.1029 -0.1279
22455W        W37924  15.489   1.955   3.121 -0.2990 -0.3217  0.0902
22456W        W37925   3.539   1.893   5.134 -0.0080 -0.1404  0.3417
22457W        W37926  15.069   3.116  14.376 -0.1211  0.3699 -0.1396
22458W        W37927  11.067   1.588   6.093  0.0307 -0.2386 -0.1075
22459W        W37928  14.043   6.825  10.867  0.2577  0.1142 -0.0340
22460W        W37929   0.870   0.114   2.871 -0.0579 -0.2083 -0.0952
22461W        W37930   4.789   5.722   5.037  0.0519 -0.0691 -0.0125
22462W        W37931  15.433  12.568   4.072  0.0394  0.0313  0.0007
22463W        W37932   4.247  13.686  14.359 -0.3022 -0.2862  0.3043
22464W        W37933  15.300   9.919   2.928  0.3004 -0.0706 -0.1839
22465W        W37934   8.789   5.966   1.823  0.0104  0.1259  0.2297
22466W        W37935  13.590   3.067  15.804  0.0202  0.2766  0.0030
22467W        W37936  15.016   6.822  16.237 -0.2347  0.1515  0.0428
22468W        W37937   4.348  14.909  14.819  0.3235 -0.0629 -0.0317
22469W        W37938  10.201   0.887  13.411  0.3632  0.4017  0.1930
22470W        W37939   3.213  16.762  14.166  0.0052 -0.2596  0.2538
22471W        W37940   7.194  14.851   0.357 -0.1271 -0.0967  0.0242
22472W        W37941   6.132  16.003   4.196 -0.3608  0.0168 -0.0149
22473W        W37942   4.824  10.613   4.680 -0.3651 -0.0677 -0.2854
22474W        W37943  14.708  14.625  12.181 -0.2050 -0.0932 -0.1259
22475W        W37944   4.713  14.840  12.553  0.0280  0.0436 -0.0869
22476W        W37945   6.432  13.891   5.022  0.2303 -0.1979 -0.3599
22477W        W37946   9.329   3.121   0.566  0.2938  0.0895 -0.1875
22478W        W37947  17.313   1.772   2.080 -0.2327 -0.0473  0.1223
22479W        W37948   9.492  14.628  13.368 -0.0433  0.0796 -0.0976
22480W        W37949   7.066   3.688  16.384  0.0895 -0.0894  0.0961
22481W        W37950  15.157   1.523  13.720 -0.0621 -0.1430 -0.0517
22482W        W37951  13.095   1.067   3.333  0.0055  0.0297  0.1443
22483W        W37952  11.196   7.931   5.945  0.1034  0.1015  0.1110
22484W        W37953   3.558   4.745  14.659 -0.1112 -0.0105  0.1625
22485W        W37954   4.618  10.223  16.567 -0.2307  0.2796  0.2265
22486W        W37955  12.769  17.112   0.754 -0.1584  0.0344 -0.0644
22487W        W37956   6.112   5.717   2.854  0.3433  0.1981  0.3622
22488W        W37957   6.222   2.069  12.062  0.1223 -0.3516 -0.1340
22489W        W37958  12.342  14.094  16.497 -0.5144  0.0236 -0.0334
22490W        W37959   4.344   9.065   4.392  0.3549 -0.0519  0.1250
22491W        W37960   3.612   9.232   4.346  0.0297 -0.1822  0.2099
22492W        W37961  13.766   9.884  13.953  0.0542 -0.0420  0.1726
22493W        W37962  10.991   9.743  16.271 -0.0246  0.1904  0.2269
22494W        W37963  17.624   0.483  15.369  0.1619  0.0737 -0.2565
22495W        W37964  13.814   8.223  12.087 -0.0490  0.1211  0.2064
22496W        W37965   8.845   7.808  14.110 -0.2983  0.0789  0.1575
22497W        W37966  10.841  17.269  12.468 -0.0755 -0.1280  0.2123
22498W        W37967  10.719   6.886  11.130  0.1425  0.0711  0.0309
22499W        W37968  10.071   6.525  13.432  0.1848 -0.2224  0.0009
22500W        W37969  11.839   6.012  14.726  0.0786 -0.3606  0.0296
22501W        W37970   7.792  17.362  10.425 -0.0952  0.2653 -0.0484
22502W        W37971  10.592   3.911  12.442 -0.3369 -0.3345  0.2633
22503W        W37972  10.001   9.043   1.662 -0.0962 -0.1284 -0.1014
22504W        W37973   6.116  14.204   4.755  0.1734 -0.1654  0.0672
22505W        W37974   3.458   1.484   3.153 -0.0047 -0.0861  0.1564
22506W        W37975   5.990  16.928   4.586  0.0213 -0.1886  0.1139
22507W        W37976   8.297  17.696   4.047  0.2066 -0.1614 -0.0666
22508W        W37977   1.197   8.892  13.816 -0.3152  0.1540  0.2162
22509W        W37978   6.352  17.151   3.109 -0.1935 -0.1128  0.4525
22510W        W37979   6.860   3.497  15.885  0.3408 -0.2491  0.1074
22511W        W37980  11.122   7.269   1.401  0.0365  0.2468 -0.0919
22512W        W37981   2.934  10.556   2.024  0.2381  0.0185  0.0029
22513W        W37982  12.140   2.900   5.215  0.0258 -0.2666 -0.2094
22514W        W37983   9.492   5.593  11.444 -0.2171 -0.0756  0.2959
22515W        W37984  13.721  17.008   6.112  0.3280 -0.0641 -0.0185
22516W        W37985   7.096  16.424  10.789  0.2893 -0.0860  0.3097
22517W        W37986  13.031   2.682   5.233  0.1618  0.0174  0.0639
22518W        W37987  10.407   8.955  11.539  0.1512 -0.0044 -0.0617
22519W        W37988   3.253   9.489  11.253  0.0023 -0.1644  0.3838
22520W        W37989   1.726   5.986   1.284  0.3999  0.3267  0.0287
22521W        W37990   0.957   2.328   1.401 -0.2066  0.4067 -0.1151
22522W        W37991   9.411  11.317   0.206 -0.0262  0.1069  0.0863
22523W        W37992  11.050   9.333   2.737 -0.2452  0.1567  0.0896
22524W        W37993   2.062   7.341   5.199 -0.2133 -0.2378 -0.0178
22525W        W37994   7.938  11.663  11.209 -0.0425 -0.0950 -0.1060
22526W        W37995  16.597  12.319   3.117 -0.1207  0.2128 -0.4400
22527W        W37996  15.504  10.415   0.289 -0.2057  0.0088 -0.3388
22528W        W37997   9.293  10.923  10.021  0.1942  0.2993 -0.2594
22529W        W37998   2.698   2.731   0.659  0.0413  0.1515 -0.0728
22530W        W37999   5.697  17.137  14.279  0.0732 -0.2163  0.2270
22531W        W38000   4.027   0.317  13.796 -0.4138 -0.2516 -0.1716
22532W        W38001  10.745  11.893   2.907 -0.1511  0.0214 -0.1815
22533W        W38002  14.733  17.946  15.294  0.4265  0.0128 -0.0951
22534W        W38003   7.667  13.852  12.913  0.1949  0.2955  0.3859
22535W        W38004   1.264   6.436   1.263 -0.3065  0.1039  0.1063
22536W        W38005  15.859  17.886   2.019  0.0478  0.2502  0.2754
22537W        W38006  13.288   0.650  15.382 -0.2482  0.2795 -0.0001
22538W        W38007   1.318  17.989   5.902 -0.0878 -0.2098 -0.1295
22539W        W38008  15.815   2.798  16.039  0.2228 -0.1350  0.0965
22540W        W38009   9.107   0.953  13.493  0.1115 -0.1312 -0.2048
22541W        W38010   9.880  17.650   5.203 -0.1769  0.3290 -0.2136
22542W        W38011   5.663   1.648   3.297  0.2682 -0.2327 -0.0310
22543W        W38012  15.784   5.126  15.467 -0.0675 -0.1538 -0.0865
22544W        W38013   8.745   0.195   3.921  0.4055 -0.4585 -0.1460
22545W        W38014   4.381   8.397  11.691 -0.0237  0.1718 -0.1445
22546W        W38015  12.130  13.184   5.399  0.0460 -0.0199 -0.1211
22547W        W38016  11.574  13.377  14.393  0.3414 -0.1059 -0.0739
22548W        W38017   0.566   6.681  11.571  0.0386  0.0225  0.2360
22549W        W38018  13.146   4.873  15.468  0.1142  0.2499 -0.4253
22550W        W38019  17.545  12.652   1.062  0.0380  0.0793 -0.3401
22551W        W38020   8.089   2.474   2.285  0.3133 -0.2003 -0.1076
22552W        W38021  14.636  16.981   4.943  0.0481 -0.2222  0.0447
22553W        W38022  13.507   8.529  15.321  0.1220  0.1580  0.0738
22554W        W38023   6.175  16.893   0.632 -0.2217 -0.1185 -0.0669
22555W        W38024   9.383   2.905  14.269  0.0812 -0.1553 -0.2136
22556W        W38025   3.849  11.158  11.703 -0.0207  0.0189  0.2249
22557W        W38026   7.775   4.700   4.589 -0.1386 -0.2181 -0.3775
22558W        W38027  10.451   7.224  11.386  0.1538  0.1730 -0.1187
22559W        W38028  11.099   3.422   1.818  0.1250  0.2310  0.4075
22560W        W38029   2.109   2.655  10.768  0.1449 -0.2601 -0.1983
22561W        W38030   8.068  13.852   1.857 -0.0188 -0.0791  0.1624
22562W        W38031   2.124   0.950  15.707 -0.0116 -0.0454  0.0415
22563W        W38032   2.646   3.160  11.176  0.0656 -0.2445 -0.2317
22564W        W38033  16.611   9.670  14.735 -0.1510 -0.1291 -0.2470
22565W        W38034   8.274  10.389   4.280 -0.1164  0.0324  0.2408
22566W        W38035  16.506   9.954   1.547 -0.1182 -0.2882  0.0058
22567W        W38036  12.455   4.245  10.597 -0.0604  0.0789  0.4927
22568W        W38037  14.597  13.091  15.434  0.0366 -0.1761  0.2972
22569W        W38038   3.153   0.599  14.031  0.1727  0.0338  0.2671
22570W        W38039   6.497  14.604  12.702  0.1143 -0.1738 -0.2793
22571W        W38040   0.903  13.724  14.952 -0.0861 -0.1685 -0.0497
22572W        W38041   0.951  13.537   5.020 -0.0586  0.0691  0.0224
22573W        W38042   3.033   5.937   1.182 -0.2843  0.1211  0.2869
22574W        W38043   0.545  10.864  14.006 -0.1790 -0.0071 -0.1836
22575W        W38044  12.655  14.170   3.397  0.4516  0.1754  0.3605
22576W        W38045  17.789   7.815   3.338  0.0644  0.0183 -0.2109
22577W        W38046   6.887   0.544  11.721  0.1618 -0.1941  0.0091
22578W        W38047   3.106   2.571   1.132  0.0079 -0.1991 -0.1252
22579W        W38048   8.815   1.402   6.724  0.4428 -0.3201 -0.0442
22580W        W38049  12.077   6.613   4.758 -0.2246  0.0540  0.1392
22581W        W38050  13.570  14.904   2.633 -0.0640  0.0921 -0.0205
22582W        W38051  16.048  17.655  14.501  0.0674  0.1030  0.0846
22583W        W38052   1.179  11.660   5.249  0.1220 -0.1489  0.2250
22584W        W38053  11.790   2.082  13.589  0.5045 -0.1732 -0.3536
22585W        W38054  11.143   4.402   6.074 -0.1786 -0.0847 -0.1474
22586W        W38055   1.928   5.153   0.191 -0.2296 -0.0455 -0.1579
22587W        W38056   7.157  12.246   2.700  0.0147  0.1415  0.1395
22588W        W38057   9.569   6.147   0.977  0.0771  0.0811  0.1177
22589W        W38058   6.398   0.866  15.322  0.0173  0.1095  0.1316
22590W        W38059   9.113  13.357   4.320  0.0718 -0.0344 -0.3255
22591W        W38060   4.916  14.624   2.988  0.2381 -0.2014 -0.1042
22592W        W38061   6.743  11.143  14.215 -0.0938  0.1471 -0.2346
22593W        W38062  15.830   3.314  13.236 -0.1593 -0.0402 -0.1887
22594W        W38063  11.200  15.813   2.485 -0.3065  0.0985  0.2176
22595W        W38064   9.069  17.105  12.836  0.1361 -0.3110 -0.0555
22596W        W38065  13.787  11.988   0.537  0.0147 -0.1744  0.0253
22597W        W38066  12.992  10.197   3.637  0.1706 -0.0154  0.5260
22598W        W38067  10.941   9.124   3.252  0.1332  0.3026 -0.2196
22599W        W38068   4.210  14.561  15.160 -0.1947 -0.1176 -0.2081
22600W        W38069  16.811  17.569  15.020  0.0797  0.3605 -0.0975
22601W        W38070   6.828   6.466  11.235  0.0596 -0.0271  0.0140
22602W        W38071   7.255   6.992  15.032  0.3016 -0.1274  0.0391
22603W        W38072   5.434   5.066  16.275  0.1065  0.1576 -0.1942
22604W        W38073   6.291  12.074   3.139 -0.2607 -0.1687  0.3211
22605W        W38074   9.864   0.917   3.275  0.0052  0.0700  0.0483
22606W        W38075   6.801   9.258   0.389  0.0607  0.0607 -0.1348
22607W        W38076  12.677   3.059   3.648 -0.5144  0.0212  0.0085
22608W        W38077   4.713  15.112   2.910  0.1246 -0.3734 -0.1180
22609W        W38078   1.706  17.674  15.747  0.0018  0.0870  0.1742
22610W        W38079   6.552   9.212  14.382 -0.0598 -0.1340 -0.0080
22611W        W38080  17.192  16.489   1.965  0.1546  0.1411 -0.3587
22612W        W38081   1.427   3.999  13.739 -0.2969  0.1059 -0.0915
22613W        W38082   0.271  15.754  14.072  0.2707  0.4052  0.2888
22614W        W38083   8.250  11.306  13.048  0.1395  0.0331  0.2059
22615W        W38084  13.781  15.194  12.944 -0.0520  0.2279 -0.0667
22616W        W38085  14.749   9.668  13.575 -0.2313 -0.1145 -0.0654
22617W        W38086   6.607  17.924  13.895  0.1683  0.2471 -0.0483
22618W        W38087   3.197   0.769  16.197 -0.1583 -0.0462  0.1007
22619W        W38088  17.920  10.981   2.925 -0.1058 -0.1145 -0.1534
22620W        W38089  12.216   9.854   2.429  0.0445 -0.0887 -0.1933
22621W        W38090   9.873   2.575  10.528  0.0702  0.1937  0.2356
22622W        W38091   7.745   2.714   3.057  0.2576 -0.1291  0.1756
22623W        W38092   2.664  12.875   2.675 -0.0834 -0.0928  0.0403
22624W        W38093   8.499   3.024   2.711  0.3638 -0.2126 -0.3516
22625W        W38094  15.319  13.760  16.385 -0.1347  0.0181 -0.3624
22626W        W38095  16.183  10.341  14.914  0.2743 -0.0821  0.4642
22627W        W38096   7.482  10.060  10.659 -0.0849 -0.1464  0.1655
22628W        W38097  10.913  15.435  12.353  0.0367  0.1403 -0.1598
22629W        W38098   8.835  16.454   4.090 -0.0455 -0.1880 -0.0221
22630W        W38099  14.357  11.051  13.670  0.0281 -0.1388  0.0605
22631W        W38100   0.625  14.694   1.942  0.0053 -0.1915 -0.0425
22632W        W38101   9.338  15.228  15.662  0.1399  0.0624 -0.1359
22633W        W38102   4.213  17.873  11.606  0.2325 -0.2093 -0.0119
22634W        W38103  16.683  10.195  10.951 -0.1086 -0.0185  0.2064
22635W        W38104  11.413  10.447  16.084 -0.0699  0.0190 -0.0565
22636W        W38105  14.343  11.194   3.402  0.1589 -0.0074 -0.3870
22637W        W38106  14.587  10.069  11.886 -0.2242 -0.3621 -0.3030
22638W        W38107   3.228   9.260   2.460 -0.3783  0.0467 -0.0748
22639W        W38108   9.704   3.665  13.894 -0.1122 -0.0833  0.1070
22640W        W38109   6.428  12.864  14.915  0.2157 -0.1717  0.1166
22641W        W38110  15.966  13.540   5.241 -0.0639 -0.2795  0.0337
22642W        W38111   3.022   8.878   1.125  0.0680  0.1621  0.0224
22643W        W38112   1.395  17.001   1.352  0.1054 -0.1112 -0.3299
22644W        W38113   4.079   5.874  16.576  0.0193 -0.1089 -0.1545
22645W        W38114  15.247  13.440  14.616 -0.0401  0.0119  0.3861
22646W        W38115   5.829   1.429   1.317 -0.1854  0.1719  0.1273
22647W        W38116   5.789   4.185   1.898  0.3388  0.1549  0.0788
22648W        W38117   7.719   6.655   0.618 -0.0859 -0.0478  0.1429
22649W        W38118   6.958  14.087  13.918 -0.0373 -0.2414 -0.1321
22650W        W38119  14.213   6.593  14.546 -0.0828 -0.2486 -0.0788
22651W        W38120   8.301   8.560   2.851  0.2290  0.2139  0.2111
22652W        W38121  12.630   2.204   0.428  0.0725 -0.0697  0.3105
22653W        W38122   9.950  13.520   0.390  0.0638  0.0891 -0.0428
22654W        W38123   0.737  16.009  12.805  0.2836 -0.2084 -0.2022
22655W        W38124  11.812  11.340   4.282  0.2455 -0.2805  0.0899
22656W        W38125   3.733  13.040  11.484  0.2107  0.1819  0.1186
22657W        W38126  16.605   3.915  13.015  0.1011 -0.2561  0.1522
22658W        W38127  15.392  12.206   4.923  0.2364 -0.0633  0.2567
22659W        W38128   0.953   7.800  11.742 -0.1076  0.3575  0.0563
22660W        W38129  11.954  17.911  14.234  0.2366 -0.2468 -0.2122
22661W        W38130  17.976  16.535   2.578  0.3169  0.0001  0.3704
22662W        W38131   9.784  16.300  14.593  0.1068 -0.0671 -0.4022
22663W        W38132  10.227  15.116  13.991 -0.1933 -0.5113 -0.0256
22664W        W38133  16.654   1.358   3.939  0.2892  0.0016  0.4075
22665W        W38134  11.456   2.792  13.510  0.0282 -0.1843  0.1774
22666W        W38135   3.037   0.753  15.613 -0.1316 -0.1317  0.0231
22667W        W38136   5.076  10.760  16.520  0.3061 -0.0192  0.2340
22668W        W38137   0.972   8.991   4.838  0.0428  0.0057  0.1784
22669W        W38138  17.867   7.666   2.409  0.2407 -0.0356 -0.1394
22670W        W38139   5.676   1.114   2.054  0.1813  0.2508 -0.1505
22671W        W38140   3.263   9.205   0.373  0.0262  0.1524  0.0610
22672W        W38141   5.170   5.233   3.805 -0.1274 -0.0619 -0.1760
22673W        W38142   5.471  14.399  13.070 -0.0852  0.1469 -0.0878
22674W        W38143   9.203   6.578  11.510 -0.0631 -0.2914  0.0480
22675W        W38144  16.402   4.036   5.508  0.2138  0.0765  0.0277
22676W        W38145   6.711   8.405   4.599 -0.1493  0.0355  0.1032
22677W        W38146   1.594  16.274   4.385  0.1864  0.0486 -0.2936
22678W        W38147   0.029   1.775   1.273  0.0519  0.1129  0.0570
22679W        W38148  14.103  17.037   4.198 -0.0334  0.0283  0.1185
22680W        W38149   9.868   4.323  13.333  0.0337 -0.0182 -0.0430
22681W        W38150   7.988   7.757  16.463  0.1197  0.0885 -0.2513
22682W        W38151   1.733   3.562   1.091  0.0035  0.2957  0.1960
22683W        W38152   9.458  10.609   4.902  0.1481  0.1304 -0.0146
22684W        W38153   1.623   9.125  11.047  0.1025 -0.1476  0.1377
22685W        W38154   4.346   7.701  14.798 -0.1622 -0.2656 -0.1142
22686W        W38155  15.249   5.314   0.279 -0.2428 -0.0084  0.0229
22687W        W38156  16.760  15.210   3.521  0.0345 -0.0747  0.1211
22688W        W38157  15.555  11.546   0.657 -0.2988 -0.5922  0.0722
22689W        W38158  17.649  12.593   0.593 -0.0252 -0.0563  0.1011
22690W        W38159   5.652   1.469   4.805 -0.1242 -0.2634  0.0275
22691W        W38160   9.300   0.190   0.058  0.1279 -0.5542  0.3781
22692W        W38161  15.261  14.429  12.437  0.0214  0.0902 -0.1585
22693W        W38162  14.719   6.394  14.477 -0.0042  0.4574 -0.2264
22694W        W38163   3.277  16.728  11.164 -0.0350  0.1736 -0.1730
22695W        W38164  10.690  14.824  14.559 -0.2275  0.0714 -0.0908
22696W        W38165   3.888  17.399   0.413 -0.1149 -0.0351  0.1817
22697W        W38166   2.664  17.762  14.488 -0.0584 -0.1335 -0.0611
22698W        W38167   1.911   0.056   1.262  0.1897 -0.1590  0.1476
22699W        W38168   1.249   3.000  13.867  0.2652 -0.4003 -0.0286
22700W        W38169  16.007   7.839  16.497  0.2455  0.3332  0.0811
22701W        W38170  11.379  17.418  15.893 -0.2051  0.0956 -0.2053
22702W        W38171   0.232  12.970  15.958 -0.1024  0.0550  0.1326
22703W        W38172  15.890   7.571  10.437  0.2252  0.1343 -0.2810
22704W        W38173   9.472  16.282  13.158 -0.1301  0.2131 -0.1089
22705W        W38174   5.819  17.808   0.406 -0.1393 -0.1887  0.2735
22706W        W38175   7.141   8.401  14.564 -0.0702  0.3119 -0.0390
22707W        W38176  17.301   7.288  16.314  0.0934 -0.0721  0.0514
22708W        W38177   7.210  12.099  12.634  0.1333  0.2868 -0.2589
22709W        W38178   8.312  17.839   5.245  0.0854 -0.2590 -0.1256
22710W        W38179  17.367   9.892   4.700 -0.2394 -0.1892 -0.0901
22711W        W38180  16.964  12.257   3.697  0.0514 -0.2454  0.2640
22712W        W38181   7.995   7.045   1.846 -0.1406 -0.1352  0.0503
22713W        W38182   8.413   6.453  16.549 -0.1950 -0.2541  0.3895
22714W        W38183   2.359  17.426  14.139 -0.1226 -0.0238  0.1230
22715W        W38184   1.389   3.225   1.836  0.1978 -0.3258 -0.3247
22716W        W38185   0.986   9.210  15.113  0.2059  0.2319  0.2432
22717W        W38186   0.231   6.503   2.323  0.0127  0.0989 -0.3889
22718W        W38187   2.180   7.722   2.995  0.2066  0.3536  0.2533
22719W        W38188   6.516   0.419  15.557  0.2787  0.3176 -0.0436
22720W        W38189  13.844  12.813   5.401 -0.2455 -0.1010 -0.2487
22721W        W38190  17.420  17.068   0.555  0.0951  0.5726 -0.0624
22722W        W38191  13.490   8.275   5.059  0.3503  0.0389 -0.0442
22723W        W38192  15.473   2.087  15.613  0.3944 -0.2665 -0.2150
22724W        W38193  11.185   0.021   3.278  0.0984 -0.3328 -0.0122
22725W        W38194   9.056   4.708   3.297 -0.2678 -0.1823 -0.0055
22726W        W38195  15.307  13.628   5.267  0.1003  0.3106 -0.2182
22727W        W38196  11.587  16.949   0.681  0.1915  0.0486 -0.0693
22728W        W38197  11.879   2.181   3.782  0.0904 -0.1396 -0.4194
22729W        W38198  16.344   0.224  16.051 -0.3995 -0.3351 -0.2244
22730W        W38199  14.413   6.347  12.504  0.0811  0.1708  0.0307
22731W        W38200  15.331  14.120  15.677  0.0526  0.1754  0.0589
22732W        W38201  17.239  14.976  16.445  0.0231  0.1824  0.0318
22733W        W38202   3.670   6.955  11.777 -0.1156  0.1463  0.1655
22734W        W38203  13.833  10.423  12.480 -0.0960  0.3763  0.0747
22735W        W38204  12.431   2.808   1.347  0.1795 -0.2689 -0.3202
22736W        W38205   6.158  12.655   2.679  0.1784  0.1465  0.0003
22737W        W38206   0.134  13.782  15.542 -0.0782 -0.1043  0.0030
22738W        W38207   0.990  16.136  16.131  0.0835  0.0833  0.2555
22739W        W38208   2.155  14.917  16.315 -0.2186  0.0093 -0.4173
22740W        W38209  12.103   1.753   2.682  0.1603  0.3788 -0.1008
22741W        W38210   7.702  13.134   0.632  0.2354 -0.1616  0.0055
22742W        W38211   7.134   5.212   3.437 -0.2986 -0.1469  0.1846
22743W        W38212   1.352   8.886  12.749 -0.1540 -0.1249  0.2502
22744W        W38213   7.632   7.444   5.239  0.0426  0.2616 -0.0210
22745W        W38214   2.650   4.644   2.709  0.2186  0.2268  0.0450
22746W        W38215  12.129   8.932   2.830 -0.1481 -0.1355  0.0877
22747W        W38216   3.314   8.176  16.559  0.2395  0.1215  0.1547
22748W        W38217   5.601   6.758   5.042 -0.1845  0.1300 -0.0326
22749W        W38218   0.391   6.721  14.762  0.2146 -0.4008 -0.3571
22750W        W38219   9.279   2.348  15.986 -0.1673 -0.0331  0.0203
22751W        W38220  17.273  13.207   4.617  0.3310  0.0396  0.1251
22752W        W38221   4.120   2.784   3.356  0.1249  0.2491 -0.0148
22753W        W38222  12.746   9.989  11.554 -0.1731  0.0773  0.1236
22754W        W38223   6.029  17.024  11.678 -0.1186  0.1229  0.1069
22755W        W38224  17.033  13.364   5.474 -0.6119  0.0215  0.1793
22756W        W38225   9.144  12.160   0.049 -0.2845 -0.0185  0.1182
22757W        W38226   2.981  16.150   3.187  0.0616 -0.1590  0.0225
22758W        W38227  13.052  12.499   2.485 -0.0763 -0.2197 -0.0695
22759W        W38228  11.488   4.210  13.887 -0.1699  0.1548 -0.0596
22760W        W38229   2.312  10.040   3.217  0.1495  0.1992  0.2200
22761W        W38230   6.341   8.702  14.135 -0.0575 -0.0442 -0.3089
22762W        W38231  17.620  10.548  11.427 -0.0674  0.2066 -0.0438
22763W        W38232   6.653  14.086   0.068 -0.2556 -0.0097  0.1557
22764W        W38233   2.193   5.704  15.963 -0.1467  0.3046 -0.1552
22765W        W38234  13.046  17.740   3.239 -0.2057 -0.4037  0.2564
22766W        W38235  12.393   0.621   5.593  0.0205 -0.2321  0.1938
22767W        W38236  13.337   4.122   3.276  0.2200 -0.1574 -0.1181
22768W        W38237   7.113  12.658  11.668  0.0355 -0.1497  0.1031
22769W        W38238  13.638   0.244   4.954  0.1845  0.1152  0.0142
22770W        W38239  11.579  13.718  13.124 -0.1594  0.0441  0.2649
22771W        W38240  15.274  16.624  12.579 -0.0469  0.3528 -0.0765
22772W        W38241   8.992  15.858  11.350  0.0940  0.1264 -0.0365
22773W        W38242   6.985   3.652   4.962  0.0046  0.0979  0.0129
22774W        W38243  11.506  11.113  12.283 -0.2207 -0.2047  0.4306
22775W        W38244   5.174  16.058   4.235 -0.0943 -0.0531 -0.2879
22776W        W38245  13.739   4.254  11.633  0.1296 -0.2494  0.1401
22777W        W38246  10.084  17.980   2.159 -0.1672 -0.1167  0.1441
22778W        W38247  14.071   6.596   0.564  0.0661 -0.3024  0.1581
22779W        W38248   7.856  17.948   3.713  0.0660 -0.1213  0.1005
22780W        W38249   1.364  10.545  12.988  0.1011 -0.0990 -0.1598
22781W        W38250  12.807   8.405  12.453  0.2786  0.2169 -0.1981
22782W        W38251  15.602  16.156  16.295  0.0222  0.3455 -0.0523
22783W        W38252  14.674   1.532   1.732 -0.0019  0.1685 -0.1519
22784W        W38253   6.034   6.290  11.282  0.0278  0.0447  0.1471
22785W        W38254  17.168  12.533   4.074  0.0790  0.1189  0.1995
22786W        W38255  11.566   7.678   0.758  0.0510  0.0855 -0.3141
22787W        W38256  14.006   2.127   0.633  0.0682  0.2299  0.3617
22788W        W38257  16.229  11.565   0.270 -0.0034  0.0108 -0.0033
22789W        W38258  11.980  15.356  15.146 -0.2134  0.1979  0.0038
22790W        W38259   2.138   8.039   3.446  0.0445  0.1538 -0.0219
22791W        W38260   3.298   0.786   2.626 -0.0557 -0.1783 -0.0291
22792W        W38261  13.188   6.286  15.999  0.1596  0.2320  0.1580
22793W        W38262   0.815   5.037  11.863 -0.0430 -0.3990 -0.0555
22794W        W38263  14.992  17.783  13.928  0.0401 -0.0078  0.2776
22795W        W38264  14.893   9.491  14.643 -0.0236 -0.0060 -0.0767
22796W        W38265  12.112  13.324   1.429 -0.1191  0.2115  0.0963
22797W        W38266   8.308  11.174   3.730 -0.0039  0.3799 -0.0558
22798W        W38267   1.958  12.314   4.465 -0.0162 -0.0726  0.2004
22799W        W38268   3.976  17.306   3.040 -0.1506 -0.0559  0.4382
22800W        W38269   3.350  11.404   1.326  0.1314  0.0300 -0.0617
22801W        W38270  17.880   4.271  11.759  0.0027  0.2450  0.0763
22802W        W38271   6.291  17.071   3.618  0.1237 -0.1377 -0.0395
22803W        W38272   4.671   4.481   4.857  0.2126 -0.1202  0.2003
22804W        W38273   5.864  10.375   0.747  0.0679  0.0302  0.1693
22805W        W38274   1.030  16.880   2.263  0.2249  0.0654  0.0503
22806W        W38275  17.057   3.480  14.651 -0.0219  0.0571 -0.1892
22807W        W38276  12.654   1.442   3.165  0.0614 -0.3456  0.3170
22808W        W38277  17.586   1.599  14.017  0.0392  0.0315 -0.1983
22809W        W38278   8.667   3.288   4.978 -0.4787 -0.0311  0.1664
22810W        W38279   0.157  13.322   2.045  0.0842 -0.1814 -0.1916
22811W        W38280   5.393   4.538  12.418  0.2936 -0.1466  0.1651
22812W        W38281   9.405   4.287   2.201 -0.1044 -0.0698 -0.0011
22813W        W38282   4.386   1.540   3.867  0.1209 -0.0355 -0.0712
22814W        W38283   3.379   8.305   4.920  0.0935  0.0961  0.1588
22815W        W38284  11.809  14.691   4.344  0.0597  0.2734  0.1849
22816W        W38285   3.248   0.642   4.191 -0.2296  0.0223  0.0468
22817W        W38286  13.672  11.133   0.849 -0.1170 -0.0366 -0.2479
22818W        W38287   8.713  14.174   2.553  0.1903 -0.1965 -0.1939
22819W        W38288  17.306  12.233  14.638 -0.0636 -0.0555 -0.1165
22820W        W38289  17.217  12.985   3.498  0.1305  0.1078 -0.0247
22821W        W38290   4.232   0.027   3.053 -0.1453 -0.1718 -0.2196
22822W        W38291  17.023   8.178  14.675 -0.5369  0.0095  0.0691
22823W        W38292   2.063   4.113  16.131  0.0539  0.0126 -0.2410
22824W        W38293  13.491  11.121   3.612  0.1569 -0.0201 -0.2315
22825W        W38294  10.124  12.130  12.874  0.2549  0.2794  0.0555
22826W        W38295   2.675   4.377   1.715 -0.2866 -0.2381  0.0042
22827W        W38296   2.144  15.412  16.471 -0.3337 -0.0052  0.0279
22828W        W38297  12.731   7.695  11.496 -0.1379 -0.1119 -0.1986
22829W        W38298   5.124  12.356  11.909  0.0818  0.1859 -0.0748
22830W        W38299   4.798   9.197   5.528 -0.2691  0.0253  0.1265
22831W        W38300   4.590  17.646  15.073  0.2815 -0.0300 -0.1408
22832W        W38301   3.500  17.943   4.237 -0.2033 -0.0060 -0.2306
22833W        W38302  16.936   2.236   5.327  0.0677  0.0254  0.0551
22834W        W38303   8.817   8.054  15.009  0.1199 -0.0137  0.2622
22835W        W38304   2.134   1.294   3.469  0.0400  0.1610 -0.1074
22836W        W38305  11.364   9.973   4.938 -0.2855 -0.0190 -0.0248
22837W        W38306  13.233  13.953  15.345  0.1138  0.4010  0.0553
22838W        W38307  17.929  11.652  12.715  0.2602 -0.3587 -0.1973
22839W        W38308   7.672   0.298  12.437 -0.0739 -0.4816  0.0354
22840W        W38309   1.161  13.903  12.409 -0.3274 -0.1043 -0.0599
22841W        W38310   5.630   2.827  14.015 -0.2300 -0.0456  0.0680
22842W        W38311   1.005  13.447  12.004  0.0614  0.0612 -0.1205
22843W        W38312  14.363  13.877  15.796  0.3265 -0.1353 -0.2392
22844W        W38313   9.743   1.785   2.771  0.1606  0.0916  0.1256
22845W        W38314   2.688   0.814   5.569 -0.1214  0.1645  0.1289
22846W        W38315   4.196  10.599  16.613 -0.0388 -0.0822  0.1343
22847W        W38316  11.912  10.765   0.044  0.1774 -0.3731  0.0213
22848W        W38317   0.124  11.584  13.582  0.1298  0.0190 -0.2140
22849W        W38318  13.324   8.071   5.679  0.3255 -0.0396  0.0332
22850W        W38319  13.667   5.026  12.233  0.1572  0.2036 -0.4317
22851W        W38320  15.099  15.478  10.627 -0.0704  0.0617 -0.0902
22852W        W38321  15.904  10.329  11.974  0.0583  0.2183  0.1181
22853W        W38322  12.566   8.484  15.956 -0.1387  0.1186  0.0758
22854W        W38323   7.481   8.235  14.961 -0.1665  0.0697 -0.2489
22855W        W38324  16.620   1.249   1.418 -0.1764  0.0916 -0.0754
22856W        W38325   7.665   8.903  11.872 -0.0720 -0.0614  0.0114
22857W        W38326  17.396   6.201  13.899 -0.0231 -0.1994 -0.0179
22858W        W38327  15.421   8.796  16.241 -0.2124  0.3924 -0.1524
22859W        W38328  12.112  12.922  13.998 -0.0257  0.0417  0.3346
22860W        W38329  17.160   9.552  13.271  0.0190 -0.0794 -0.0458
22861W        W38330   6.410   7.365   1.021 -0.0095 -0.3520 -0.0063
22862W        W38331  11.725   0.411  13.170  0.2583  0.0222  0.0575
22863W        W38332  10.355   0.645   3.292  0.0143 -0.2700 -0.3128
22864W        W38333  16.303   8.166   1.674  0.0592 -0.1266 -0.0989
22865W        W38334   9.657  11.390   3.459 -0.1623 -0.0921 -0.0307
22866W        W38335   7.181   5.190   5.138 -0.1893  0.2908 -0.0127
22867W        W38336  16.036  11.622   4.690  0.0494  0.2936  0.1149
22868W        W38337   0.869   9.958  16.398 -0.0374 -0.3612 -0.0960
22869W        W38338   5.422  16.325   2.907  0.0027  0.1914 -0.2881
22870W        W38339   6.403   6.008  14.940 -0.1072  0.1343 -0.1877
22871W        W38340  12.302  17.451   6.060  0.0300  0.4189  0.0562
22872W        W38341   5.598   3.603   0.383 -0.1013 -0.3496 -0.2012
22873W        W38342   0.728  12.747   4.100 -0.0341 -0.4091 -0.2184
22874W        W38343   7.342   0.296   5.338  0.3262  0.2096  0.0594
22875W        W38344  11.168  10.770   0.823 -0.1519  0.0848  0.1988
22876W        W38345   8.736   7.349  15.638 -0.2001 -0.1151 -0.2081
22877W        W38346   9.477  14.957   1.897 -0.1113  0.0456 -0.2994
22878W        W38347   1.016   4.393  16.255  0.1890 -0.1085 -0.0614
22879W        W38348   9.470   9.098   4.088  0.0923  0.0479 -0.1323
22880W        W38349  17.083   7.226  13.092 -0.1061  0.2828  0.1041
22881W        W38350  10.879   0.426   5.566  0.0645  0.0878  0.0335
22882W        W38351   4.433   4.307  12.391  0.1431 -0.0179 -0.3390
22883W        W38352   4.228  15.268  16.579 -0.3177 -0.1240  0.2235
22884W        W38353  14.327   1.206   0.903  0.0430 -0.2711  0.3765
22885W        W38354   8.619  15.306   3.131  0.0114  0.1786 -0.0013
22886W        W38355   5.783  12.645   1.960 -0.0001  0.4308 -0.1678
22887W        W38356  13.305  12.734  16.131  0.0556 -0.2014 -0.3156
22888W        W38357  16.180  17.723   1.217  0.2962  0.2888  0.1963
22889W        W38358  16.234  15.065   1.198 -0.1898 -0.0149  0.4482
22890W        W38359  17.172   7.300  10.962 -0.2129  0.1611  0.4859
22891W        W38360   5.149  12.886  12.581  0.1160 -0.1974 -0.1465
22892W        W38361  16.524  10.011   1.013 -0.4836 -0.0593 -0.1936
22893W        W38362  14.147  14.519   6.655  0.4809  0.0851 -0.0241
22894W        W38363   5.759   5.514   4.065 -0.1246 -0.0084  0.2831
22895W        W38364   7.431   6.852   0.081  0.0489  0.2438 -0.1202
22896W        W38365   5.771  17.496   0.878 -0.1503 -0.3353 -0.0724
22897W        W38366  11.236  13.330   2.135  0.2294 -0.0898  0.2529
22898W        W38367   1.278   2.533  14.049  0.0330  0.1117 -0.1805
22899W        W38368   5.150   9.392  12.564 -0.0209  0.1646  0.3643
22900W        W38369  16.253  17.933  16.468  0.0470  0.1902 -0.2853
22901W        W38370   4.174  11.047  11.347 -0.1885 -0.1650  0.0533
22902W        W38371   0.934  15.713   4.187 -0.1768 -0.0245  0.0567
22903W        W38372   1.029  16.120  12.196 -0.1672 -0.1868 -0.0829
22904W        W38373   9.758  17.013  10.934  0.0301  0.0179 -0.0141
22905W        W38374  13.009  15.586   1.628  0.1736 -0.0446 -0.1974
22906W        W38375   2.780  12.669  12.346  0.1460  0.0850  0.1533
22907W        W38376  15.027  10.255  13.521  0.3709  0.4416  0.0793
22908W        W38377  10.036  17.935  13.017 -0.1388 -0.1278 -0.1108
22909W        W38378   0.223  16.653  15.071  0.1716  0.0029 -0.1602
22910W        W38379  10.869  14.987   5.594 -0.1786  0.3026  0.0142
22911W        W38380  13.484  15.690   2.333 -0.2059 -0.1136  0.0048
22912W        W38381  15.338   3.233  13.006 -0.1484  0.1293  0.1749
22913W        W38382   8.007  13.130   3.108  0.3111 -0.2933  0.0813
22914W        W38383   2.160  11.428   4.114  0.1329 -0.0979 -0.1204
22915W        W38384  10.558  17.037   1.811  0.1060 -0.0719 -0.0577
22916W        W38385  17.479  17.295   3.084  0.0438  0.0159  0.3032
22917W        W38386   2.846   2.748  12.910  0.0552 -0.3375 -0.2014
22918W        W38387  17.180  13.873  15.682  0.0646 -0.0912  0.5072
22919W        W38388   9.469  14.377   5.111 -0.0527 -0.1675  0.0366
22920W        W38389   3.024  17.744  15.798 -0.1170  0.3254 -0.1363
22921W        W38390   4.859   8.852  16.363  0.0190  0.0403 -0.0709
22922W        W38391   3.674   4.705  13.080  0.0582 -0.0355  0.2681
22923W        W38392  17.627  13.682  14.177 -0.0519  0.5096  0.1383
22924W        W38393   3.795  12.068   4.428 -0.2692 -0.2742  0.1095
22925W        W38394   3.678   9.703  13.265 -0.2626  0.0581  0.0457
22926W        W38395   7.416   1.927   4.988 -0.1184 -0.3671  0.2983
22927W        W38396  16.029  10.095   1.528  0.0771  0.2136 -0.2773
22928W        W38397   7.576   5.812  14.341  0.2446  0.1718 -0.1471
22929W        W38398   5.246   2.796   1.770 -0.1687 -0.1366  0.0238
22930W        W38399  13.741  14.346   1.299 -0.0411 -0.0143  0.2048
22931W        W38400   1.459   2.002  14.925 -0.0721 -0.2292  0.0073
22932W        W38401  12.205   7.085   1.165  0.1383 -0.0736  0.1563
22933W        W38402  16.297   7.032   2.966  0.2118  0.0637  0.2060
22934W        W38403   0.790  15.691   4.736 -0.1880 -0.0437 -0.2431
22935W        W38404  14.751   5.674  16.095  0.0557  0.0749  0.0041
22936W        W38405  13.033  16.884   1.628  0.0680  0.1957 -0.0223
22937W        W38406  13.884   8.232   3.297 -0.1696 -0.2919  0.1273
22938W        W38407  15.171  13.389  12.785 -0.1837  0.1922  0.0681
22939W        W38408   4.169   9.606   2.814 -0.2698  0.1816 -0.0273
22940W        W38409  14.448  10.996  16.389 -0.0888  0.3718 -0.2278
22941W        W38410   2.604   2.612  15.224 -0.1640  0.0425 -0.2052
22942W        W38411   3.640  17.092  14.289  0.2497  0.0903 -0.3095
22943W        W38412  12.255  16.930   6.023  0.0871  0.0561 -0.0443
22944W        W38413  17.709   4.219  14.416  0.3815 -0.2141 -0.0758
22945W        W38414   9.824   9.010   5.109  0.2905  0.0084  0.1637
22946W        W38415   2.093   2.341  13.381  0.4030  0.3334 -0.0726
22947W        W38416  10.643  10.318   1.333  0.1584 -0.1028 -0.1214
22948W        W38417   5.886  10.038   2.822 -0.0657  0.0583 -0.0558
22949W        W38418   2.988   6.552   5.185  0.2920 -0.0043 -0.1928
22950W        W38419   9.841   0.114  12.112  0.0938  0.0493  0.1538
22951W        W38420  13.017   2.440  14.811 -0.1543 -0.0972  0.1281
22952W        W38421  10.393  16.214  11.958 -0.2680  0.1862  0.2242
22953W        W38422   2.777  13.213   2.297 -0.0477 -0.1142  0.0963
22954W        W38423   7.265  15.909   4.941 -0.1831 -0.2070 -0.3398
22955W        W38424   6.831  11.088   3.695  0.2718  0.2021 -0.0630
22956W        W38425   2.180   5.144   4.915 -0.3412 -0.1260  0.0046
22957W        W38426   3.969   5.683  16.097  0.0703  0.2057 -0.0477
22958W        W38427   6.822   4.953   5.451 -0.1948  0.2242  0.0309
22959W        W38428  12.838   8.165  11.491  0.1063  0.2525  0.1829
22960W        W38429  12.762   0.645   3.066 -0.0379 -0.0246 -0.5069
22961W        W38430  14.359   3.813   1.114  0.1640 -0.0461  0.4498
22962W        W38431  17.525   5.633  14.140 -0.0954 -0.0204  0.1662
22963W        W38432   6.463  15.347   4.702  0.0574  0.0329 -0.1311
22964W        W38433  17.550   7.828  10.664  0.1359 -0.2219  0.0222
22965W        W38434   2.859   4.097  11.464  0.3617  0.2228  0.0621
22966W        W38435  14.093   0.341   3.643  0.0062 -0.2274 -0.1525
22967W        W38436  17.484  12.842   1.560 -0.1597 -0.0181  0.0712
22968W        W38437   2.695  10.518  11.093  0.1060  0.0969  0.0399
22969W        W38438   2.568   6.622   2.077  0.1163  0.0069 -0.0277
22970W        W38439  16.327  15.046   5.308 -0.1716 -0.2337 -0.1021
22971W        W38440  17.182  12.594  15.465 -0.0948 -0.1392  0.1978
22972W        W38441  15.185  11.171   3.906  0.1111 -0.0050  0.2886
22973W        W38442  16.826  10.744  12.514  0.2396 -0.1790  0.2038
22974W        W38443   7.292   0.348   3.357  0.0347 -0.2246 -0.0007
22975W        W38444   9.037   3.227  13.568  0.0037 -0.0396  0.1194
22976W        W38445   8.597  12.885   1.681 -0.0870 -0.2608  0.0263
22977W        W38446  16.448  11.414  11.778 -0.0605  0.3856 -0.1961
22978W        W38447   9.049   5.416   4.190  0.2498 -0.2474 -0.3638
22979W        W38448   4.362   6.433   3.706  0.0858  0.1957  0.1426
22980W        W38449  12.872  17.967   0.305 -0.5661  0.0666 -0.3323
22981W        W38450   2.915  17.394   2.673 -0.1282  0.1103  0.1759
22982W        W38451   2.460  17.528  15.890 -0.0834  0.0494 -0.2382
22983W        W38452  15.296  15.879   5.405  0.0690 -0.2348 -0.1480
22984W        W38453  11.140   3.543   0.416 -0.0304 -0.1004 -0.0451
22985W        W38454   7.219  14.528  14.926 -0.1332  0.0268 -0.1928
22986W        W38455   9.622   2.902   1.304  0.1496  0.0307 -0.0161
22987W        W38456   0.503  17.661  13.536  0.1266 -0.0466 -0.2549
22988W        W38457   3.733   5.369   2.554  0.0068 -0.0516  0.0236
22989W        W38458   3.576  14.578  14.475 -0.0987  0.1927 -0.0998
22990W        W38459   7.960   1.805   0.076 -0.1623 -0.0129  0.0470
22991W        W38460  15.146  14.200  12.012 -0.1407 -0.2477  0.1871
22992W        W38461   0.777   2.667   4.953  0.1654 -0.3039  0.0560
22993W        W38462   2.290  13.092  13.619 -0.1471  0.1926 -0.0366
22994W        W38463  12.777   6.975   0.977 -0.2103  0.4467  0.1509
22995W        W38464   4.087  14.522   0.827 -0.3965 -0.1320 -0.4583
22996W        W38465  11.647  17.971   3.034 -0.0320  0.3135 -0.3041
22997W        W38466   4.637   2.356   5.216  0.0127  0.2262  0.0195
22998W        W38467   7.264  13.757   0.133  0.3767  0.0270  0.0867
22999W        W38468  14.700  13.623  12.335 -0.0511  0.2043  0.3177
23000W        W38469   8.730  10.218   3.750  0.0759 -0.1845  0.0545
23001W        W38470   7.385   6.322   1.593 -0.2373 -0.0899  0.1066
23002W        W38471  12.981  17.251  14.982  0.1598  0.2677 -0.0221
23003W        W38472   1.261  15.505  13.427 -0.0592  0.0482  0.0828
23004W        W38473   3.285  15.533   2.543 -0.0911 -0.0325 -0.2117
23005W        W38474   8.317  13.981  11.492  0.0135 -0.0403  0.2587
23006W        W38475   3.621   2.248  11.261 -0.0680 -0.0983  0.0457
23007W        W38476   9.957   9.078   4.151  0.1468 -0.0635 -0.1463
23008W        W38477  12.664   7.285  10.810 -0.2469 -0.0322 -0.1239
23009W        W38478   0.128   6.014   2.591 -0.0078 -0.2167  0.1967
23010W        W38479   4.069   9.833  15.508  0.1886 -0.1572 -0.2882
23011W        W38480  13.295   7.955   9.888 -0.0932 -0.0239  0.4361
23012W        W38481  15.201  13.010  10.822 -0.1654 -0.0315  0.0866
23013W        W38482   4.303   8.942   1.186 -0.2508 -0.2293  0.0950
23014W        W38483   9.159  15.395   5.300 -0.0340 -0.0694 -0.3487
23015W        W38484   7.499   8.660   4.622  0.0701 -0.0385 -0.0845
23016W        W38485   3.595   1.111  14.713  0.1942  0.0257 -0.1529
23017W        W38486   3.611  15.857   2.689  0.1346  0.0903 -0.0205
23018W        W38487   4.831   4.982  10.698 -0.0270  0.3324 -0.0039
23019W        W38488   4.550   5.687  14.388 -0.1165 -0.1248 -0.1184
23020W        W38489   1.614   4.248   1.814 -0.1401  0.1354 -0.1368
23021W        W38490  11.233  15.319   4.403  0.3266  0.3361 -0.1286
23022W        W38491  14.481   6.641   1.349  0.0785  0.1464 -0.1864
23023W        W38492   9.888   1.031   4.315  0.0708  0.0800  0.0469
23024W        W38493   4.785  17.902  16.605 -0.1259  0.0321  0.1025
23025W        W38494   8.228   1.668   0.559  0.3085  0.1819 -0.1884
23026W        W38495   0.004   6.574   1.769 -0.0402  0.2288  0.0670
23027W        W38496  17.805  12.709  15.782 -0.1196 -0.1743 -0.2331
23028W        W38497  13.789   6.139   4.308 -0.0472  0.2053  0.0614
23029W        W38498  13.198   6.060  11.503 -0.0299  0.0514  0.1858
23030W        W38499  16.002  15.110  12.216  0.0244 -0.2130  0.0660
23031W        W38500   2.830   4.596  11.504  0.1552  0.3969  0.1095
23032W        W38501   9.823   0.792  13.040 -0.0081  0.0271 -0.0477
23033W        W38502   8.735  11.282   3.385 -0.1433  0.0654  0.0370
23034W        W38503  16.985   3.291  12.522  0.2093 -0.0900  0.1635
23035W        W38504   4.476  11.062  13.873  0.3237  0.0041 -0.1361
23036W        W38505   3.278  13.217   0.916 -0.2583 -0.0951  0.4269
23037W        W38506   7.239   9.340  13.228  0.0287  0.0071 -0.0195
23038W        W38507  17.573   8.657   4.644  0.2664 -0.3013 -0.1402
23039W        W38508  12.964  16.371   1.953  0.3208 -0.0560 -0.0909
23040W        W38509   0.510  17.241  16.343 -0.0372  0.1886  0.1615
23041W        W38510   0.849   4.110   3.428  0.2259  0.1050 -0.1168
23042W        W38511   4.261   0.943  12.779  0.1086  0.0409  0.1178
23043W        W38512   9.686  16.796   0.149  0.1579  0.2075 -0.1550
23044W        W38513  15.045  16.428   0.601 -0.0174  0.0517  0.2680
23045W        W38514   0.636  10.643   0.985  0.2121 -0.1608  0.1614
23046W        W38515   4.733  13.616   1.587  0.0530  0.1911  0.0286
23047W        W38516  13.805  17.459   0.855 -0.2008 -0.1857 -0.0988
23048W        W38517  15.023  16.600  15.961 -0.0893 -0.0335 -0.1529
23049W        W38518   2.078  15.913   2.184  0.0079 -0.0042 -0.0088
23050W        W38519   2.967   8.783   4.908 -0.2556  0.0943 -0.0208
23051W        W38520   5.493   3.664  12.868 -0.0519 -0.1216  0.4311
23052W        W38521  11.318   1.751  13.438 -0.0118 -0.2316 -0.0673
23053W        W38522  13.185   1.875   5.663  0.1155  0.1448  0.0906
23054W        W38523  11.827  12.140   2.989  0.3739 -0.0173  0.0109
23055W        W38524   1.803  12.902   1.614 -0.4559 -0.1341 -0.0293
23056W        W38525  12.733   9.977   0.848  0.0061  0.0582  0.0821
23057W        W38526   2.469   1.299   1.599 -0.2550  0.1205 -0.0306
23058W        W38527   0.610  16.916  15.519 -0.0924 -0.2267 -0.1401
23059W        W38528  11.064  14.052   3.276 -0.1234  0.0501  0.0212
23060W        W38529  12.947   4.654   3.535 -0.0469 -0.1246 -0.2432
23061W        W38530  15.334  12.999  13.061 -0.1662 -0.4615  0.0193
23062W        W38531  17.312  15.702  14.359 -0.1217 -0.4132 -0.1297
23063W        W38532   4.727  13.991  14.492  0.1098  0.0134  0.0838
23064W        W38533  12.969  15.872   2.121 -0.3622 -0.2810 -0.1562
23065W        W38534  15.080   7.665  15.063  0.1622 -0.0596 -0.0480
23066W        W38535  11.423   9.142   3.410  0.2621  0.1862 -0.1517
23067W        W38536   0.919   5.378  14.903 -0.0998  0.1398 -0.2288
23068W        W38537   7.387  11.132   1.558 -0.1856  0.1878  0.0320
23069W        W38538  16.324  10.452  14.402  0.1137 -0.0858 -0.0744
23070W        W38539  14.095   8.227  13.073 -0.3389 -0.1964  0.2375
23071W        W38540  10.066   2.763   5.725  0.2234 -0.3742  0.1461
23072W        W38541   3.735  10.883  11.257  0.2152 -0.4845 -0.1234
23073W        W38542   6.283  10.084  10.975 -0.3473  0.0338 -0.1380
23074W        W38543  17.846   2.913  14.731  0.0814  0.2537 -0.0995
23075W        W38544   5.828  12.832  12.659  0.0415 -0.0526 -0.1497
23076W        W38545  13.964   8.519  10.949 -0.0827  0.0893 -0.0548
23077W        W38546   1.614  15.136  11.064  0.3121  0.0617 -0.2455
23078W        W38547  12.037   3.812   5.367 -0.0093  0.0698 -0.1046
23079W        W38548   3.057   7.860   3.350 -0.0250 -0.2979  0.2480
23080W        W38549  10.325   5.942   2.433 -0.2785 -0.1998 -0.1699
23081W        W38550  14.172  12.684   5.834 -0.0722 -0.3889 -0.2045
23082W        W38551   3.094   1.083  12.266 -0.0171  0.0789 -0.1414
23083W        W38552   7.887   6.545   1.371 -0.2587  0.3035 -0.2693
23084W        W38553   3.047   9.482   1.990 -0.0728 -0.2661 -0.1026
23085W        W38554   1.529   9.190   2.305 -0.1298 -0.2681  0.3445
23086W        W38555  17.466  16.311   0.215  0.2590  0.3626 -0.1395
23087W        W38556   1.534   7.627   5.180 -0.1491  0.2190 -0.4933
23088W        W38557  14.622  11.226   0.880 -0.1261  0.1009  0.0663
23089W        W38558  11.893   9.530   1.223 -0.3685  0.1928 -0.1058
23090W        W38559  15.120  11.634  13.051 -0.0775  0.0291 -0.0506
23091W        W38560  10.940  10.584  10.054 -0.1112 -0.1811 -0.1192
23092W        W38561   4.055  10.167  14.700  0.0908  0.0335  0.0134
23093W        W38562   8.794   2.791   4.018  0.0125  0.1485 -0.2293
23094W        W38563  12.814  10.566   4.681 -0.1079 -0.1107 -0.2118
23095W        W38564   4.377   4.727   1.473 -0.1327 -0.2517  0.1650
23096W        W38565  15.273   3.355  16.141  0.1188  0.1603 -0.1193
23097W        W38566  16.183   5.675  12.836  0.4790  0.0165 -0.2394
23098W        W38567  14.325   5.948  13.889  0.2883 -0.0677 -0.3468
23099W        W38568   4.197   2.186  12.249  0.3511  0.0469  0.1600
23100W        W38569   3.700  16.538   2.799 -0.0928  0.3355  0.0327
23101W        W38570  14.471  15.900   4.968 -0.1382 -0.3088  0.1627
23102W        W38571   8.642  11.631  14.302  0.1459  0.0639 -0.2505
23103W        W38572   6.957   9.736   3.989  0.1218  0.0053 -0.1949
23104W        W38573  10.686  14.260  14.733 -0.1061  0.5188 -0.0053
23105W        W38574   5.545   7.932  11.253  0.3335  0.1668  0.3595
23106W        W38575   1.330   8.233   4.523  0.0546  0.3911  0.0258
23107W        W38576  17.815   7.608   4.980  0.3073  0.0327  0.1731
23108W        W38577  15.770  13.788  15.271 -0.0080 -0.0324 -0.0543
23109W        W38578  14.164   4.578   3.006 -0.1235 -0.0521 -0.2837
23110W        W38579   4.412  13.359  15.901 -0.1830  0.1106  0.1485
23111W        W38580   1.821   3.755  13.511  0.1205  0.0913  0.4422
23112W        W38581  16.192   4.570  16.548  0.2200 -0.2419  0.0474
23113W        W38582   9.871  11.675   1.505  0.1818  0.3693 -0.0355
23114W        W38583  10.681   1.618  14.557 -0.0964  0.0270  0.0577
23115W        W38584  11.442  13.229   5.877 -0.0377  0.2963 -0.2705
23116W        W38585  12.423   1.140  12.190 -0.0709  0.0697 -0.0414
23117W        W38586   4.171  10.626  11.092  0.3916 -0.2343 -0.0478
23118W        W38587   4.044  15.067   0.470 -0.0193 -0.3525  0.0367
23119W        W38588   8.952  15.863   4.667 -0.1529 -0.0874  0.0130
23120W        W38589   9.115  17.407   5.556  0.0159 -0.1333  0.0468
23121W        W38590   5.606  10.608  11.094 -0.0548 -0.1555  0.0005
23122W        W38591   2.715   5.632   3.411  0.3736  0.1656  0.2163
23123W        W38592  12.322   7.542   5.508 -0.1004  0.3306 -0.0654
23124W        W38593   0.280  15.406   0.812  0.0458  0.2068 -0.3055
23125W        W38594  13.979   3.599   0.685  0.1322  0.2532 -0.1583
23126W        W38595   6.385   0.165  12.429 -0.0069 -0.2000  0.1423
23127W        W38596   8.603   9.437   4.247  0.0746 -0.0146 -0.2562
23128W        W38597  14.595   9.433   5.519 -0.2109 -0.0911 -0.2109
23129W        W38598   8.017   6.959  15.012  0.1444 -0.0767  0.0701
23130W        W38599   6.710   1.010  13.129  0.0934  0.0030 -0.1633
23131W        W38600  15.246  12.841  14.985 -0.0006  0.0520  0.3280
23132W        W38601   3.662  16.450  12.581  0.0439 -0.0422  0.0858
23133W        W38602   3.999  16.592  11.602 -0.1665  0.1348 -0.3928
23134W        W38603   5.087   6.836   2.088  0.2932  0.1468 -0.1578
23135W        W38604  11.522   8.149  12.016 -0.2521 -0.2126  0.1016
23136W        W38605   2.678  17.586   6.090  0.4268 -0.2052  0.0547
23137W        W38606  12.338  11.724   3.679 -0.2065 -0.4252  0.2324
23138W        W38607   8.941   3.004   4.457  0.1821  0.1497  0.2235
23139W        W38608   2.617  10.856   2.868  0.3532  0.0164  0.1422
23140W        W38609   9.694  10.895  12.009  0.2542  0.3311  0.1854
23141W        W38610   5.774  15.052   0.197  0.1503 -0.1403  0.0808
23142W        W38611   3.636   4.465   4.564 -0.1253 -0.0924  0.3749
23143W        W38612  15.671  13.021   4.146  0.1743  0.0411  0.2953
23144W        W38613  12.796   6.380  16.443 -0.0191  0.2878 -0.0868
23145W        W38614  13.073  17.700  15.739  0.0656  0.0832 -0.2384
23146W        W38615   0.770   9.377   3.056  0.3614 -0.0367  0.0356
23147W        W38616   3.293   0.571   0.609 -0.0159 -0.2262 -0.1112
23148W        W38617  14.239  11.679  12.974  0.2024 -0.0013 -0.0317
23149W        W38618  13.071   3.634  15.344  0.0551  0.0738 -0.0397
23150W        W38619   3.366  15.443   1.049  0.4024 -0.0091 -0.0866
23151W        W38620  17.562   9.976  14.551 -0.0133  0.1457  0.0652
23152W        W38621   6.288   0.779   2.593  0.0080 -0.0134 -0.1156
23153W        W38622  16.896   3.958  15.096  0.1707  0.2400  0.1606
23154W        W38623   7.798   9.557   3.008 -0.1798  0.1069 -0.3273
23155W        W38624   2.766   3.420   1.473 -0.1128  0.4614 -0.0896
23156W        W38625  12.638   2.298  16.441 -0.1444  0.0289  0.1042
23157W        W38626   0.348   0.474  12.265  0.1697 -0.2529  0.0272
23158W        W38627  13.690   7.770   2.739 -0.1241  0.0418  0.0899
23159W        W38628  15.829  11.577   6.167  0.1837 -0.2073  0.2328
23160W        W38629   8.368   1.100   3.485  0.1890 -0.1636 -0.2611
23161W        W38630  14.388   5.252   4.419 -0.1278 -0.1434 -0.2171
23162W        W38631   2.514   2.599   4.898  0.0485  0.1212 -0.0442
23163W        W38632   9.920   8.486  11.432 -0.1954  0.2422 -0.2978
23164W        W38633  17.538  17.610  12.611 -0.3575  0.0485 -0.0386
23165W        W38634   0.124  15.269  15.940  0.1728  0.2347 -0.1136
23166W        W38635  10.099  15.450   0.826 -0.1964  0.0598 -0.3304
23167W        W38636   4.594  11.414   2.089 -0.1369 -0.0784  0.1883
23168W        W38637  17.745   7.556   1.083  0.1709 -0.2790 -0.0555
23169W        W38638  11.125  16.625  16.389 -0.3318 -0.0430 -0.1459
23170W        W38639  15.689   4.926  15.919  0.0586 -0.2120  0.0782
23171W        W38640   1.531   9.730  15.810 -0.0080 -0.3786 -0.0453
23172W        W38641   2.504  14.192   2.155  0.2042  0.4341  0.1838
23173W        W38642  10.305   9.580  14.141  0.0003 -0.0852  0.1094
23174W        W38643   2.151   0.375   3.642 -0.0064  0.0744 -0.0984
23175W        W38644  13.092  12.380   4.240  0.0263  0.2208 -0.3671
23176W        W38645   2.284   1.922  13.646 -0.0468  0.1288 -0.1765
23177W        W38646  12.675  15.360   3.373  0.0711  0.0655 -0.1652
23178W        W38647   8.260   4.015  12.146  0.0272  0.0635 -0.0766
23179W        W38648   8.766   5.044   6.191 -0.0703 -0.0289 -0.0552
23180W        W38649  14.501   5.954   3.693  0.0682  0.2024 -0.0394
23181W        W38650   7.063  13.393   5.177 -0.1608 -0.0091  0.1785
23182W        W38651  15.779  10.743   4.983 -0.0598  0.0774  0.1855
23183W        W38652  12.309  17.365  15.541  0.1501 -0.1081 -0.0799
23184W        W38653   7.011   4.141   4.800 -0.3279  0.2121 -0.1881
23185W        W38654   8.467  17.058  16.026 -0.0186 -0.2591 -0.0915
23186W        W38655  15.604   3.699  11.153  0.1812  0.1045  0.1520
23187W        W38656   0.274   6.783   1.332 -0.1319 -0.2362  0.0645
23188W        W38657  14.811  13.590   5.208 -0.1439  0.1400  0.2089
23189W        W38658   2.973  16.453  15.578  0.2690  0.0214  0.2185
23190W        W38659   0.620   8.241   2.265 -0.1847 -0.0432 -0.3189
23191W        W38660   3.879   0.913   1.837  0.0956  0.0694  0.3341
23192W        W38661   3.248   1.128   3.901  0.2072 -0.0519 -0.1170
23193W        W38662  15.746   4.866   3.282  0.2888 -0.1199 -0.1499
23194W        W38663  10.516  14.742   4.325  0.1235  0.2356  0.1386
23195W        W38664  15.727  13.332  15.600 -0.3711 -0.1057 -0.2950
23196W        W38665   7.560  15.591   0.412  0.0017  0.0526  0.1754
23197W        W38666   9.327   4.834   0.679 -0.1749  0.1546 -0.2831
23198W        W38667  17.161  15.273  12.283 -0.1998 -0.1005 -0.0842
23199W        W38668  14.973   1.402  11.706  0.0931 -0.1706 -0.1914
23200W        W38669  15.382  16.801   1.123 -0.2388  0.2727  0.1255
23201W        W38670   3.502   0.246  12.463 -0.1018  0.1133  0.0331
23202W        W38671   1.353   4.305  12.503  0.2673 -0.0468  0.1832
23203W        W38672  13.729   7.265   2.392 -0.0261 -0.1256 -0.1481
23204W        W38673  16.286   0.341   4.407  0.2749 -0.2147 -0.3994
23205W        W38674   9.212  11.928   1.138 -0.0080 -0.1566 -0.1477
23206W        W38675  17.947   4.490   3.706 -0.0198 -0.2911  0.4130
23207W        W38676  10.581   7.652  11.130 -0.0696 -0.3174 -0.3299
23208W        W38677  12.622   0.552   1.468  0.1420  0.1693 -0.3547
23209W        W38678   1.263   3.270   3.081 -0.2967  0.0846 -0.1222
23210W        W38679   9.734  16.400  16.451  0.1317  0.1939  0.1574
23211W        W38680  10.838  16.787  12.319  0.0182 -0.1498  0.3135
23212W        W38681   1.229  14.879   4.381  0.1640  0.1893 -0.0497
23213W        W38682   4.469   4.134   6.033 -0.0763  0.0714 -0.0656
23214W        W38683   3.122  10.313   1.552 -0.1233  0.1395 -0.0339
23215W        W38684  12.530  10.635  12.424  0.2751  0.2555 -0.1731
23216W        W38685   9.554   6.166   0.459  0.0639 -0.0277 -0.1554
23217W        W38686  14.686   9.818   1.725  0.1631 -0.0092 -0.0471
23218W        W38687  17.783   7.958  11.250 -0.1281 -0.0614 -0.2380
23219W        W38688   6.250   0.875   5.845  0.2135 -0.2689 -0.5957
23220W        W38689   0.018   1.532   2.758 -0.4038  0.5123 -0.0104
23221W        W38690  17.803  15.697   5.953 -0.0328 -0.0839  0.0899
23222W        W38691  12.958   7.383  12.261  0.2280  0.0919  0.2193
23223W        W38692   9.207  11.501  16.357  0.1782 -0.1383 -0.1713
23224W        W38693   2.661   0.333   3.703  0.0639 -0.0532  0.1980
23225W        W38694   4.274   9.640  16.095  0.1318  0.1557  0.2551
23226W        W38695   4.487   9.567  16.580  0.1132 -0.0817  0.0574
23227W        W38696  12.104   4.514   1.612 -0.2179 -0.0326  0.1553
23228W        W38697  12.710  15.421  15.453 -0.2459 -0.1759  0.0786
23229W        W38698   3.451  13.818  13.489 -0.0525 -0.0659 -0.1523
23230W        W38699   5.336  14.537  11.959 -0.2523  0.2711  0.1010
23231W        W38700   7.538   3.700   5.846  0.2584  0.1576  0.0807
23232W        W38701   2.991  14.294  16.380  0.4380  0.1279  0.2305
23233W        W38702   1.628   2.906   4.701  0.2107 -0.0404 -0.2321
23234W        W38703   5.328  14.114  15.554 -0.0448  0.2709 -0.0378
23235W        W38704   7.813   1.678   2.808  0.2264  0.1416  0.2307
23236W        W38705  15.188   8.135   2.342 -0.2081 -0.1871  0.0312
23237W        W38706   3.788  13.183   3.470 -0.1471 -0.2007 -0.0567
23238W        W38707   5.438   7.646   0.149  0.0547  0.1948  0.1603
23239W        W38708   9.885   8.882  14.480  0.1215 -0.0505  0.0418
23240W        W38709   2.032   4.297  14.336 -0.0196  0.1210  0.4377
23241W        W38710   0.847   8.914   0.710 -0.1695 -0.2771  0.0537
23242W        W38711  10.911   4.504  11.896 -0.0958 -0.1494 -0.3343
23243W        W38712   0.817   0.457  12.137 -0.1742  0.4355 -0.1609
23244W        W38713  10.216   6.783  13.869  0.4827 -0.0236 -0.0909
23245W        W38714   1.647   7.260  16.567  0.1650  0.0865 -0.0993
23246W        W38715   1.228  10.251   3.680  0.1336 -0.0248 -0.0510
23247W        W38716   5.341   6.800   6.175  0.1348  0.1102 -0.1470
23248W        W38717   6.914   4.394  15.021  0.0723  0.0132  0.0639
23249W        W38718  14.717   4.421   3.270 -0.0492 -0.0254  0.1267
23250W        W38719  16.876   8.928   4.788  0.0184  0.0155 -0.1264
23251W        W38720   0.456   4.521  11.059  0.0594 -0.0880 -0.3500
23252W        W38721   0.587   9.029   5.715  0.0987  0.2178  0.0352
23253W        W38722   3.685  10.583   5.706  0.2755  0.0988  0.0740
23254W        W38723   9.287   7.817   2.810  0.2178 -0.0612  0.1886
23255W        W38724   8.174  17.859  13.607 -0.2639  0.0940 -0.2713
23256W        W38725   9.156  15.647   0.626  0.1192  0.4643 -0.1814
23257W        W38726  17.068  13.609   3.146 -0.0562 -0.0285 -0.1448
23258W        W38727   3.366  17.467  14.116  0.2293  0.0784  0.2286
23259W        W38728  11.562  13.746  15.780 -0.2816 -0.1288 -0.1404
23260W        W38729   5.690   3.570   4.151 -0.0323  0.3341  0.0892
23261W        W38730   0.832  11.629  15.773  0.1704 -0.1257 -0.0557
23262W        W38731   5.963   4.626  16.321  0.0403  0.0086  0.1387
23263W        W38732   3.512   0.322  13.647  0.3143  0.0876 -0.0377
23264W        W38733  12.764  12.492  11.924 -0.1954  0.0889  0.3678
23265W        W38734   2.182   2.680  15.896 -0.0772  0.4153  0.0791
23266W        W38735  12.360  14.587  15.582 -0.1052  0.1872  0.0694
23267W        W38736  10.368  13.079  15.849  0.0107  0.1561 -0.0293
23268W        W38737   2.178   5.823   1.621  0.2790  0.1159 -0.0722
23269W        W38738   8.202   1.856  12.524 -0.3478  0.0577  0.3836
23270W        W38739  14.847   6.024   4.067 -0.1795  0.1141  0.0893
23271W        W38740  17.370  17.801   4.343  0.1288 -0.0663 -0.2878
23272W        W38741   4.155   3.708   3.069  0.3457 -0.0068  0.0342
23273W        W38742  17.082  12.822  13.126 -0.2230  0.2076  0.1953
23274W        W38743  12.324   5.753   0.222 -0.0800  0.0550 -0.1321
23275W        W38744  17.950  12.711   3.720 -0.0354  0.2452 -0.0486
23276W        W38745   9.148   6.933   0.934  0.2109 -0.2681 -0.0837
23277W        W38746  14.654   5.646   4.308 -0.2174  0.0741  0.0194
23278W        W38747  11.641   1.699   2.954 -0.2685 -0.1268  0.1955
23279W        W38748  14.676  15.383   4.049 -0.2899  0.1851  0.0441
23280W        W38749   4.909  11.063  12.119  0.3451 -0.2876  0.1080
23281W        W38750   9.384   2.863  13.372 -0.0290  0.0927 -0.1062
23282W        W38751   5.089  15.429  12.034  0.2073  0.1005 -0.2702
23283W        W38752   9.726  14.591   0.665  0.1791  0.0016  0.0201
23284W        W38753   1.451  14.690   5.515  0.3544 -0.0236  0.0050
23285W        W38754   9.917   6.602  12.506 -0.3336 -0.2219  0.1068
23286W        W38755   6.985  15.260   1.739 -0.5144 -0.0698  0.1772
23287W        W38756  15.247  10.659  13.714  0.1731 -0.1105 -0.1275
23288W        W38757   8.012   5.169   3.594 -0.2598  0.0953  0.0490
23289W        W38758   8.949   1.785   0.029 -0.2125  0.0322 -0.0107
23290W        W38759  10.220   0.498   2.271  0.2359 -0.1082  0.0083
23291W        W38760  11.268   3.534  11.873  0.0326  0.0018 -0.1697
23292W        W38761   7.045  12.662   4.057  0.1520  0.1532 -0.2037
23293W        W38762  16.880  16.447   3.273 -0.0217  0.0571  0.0310
23294W        W38763  14.184   5.462   4.034  0.0557  0.1354  0.2013
23295W        W38764  16.745  11.666  16.258  0.2208  0.0339  0.1018
23296W        W38765   3.430   5.639  12.140 -0.2432 -0.3205  0.0807
23297W        W38766   9.626   3.391  15.968 -0.3205 -0.0905 -0.2858
23298W        W38767   0.473  17.975  15.330  0.1686 -0.2311 -0.1835
23299W        W38768  15.844   8.772  12.114 -0.1442  0.0563  0.1322
23300W        W38769   4.226  15.488  13.709 -0.0958  0.3276 -0.0387
23301W        W38770   6.574  16.342   1.313 -0.0140  0.2405 -0.0254
23302W        W38771  15.869  17.331   2.909 -0.1926  0.0580  0.0257
23303W        W38772   3.678   8.052  12.666  0.1456  0.0012 -0.3018
23304W        W38773   2.219   5.668  12.001  0.1160  0.2751  0.0488
23305W        W38774   8.208  15.387  14.535 -0.0924  0.0302 -0.2260
23306W        W38775  16.569   7.623   4.726 -0.2113 -0.0823  0.0859
23307W        W38776   9.977   8.966  11.196 -0.0817 -0.4254  0.2933
23308W        W38777  11.453   1.488  13.032  0.1921  0.0846  0.1455
23309W        W38778   0.526  13.607  14.305  0.1727 -0.2040 -0.0549
23310W        W38779   7.399  16.517   4.868  0.0902 -0.0663 -0.1698
23311W        W38780   8.555  11.088  15.781 -0.0029  0.1815  0.1630
23312W        W38781   0.160  12.299   3.616  0.0664  0.2318 -0.0355
23313W        W38782   4.717  11.173  15.956  0.0551 -0.2186  0.1814
23314W        W38783  15.103   1.567  15.779  0.1681 -0.1952  0.0048
23315W        W38784   1.757   2.305  13.834 -0.2071 -0.4080  0.0762
23316W        W38785  15.080   0.360   3.220  0.0459 -0.0191 -0.0506
23317W        W38786  14.355   4.995   0.388  0.1442 -0.2086 -0.0949
23318W        W38787  14.312  16.083  12.113 -0.1264 -0.1956 -0.2218
23319W        W38788   7.852  15.961   1.021 -0.0093 -0.0896  0.3223
23320W        W38789   7.333   8.950   3.325  0.2544  0.0777 -0.2800
23321W        W38790   6.276  14.023  11.459 -0.2136 -0.0292  0.0704
23322W        W38791   0.913   2.899   9.949  0.1683  0.0899  0.2522
23323W        W38792   2.758  13.165   0.873  0.1091 -0.0563 -0.2543
23324W        W38793   1.803  12.626   2.023 -0.4990 -0.1772 -0.1076
23325W        W38794   7.252   8.070  12.981  0.0497 -0.1757  0.0541
23326W        W38795  12.489   9.959  14.896  0.0300 -0.0783  0.1345
23327W        W38796  15.972   1.795   0.512 -0.3802 -0.3998  0.0419
23328W        W38797   4.582   4.284   1.249 -0.1634  0.1231 -0.1201
23329W        W38798   0.306   9.726  15.095  0.0374  0.0118 -0.3024
23330W        W38799   7.986  16.253   5.611 -0.0507  0.0403  0.2066
23331W        W38800  11.962   3.274   2.504  0.1613 -0.1519  0.1252
23332W        W38801   3.105  10.071   4.991  0.3941 -0.1270  0.2515
23333W        W38802   9.098   7.130  16.286 -0.2161  0.1181  0.0629
23334W        W38803   8.515   6.223   4.606  0.2737  0.1231  0.1521
23335W        W38804   4.695  15.515   5.690 -0.0091 -0.2159 -0.2006
23336W        W38805   5.517   6.539  13.599 -0.1055  0.0415 -0.3938
23337W        W38806  15.248   2.562  12.137 -0.1986 -0.1846  0.0608
23338W        W38807  17.722   9.012  15.518  0.1243  0.1350 -0.1408
23339W        W38808   7.015   2.494   5.531  0.3531 -0.0827 -0.0665
23340W        W38809   1.702   7.151   2.751  0.2968  0.4026  0.0593
23341W        W38810  16.338   2.906   1.788  0.1394 -0.0634  0.3367
23342W        W38811  12.466  12.858  14.488  0.3156 -0.0988 -0.0693
23343W        W38812  17.511   9.591  12.044  0.1036  0.0772  0.1283
23344W        W38813  16.585   1.889   5.396 -0.2701  0.2525 -0.0562
23345W        W38814   9.234  10.886   1.471 -0.2942 -0.3834 -0.0643
23346W        W38815   3.682  13.081  14.619 -0.1468 -0.0117 -0.1578
23347W        W38816  13.161   9.494   5.307  0.0251  0.1755  0.2248
23348W        W38817  10.993   1.005  15.297 -0.3302  0.1962 -0.0975
23349W        W38818   3.885   3.147  14.420  0.0274 -0.3846 -0.0346
23350W        W38819   5.546  13.437   4.112 -0.0741  0.1858  0.1423
23351W        W38820   5.806   7.030   5.491 -0.2191  0.0816 -0.1658
23352W        W38821   0.660  10.865   2.857 -0.1871 -0.0727  0.2909
23353W        W38822   1.608  15.192   0.865  0.3873 -0.1093  0.2000
23354W        W38823  11.515   5.982  12.648 -0.0491  0.0495 -0.4001
23355W        W38824   2.955   3.688  12.636  0.1029  0.0016 -0.0400
23356W        W38825  14.481  11.843  16.325 -0.0923 -0.4230  0.3247
23357W        W38826   2.368  15.940   1.779  0.1167  0.0846  0.3069
23358W        W38827   8.513  13.368   3.638  0.1290 -0.2404 -0.0161
23359W        W38828  13.374   2.931   4.305  0.1812  0.1167  0.0698
23360W        W38829   2.079   1.512   4.903 -0.0331 -0.1745  0.2415
23361W        W38830   7.789  16.744   4.642 -0.1422  0.3992 -0.2281
23362W        W38831  17.089  10.835  11.442 -0.2663 -0.1138  0.1477
23363W        W38832   9.243   8.095  15.944 -0.0168 -0.0391  0.0044
23364W        W38833  15.227   2.132   4.385  0.0114  0.1483  0.0345
23365W        W38834   5.866   9.667  13.660 -0.2703 -0.3190 -0.0776
23366W        W38835   3.625  14.250   3.308 -0.2547 -0.0151 -0.2784
23367W        W38836  10.499  10.258   4.615  0.1128 -0.0030  0.1211
23368W        W38837   7.759   2.084  13.936 -0.1102  0.0690 -0.2535
23369W        W38838  17.818  17.055  15.888  0.0695  0.1792 -0.2278
23370W        W38839   5.225   6.389  15.857  0.0943 -0.0354  0.0171
23371W        W38840   9.266  16.668  16.426  0.1820 -0.0691  0.2907
23372W        W38841  10.567   1.105  12.319  0.0410 -0.2001 -0.0364
23373W        W38842  10.818   0.094   1.724 -0.1301  0.0271  0.3096
23374W        W38843  11.928  17.272   3.276  0.3436 -0.1299 -0.1799
23375W        W38844   7.528   9.717  12.063  0.0585  0.1718 -0.3969
23376W        W38845   9.586  17.508  11.010 -0.3310 -0.1844  0.0206
23377W        W38846  10.109   8.204  15.292 -0.0202 -0.0128  0.0687
23378W        W38847  11.110  16.296   3.258  0.0710  0.1789 -0.0984
23379W        W38848  12.562   1.824  16.180 -0.2577  0.1252 -0.0406
23380W        W38849   0.406   1.344  15.736  0.0364 -0.0700  0.1372
23381W        W38850   3.519  17.432  13.391 -0.1290  0.0789  0.3609
23382W        W38851  15.339  16.895   6.728 -0.1723 -0.4203  0.1807
23383W        W38852  15.248   9.707   4.419 -0.3702  0.0654  0.0898
23384W        W38853  17.028  14.598   4.696 -0.0602 -0.1248  0.0743
23385W        W38854   8.600  13.247  16.232  0.0584  0.1875  0.0080
23386W        W38855   3.813  16.156   5.439  0.0609  0.1570 -0.3211
23387W        W38856   8.551  14.529  16.577  0.1833 -0.0281 -0.0454
23388W        W38857  15.723   1.189   0.360 -0.2072 -0.3204 -0.0524
23389W        W38858  12.956   0.280   2.297  0.0661  0.0540 -0.2455
23390W        W38859  17.505  16.319   5.723 -0.3225  0.0114  0.1348
23391W        W38860  10.691  16.157  16.417 -0.1302 -0.0263  0.0432
23392W        W38861   7.353  15.180   3.910  0.0039  0.0489 -0.1147
23393W        W38862  13.357   9.729   3.844 -0.1097 -0.2556 -0.2850
23394W        W38863   1.588  16.717  13.987 -0.0068  0.1078 -0.0257
23395W        W38864  11.369   4.497  15.385 -0.2132 -0.3620  0.4434
23396W        W38865   7.448   8.458   3.926 -0.0951  0.0484 -0.2240
23397W        W38866  16.211   5.300   3.539 -0.0375  0.1882  0.0075
23398W        W38867  12.883   3.864   1.381  0.0370 -0.0107  0.1504
23399W        W38868  11.673   9.823  14.007  0.0191 -0.0588  0.2245
23400W        W38869   3.492  17.922   1.811  0.2330 -0.2270  0.0342
23401W        W38870   7.645  11.027   0.211 -0.0510 -0.0446 -0.0869
23402W        W38871   8.872   0.869  11.917  0.0651 -0.0410 -0.2543
23403W        W38872  13.140  10.479  11.454  0.0870  0.0550 -0.1568
23404W        W38873  14.711   7.162  10.946  0.1750 -0.0275 -0.2733
23405W        W38874   2.137  11.665   2.976 -0.1869  0.0534  0.0428
23406W        W38875   7.551  16.064  10.755 -0.2469  0.1499  0.1051
23407W        W38876  15.963  13.728  16.351  0.0496  0.0366 -0.0291
23408W        W38877   9.612  15.037  14.589 -0.1812  0.0359  0.0581
23409W        W38878   0.238   2.916   1.542 -0.2260  0.0215 -0.0943
23410W        W38879   8.049   8.221   1.107  0.0088  0.1950  0.1814
23411W        W38880   2.346   8.196  16.480  0.1125 -0.2852 -0.0115
23412W        W38881   4.712   3.394  12.403  0.1212  0.0667  0.1630
23413W        W38882   8.763   7.877   6.591  0.1043  0.1495  0.1677
23414W        W38883  10.087  17.384   1.891  0.1496  0.4025 -0.0805
23415W        W38884   4.686   4.893   2.786 -0.0519  0.2998 -0.1576
23416W        W38885   2.743  12.652  16.551 -0.0152 -0.0726 -0.1168
23417W        W38886   2.978   5.805  15.300 -0.1335  0.0295  0.1256
23418W        W38887   8.535  16.540  12.430  0.0610  0.0434  0.0408
23419W        W38888   1.630   1.874  12.849  0.1269 -0.1730  0.1659
23420W        W38889  13.691   0.832  15.091  0.2636  0.1282  0.2333
23421W        W38890  11.773   6.738   1.026  0.0435 -0.0118  0.1055
23422W        W38891  16.660   6.380  14.930  0.0947 -0.0210 -0.0684
23423W        W38892  14.830   3.077   4.546 -0.4486  0.0303 -0.2854
23424W        W38893   6.086  11.483  13.079 -0.1107  0.2711 -0.2598
23425W        W38894  10.164   3.726  14.083  0.3046  0.1200 -0.0000
23426W        W38895   1.495   8.391   5.616 -0.4382 -0.1706 -0.1301
23427W        W38896  14.748   3.690   0.255 -0.1654  0.2138  0.0812
23428W        W38897   8.431  17.997  13.126 -0.1231  0.1311 -0.3013
23429W        W38898   9.500   7.811  15.563 -0.1000 -0.1506 -0.1077
23430W        W38899  14.406  10.970  11.135  0.1743 -0.3975 -0.0127
23431W        W38900  14.988   2.020   3.043  0.0422 -0.0889 -0.2441
23432W        W38901  14.989   9.486  15.107  0.1688 -0.0294 -0.0361
23433W        W38902  17.549  14.576   3.228  0.1777  0.0014  0.2733
23434W        W38903  14.708   8.881  11.586 -0.1974  0.1614 -0.2601
23435W        W38904  12.582   9.649   4.405 -0.1658  0.1180  0.0466
23436W        W38905   2.274   0.685  12.137 -0.2567 -0.1163 -0.0608
23437W        W38906   3.045   7.089  15.189 -0.0657 -0.1320  0.1848
23438W        W38907   8.966   5.644   2.286  0.0815  0.1068 -0.0768
23439W        W38908  14.729   9.122   0.378 -0.1213 -0.2763  0.0556
23440W        W38909  12.889   6.233  12.547  0.2290 -0.1396  0.2355
23441W        W38910   8.251   9.311  11.956 -0.2465  0.2065  0.1130
23442W        W38911   5.435   7.805   1.925  0.0090  0.0387 -0.1298
23443W        W38912   4.604   7.345   4.452  0.1045 -0.1077 -0.0448
23444W        W38913   1.046  16.179   1.166 -0.0797  0.2753  0.2803
23445W        W38914   4.331   9.535  13.250 -0.4129 -0.2786  0.0216
23446W        W38915   8.709  17.117   2.436  0.4712 -0.1317 -0.2994
23447W        W38916   9.133  13.979   5.586  0.1596  0.1673  0.1703
23448W        W38917   9.759   0.813   5.340  0.0915  0.0433  0.2330
23449W        W38918   5.049   0.491  11.541 -0.0965  0.0017  0.1466
23450W        W38919  16.803   2.556  16.128 -0.2607  0.0811  0.1969
23451W        W38920  17.284   2.539  13.838 -0.3628  0.1439 -0.0715
23452W        W38921   7.639   4.492  13.631 -0.0417  0.0512  0.1143
23453W        W38922   4.447   7.571   1.080 -0.0804 -0.1903 -0.0109
23454W        W38923   9.154   8.767  15.536  0.1156 -0.1085  0.2417
23455W        W38924   9.226  10.479  15.213 -0.2166  0.2311  0.1215
23456W        W38925  14.813  14.161  12.609 -0.2946  0.1643 -0.1169
23457W        W38926   0.915  13.917  12.850  0.0069  0.2131 -0.1559
23458W        W38927   1.446   1.006  15.284 -0.2137 -0.1505  0.0904
23459W        W38928   7.293   8.413   2.150  0.0291 -0.3048  0.1675
23460W        W38929  17.043   7.268   1.769 -0.0245 -0.0921 -0.0116
23461W        W38930   1.335  15.178  16.047  0.0894  0.1740  0.0340
23462W        W38931  17.958   8.719  12.432  0.3251 -0.0144  0.0698
23463W        W38932  13.870  12.845  13.613 -0.0319 -0.1487 -0.0113
23464W        W38933  15.119   8.332  14.496 -0.3031 -0.0093 -0.1244
23465W        W38934   7.717  10.280  15.078 -0.2119 -0.1367 -0.1267
23466W        W38935   0.693  11.319  12.976  0.0352 -0.0390 -0.0158
23467W        W38936   6.440  14.821   5.330 -0.0646 -0.1379 -0.1450
23468W        W38937   9.310  13.628  12.855  0.2146 -0.1176  0.2835
23469W        W38938   2.437   4.095   2.627 -0.2172  0.1529 -0.0244
23470W        W38939  13.665   8.905  13.462 -0.1358  0.0785 -0.0370
23471W        W38940   0.637  11.997   0.915 -0.1254 -0.2126 -0.1384
23472W        W38941  12.448   5.520  13.582 -0.0427  0.1099  0.1040
23473W        W38942  17.994   8.659   0.293  0.0350  0.0736 -0.0226
23474W        W38943  17.859   2.943  16.264 -0.1295  0.0752  0.0249
23475W        W38944   7.327  12.254  11.337 -0.1038  0.2447 -0.1315
23476W        W38945   2.904  11.211  15.761  0.0263  0.2535  0.1394
23477W        W38946  11.755   9.643   3.267  0.0612  0.1593  0.0656
23478W        W38947   3.799  15.979  15.824  0.0527  0.0358 -0.1667
23479W        W38948  16.285   6.072  15.217 -0.1513 -0.1657 -0.3305
23480W        W38949   6.509   1.963   4.842 -0.0495  0.0339 -0.0196
23481W        W38950   7.276  12.524   5.638 -0.2061  0.0602 -0.0520
23482W        W38951   0.668   3.195   0.097  0.1099 -0.1611  0.3026
23483W        W38952   5.558   5.747   4.469 -0.0177 -0.2850 -0.3138
23484W        W38953   7.171   9.938   0.620  0.0666 -0.1951 -0.0063
23485W        W38954  17.852   1.618   0.104 -0.2627 -0.0548 -0.0061
23486W        W38955  16.190  13.060  12.311  0.1401 -0.0957  0.0798
23487W        W38956  15.377  17.969  13.549 -0.4967  0.2286 -0.2298
23488W        W38957   8.367   4.025   5.415 -0.1552  0.0602 -0.1215
23489W        W38958   2.344   1.390  13.222  0.1192  0.0188  0.2794
23490W        W38959  13.500   8.741  16.430  0.1155 -0.0811  0.0382
23491W        W38960   8.202   4.717  14.946  0.1772 -0.2857 -0.1710
23492W        W38961   9.576   0.774   1.156 -0.1074  0.1834 -0.0313
23493W        W38962   0.686  17.365   4.117  0.0725  0.1594  0.1350
23494W        W38963   8.832   8.268  16.249 -0.0907 -0.0956  0.1261
23495W        W38964  11.538   8.025  13.045 -0.2241 -0.1451 -0.1828
23496W        W38965  17.039   9.204  14.941  0.0927  0.0964 -0.2141
23497W        W38966   9.062   9.672   1.229 -0.2235  0.2891 -0.0822
23498W        W38967   1.945   6.119   2.954 -0.2244 -0.1364 -0.1144
23499W        W38968  17.375  11.632  14.746 -0.2418 -0.2217  0.0344
23500W        W38969   4.636   0.809  15.483 -0.0367  0.2716  0.1602
23501W        W38970   7.163   1.746  15.164 -0.1430  0.2026  0.3748
23502W        W38971   6.098   2.574   5.431  0.0775 -0.0758 -0.1174
23503W        W38972  14.564  14.292   5.695  0.2075 -0.0484  0.0487
23504W        W38973  15.629  11.050   3.724 -0.2207  0.1504  0.1672
23505W        W38974  13.280   1.099   2.463 -0.1366  0.0311  0.5471
23506W        W38975   4.634   0.287  14.551  0.1964 -0.1775 -0.3171
23507W        W38976   2.599   1.850  14.867  0.1106  0.0264 -0.0062
23508W        W38977   3.166  17.538   5.324 -0.2339  0.1676 -0.3964
23509W        W38978   9.828  11.077   0.607 -0.0501 -0.2091 -0.1386
23510W        W38979  11.479   1.244  12.333  0.1494 -0.1666 -0.0722
23511W        W38980  16.543  13.043   1.900  0.1973  0.3301  0.2018
23512W        W38981   7.203  17.285   4.149 -0.2918 -0.1654 -0.4051
23513W        W38982   3.558   6.569   2.654  0.3999 -0.0694 -0.3553
23514W        W38983   6.326  15.425  14.221  0.1606 -0.1455 -0.0489
23515W        W38984   0.385  13.966  14.610 -0.2302 -0.1965  0.3692
23516W        W38985   9.631   4.186   2.600 -0.1017  0.2859 -0.1639
23517W        W38986  14.332  17.785  12.500  0.0026 -0.2338  0.2208
23518W        W38987  16.616   2.088  11.549 -0.0820 -0.0102  0.0106
23519W        W38988  11.821   0.746   3.131  0.1998  0.2429  0.1109
23520W        W38989  16.084  12.078   2.867 -0.1740  0.0029  0.1955
23521W        W38990  11.092  10.261   0.986 -0.2241  0.0521  0.0585
23522W        W38991   4.761  15.617  16.347  0.4303 -0.0689 -0.0631
23523W        W38992   5.317  10.129  11.231  0.1170 -0.0531 -0.0179
23524W        W38993  13.990  17.624  13.620  0.1373 -0.0152 -0.0374
23525W        W38994   9.287  16.099   2.856 -0.1386 -0.2326  0.1145
23526W        W38995  14.346   7.990  14.238 -0.1001  0.3571  0.0376
23527W        W38996  14.188   7.747  10.811  0.0622 -0.0230  0.2677
23528W        W38997   6.019  16.906  13.279 -0.0624  0.1115  0.2935
23529W        W38998   5.159   6.583  13.944  0.2301 -0.3859  0.1792
23530W        W38999   1.023  11.955  13.194  0.3077  0.1982 -0.1056
23531W        W39000  13.078   7.129   0.547  0.0142  0.1065 -0.0643
23532W        W39001   2.761  11.710   0.722  0.1152  0.2782  0.3964
23533W        W39002  11.518  17.546  11.123 -0.1604 -0.0737 -0.1009
23534W        W39003  12.154  14.816   1.956  0.1068  0.0986 -0.1433
23535W        W39004  13.024   1.505  14.848  0.1853  0.1648  0.1804
23536W        W39005   9.267  15.984  13.785  0.0035  0.3584 -0.1965
23537W        W39006   9.941   7.673  15.186  0.0048 -0.0761  0.1291
23538W        W39007  15.868   5.187   4.283 -0.1039 -0.1657  0.1182
23539W        W39008   3.383   8.636   3.378 -0.2122  0.3466 -0.0466
23540W        W39009  17.669   8.145   4.093  0.0712 -0.0283 -0.0391
23541W        W39010   2.523  14.376  16.614  0.4235  0.3377  0.1177
23542W        W39011  10.944  14.767   0.786  0.1989  0.1262 -0.0259
23543W        W39012  12.622  10.716  11.407  0.0739  0.0294  0.1669
23544W        W39013   8.265  12.175  12.364 -0.0013 -0.1148 -0.0775
23545W        W39014   5.912   1.694  15.136 -0.2027  0.0441  0.0054
23546W        W39015  16.542  16.149   0.490 -0.0807  0.0602  0.2346
23547W        W39016  11.141  12.723   4.111  0.3188  0.2183 -0.0830
23548W        W39017   4.125   6.213   5.006  0.0898 -0.2533 -0.2621
23549W        W39018   7.930  17.545   2.697  0.0397  0.1360 -0.1237
23550W        W39019   1.827   3.822  16.492 -0.0568 -0.2128  0.0453
23551W        W39020   6.319   2.276  13.709  0.2942 -0.0572 -0.1682
23552W        W39021  12.171   9.343  15.413 -0.3521  0.2462 -0.0615
23553W        W39022  11.296   8.007  14.104  0.1067 -0.1680  0.2021
23554W        W39023   3.485  15.413   0.545  0.2594  0.0371 -0.0016
23555W        W39024   7.918   3.904   1.595  0.2185  0.1952  0.0743
23556W        W39025  15.620  14.254  15.119  0.1331  0.0050 -0.0140
23557W        W39026  16.256  15.166   2.455 -0.1716  0.0352  0.2069
23558W        W39027   9.828  16.424  12.786  0.1579 -0.1135  0.0402
23559W        W39028   6.592   9.049  13.797 -0.0439  0.0679 -0.1723
23560W        W39029   4.125   1.020  14.645  0.1842  0.0148  0.0830
23561W        W39030  16.709  17.568   3.317  0.1557  0.0780  0.0576
23562W        W39031  13.987   0.097  15.628 -0.0660 -0.0844 -0.0102
23563W        W39032   8.126   5.318  12.376 -0.0033 -0.0387  0.0288
23564W        W39033   7.961  17.171  16.242  0.1022  0.1210 -0.2303
23565W        W39034   1.088  12.599  15.988  0.0265  0.2278 -0.0659
23566W        W39035   4.034  13.623  16.043  0.3299  0.4149 -0.0321
23567W        W39036   1.152   7.143  15.187 -0.1761 -0.1042 -0.0834
23568W        W39037  17.904  15.408  13.561 -0.0190  0.3366 -0.1434
23569W        W39038  11.991  16.421   2.264  0.0778  0.0967 -0.0234
23570W        W39039  13.892   3.043  13.320 -0.3491  0.1933 -0.0730
23571W        W39040  13.472  17.097   1.811 -0.2089 -0.2449 -0.1718
23572W        W39041  13.678  14.079   4.683 -0.3110  0.0057 -0.2012
23573W        W39042   2.868  17.975   2.467  0.0152  0.0734  0.0317
23574W        W39043   4.472  16.040  14.192  0.1788  0.0671  0.0716
23575W        W39044   1.681  11.795   5.261  0.0371 -0.0291 -0.2045
23576W        W39045   8.762  14.228  14.953 -0.4307 -0.2325  0.2413
23577W        W39046   6.668  16.982  14.719  0.0161 -0.1072  0.1718
23578W        W39047   8.012  16.623   2.032  0.0684 -0.0277 -0.0258
23579W        W39048   5.826   1.649   0.220  0.4267 -0.0917  0.1222
23580W        W39049  10.889   0.899  15.775 -0.0890  0.1336  0.2330
23581W        W39050   1.113  13.614  14.500 -0.2077 -0.0432  0.2295
23582W        W39051  11.344   0.405  14.018  0.0194  0.0800 -0.0772
23583W        W39052  16.946  11.670  10.774  0.3125 -0.1921  0.2562
23584W        W39053  15.177   1.958   4.852 -0.0803 -0.2057 -0.3544
23585W        W39054   4.192  10.899  12.867  0.1086  0.1780 -0.0029
23586W        W39055   4.303   9.207  12.891  0.0418  0.2423  0.1996
23587W        W39056  16.767   8.865   4.191  0.1829  0.0480 -0.0544
23588W        W39057  10.780   6.673  15.582 -0.1250 -0.1209  0.0634
23589W        W39058   7.326  16.139  14.975 -0.0355  0.1260 -0.0817
23590W        W39059  15.533  12.683   5.072  0.1870 -0.1628 -0.2951
23591W        W39060   8.574  13.688   0.447  0.3550 -0.0821  0.1402
23592W        W39061  17.613   7.629   2.902  0.0175 -0.2731 -0.1173
23593W        W39062   3.380   6.047  13.714  0.0399 -0.1924 -0.1012
23594W        W39063  16.232   9.092  12.562  0.0342  0.1232  0.0354
23595W        W39064  16.180   5.471  15.408  0.2343 -0.2491  0.3330
23596W        W39065  16.732  16.592  13.751  0.2266  0.1021 -0.0037
23597W        W39066  17.310  12.528  15.008  0.2542 -0.1599  0.3631
23598W        W39067   3.525  12.319  13.262 -0.0644 -0.2617  0.1073
23599W        W39068   8.255   9.562  15.233 -0.0039 -0.1296  0.0703
23600W        W39069  12.499   4.791  14.903 -0.0465  0.2863  0.0530
23601W        W39070   0.089   3.460   1.338 -0.0745 -0.0489 -0.0940
23602W        W39071  10.295  17.962   2.624  0.0117  0.0546  0.3136
23603W        W39072   6.439  13.321   6.392 -0.1352  0.1137 -0.1642
23604W        W39073   3.181   2.115   0.952 -0.0786 -0.2422  0.2959
23605W        W39074  16.184   7.184   2.509 -0.0032 -0.1036  0.1738
23606W        W39075  14.553  17.782  14.782 -0.2831  0.0738  0.0156
23607W        W39076  16.267   6.520  13.257 -0.3109  0.3950  0.0382
23608W        W39077  14.637   4.784   5.553  0.0621  0.0388 -0.1688
23609W        W39078  10.434   0.334   5.761 -0.1022 -0.0746  0.0579
23610W        W39079   3.581   8.378   4.462  0.1670  0.0921 -0.1181
23611W        W39080  12.206   7.203   3.203 -0.0388 -0.1220  0.0439
23612W        W39081  10.448   1.865   4.614  0.1472  0.2085  0.2324
23613W        W39082   3.342  11.139  13.787 -0.2237  0.1511 -0.2015
23614W        W39083   9.534  12.549  11.961  0.2904 -0.0755  0.2295
23615W        W39084  17.336   4.570   1.114 -0.2500 -0.0332 -0.0875
23616W        W39085   4.516  17.034   3.849 -0.0567  0.0354 -0.1561
23617W        W39086   8.974   8.226   2.859 -0.0001 -0.0767  0.1544
23618W        W39087  16.653  10.472   1.366  0.0394 -0.1813  0.1138
23619W        W39088   4.821   5.696   9.868  0.0585 -0.4818  0.0050
23620W        W39089   1.341  10.598  15.127 -0.1346  0.2622  0.2272
23621W        W39090   8.067   9.511   0.742 -0.0043 -0.0114 -0.0813
23622W        W39091   8.635  10.399   1.119 -0.1033  0.2845 -0.1123
23623W        W39092  15.371   4.361  16.498 -0.0417  0.0762  0.0192
23624W        W39093  17.158  15.467   0.443 -0.1010 -0.3097  0.1529
23625W        W39094   9.537   0.884  15.182 -0.1803  0.1306 -0.0937
23626W        W39095   0.292  13.226  16.460 -0.2132  0.1308 -0.0888
23627W        W39096   5.637   6.227   1.011  0.0372 -0.3648  0.0353
23628W        W39097  17.822   4.773   1.785  0.3039 -0.0769 -0.0667
23629W        W39098  16.318   0.245  14.405  0.1471  0.0461 -0.0638
23630W        W39099   1.932  16.751  15.296  0.4333  0.1426  0.0583
23631W        W39100   6.395   3.489   4.580 -0.2560  0.0473 -0.0509
23632W        W39101  11.711   8.405   4.362  0.0834  0.0493 -0.0113
23633W        W39102   1.483   9.586   0.109 -0.0206  0.0316 -0.0748
23634W        W39103  13.705  15.558   6.019 -0.3007  0.0878 -0.2238
23635W        W39104  12.187  15.227  14.341  0.1100 -0.0635 -0.3322
23636W        W39105  13.849  12.848   4.204 -0.5345  0.3011 -0.1161
23637W        W39106  11.588   0.334  16.184 -0.2679  0.0651 -0.0033
23638W        W39107  13.742  10.335  13.033  0.2211 -0.1236 -0.0183
23639W        W39108  10.558   1.424   3.995  0.0824 -0.0555  0.0563
23640W        W39109   8.209  17.446   5.636  0.0213  0.0093  0.2793
23641W        W39110  12.240   2.914   5.772 -0.2516  0.2483  0.0800
23642W        W39111   8.168   8.162  16.338  0.2716  0.2408  0.0862
23643W        W39112   2.146  15.502   2.452  0.0175  0.2157  0.0956
23644W        W39113   0.553   2.226  14.735 -0.0121 -0.5299 -0.0990
23645W        W39114  15.051   8.753  13.477 -0.1235  0.2509 -0.0132
23646W        W39115  11.528  12.084   3.392 -0.1968  0.1248 -0.0483
23647W        W39116  17.473   7.389   3.321 -0.1196  0.0131  0.3389
23648W        W39117   7.323  17.178   0.410 -0.2432  0.2127 -0.0930
23649W        W39118   7.748  13.080  12.664 -0.0496  0.4501 -0.3390
23650W        W39119  15.925  13.528   6.165  0.0647  0.2869  0.1292
23651W        W39120   4.457   3.923   1.841  0.0380 -0.0168  0.0375
23652W        W39121  17.650   6.190   0.736  0.1301 -0.2929  0.0164
23653W        W39122  16.654  16.995   2.664 -0.1614  0.2256  0.0781
23654W        W39123  13.953  12.572   3.818  0.2275  0.2021 -0.0131
23655W        W39124   8.198  14.739   4.348 -0.0373  0.0095 -0.1209
23656W        W39125   5.452   1.912   0.738 -0.0374 -0.0587 -0.2224
23657W        W39126  17.285  11.582   4.924 -0.0571  0.3158 -0.1533
23658W        W39127   7.776  10.795  12.364 -0.0313  0.0105 -0.3347
23659W        W39128   1.079   3.740  12.460 -0.2750  0.1247 -0.2149
23660W        W39129   6.058   3.333  15.991  0.1825  0.1292 -0.0097
23661W        W39130   7.600  14.570  11.551  0.1333 -0.1122 -0.1577
23662W        W39131  13.870   8.704   4.561 -0.2495 -0.0272  0.2704
23663W        W39132  12.083  12.780   3.977  0.0040 -0.2309 -0.1453
23664W        W39133  12.500  12.478  14.198 -0.0072  0.0066  0.0147
23665W        W39134   0.482   9.262  14.883  0.0236 -0.0513 -0.0220
23666W        W39135   5.931   3.323  11.763  0.3792  0.0127  0.2778
23667W        W39136  12.860   4.559  11.447 -0.0503  0.2604  0.4758
23668W        W39137   4.826   1.420   5.006  0.2128  0.1788  0.6180
23669W        W39138   0.546   4.530   4.527  0.0479  0.2750 -0.0320
23670W        W39139   4.560   2.271   2.153  0.3551 -0.1617  0.1241
23671W        W39140   5.371  12.209   1.273 -0.0468 -0.0127 -0.0572
23672W        W39141  17.180  15.173   5.249 -0.1399  0.2487  0.3588
23673W        W39142  14.080   7.864   2.351 -0.2829 -0.2891  0.0760
23674W        W39143   1.878  12.328  12.139  0.1303  0.0034 -0.1402
23675W        W39144   1.056  15.642  12.068 -0.0299  0.1112 -0.0525
23676W        W39145   1.429   6.745  13.064  0.1161  0.1123  0.0516
23677W        W39146   4.165   2.548   0.754  0.1256  0.2169 -0.1269
23678W        W39147   8.473  12.766   5.286  0.0928 -0.2492  0.1686
23679W        W39148   3.634   2.299  13.719  0.1745 -0.1202 -0.1431
23680W        W39149  12.326  12.793  15.926  0.2232 -0.0237 -0.0075
23681W        W39150   0.835   7.540  15.161  0.1593  0.2259 -0.1645
23682W        W39151  16.564   9.951   2.578 -0.1460  0.1339 -0.0774
23683W        W39152  10.639   7.241   3.153 -0.0210 -0.0424  0.2368
23684W        W39153  10.086   7.162  14.972  0.2420 -0.1354  0.0912
23685W        W39154   7.286  15.986   0.921 -0.0983  0.2649  0.1542
23686W        W39155  12.883  16.291   6.099 -0.3394 -0.0910  0.1280
23687W        W39156  17.996   0.332  12.620 -0.1272  0.4717  0.0950
23688W        W39157  15.085  14.185  16.115  0.0880 -0.0096 -0.2696
23689W        W39158   1.758  12.178   3.609  0.0090  0.1825 -0.3601
23690W        W39159   8.845  14.347   1.619 -0.0365 -0.0047 -0.2716
23691W        W39160   0.024  11.585   1.923  0.1777  0.2258 -0.5005
23692W        W39161  15.042   4.363   3.684 -0.0869  0.0613  0.0202
23693W        W39162   8.420  16.959   3.342  0.3614  0.1448 -0.0107
23694W        W39163   9.411   0.364  16.140  0.1623  0.2591 -0.4764
23695W        W39164  15.849   1.728   6.035  0.2448 -0.1067  0.2207
23696W        W39165   0.213   9.699  15.655  0.0883  0.2246  0.3393
23697W        W39166   9.796   5.989  16.375 -0.0764  0.2289 -0.0506
23698W        W39167  12.175   8.462   2.667  0.0199  0.0403 -0.0308
23699W        W39168   2.249  12.982  14.854  0.1131  0.0543 -0.0890
23700W        W39169  16.090   8.094  13.976  0.1425  0.1219 -0.1291
23701W        W39170   1.352   3.628   5.197  0.0427 -0.0223  0.2224
23702W        W39171   4.587   9.325  15.679  0.3083 -0.0639 -0.0559
23703W        W39172   0.130  14.227   5.039 -0.3773 -0.1440  0.2227
23704W        W39173   8.854  16.164  15.929  0.0399 -0.1687 -0.1568
23705W        W39174  13.043   8.113   0.884  0.0316 -0.0991 -0.0945
23706W        W39175   1.475  10.462   2.868 -0.1045  0.0327  0.2216
23707W        W39176  16.950   4.194   3.887 -0.0474  0.0902  0.1196
23708W        W39177   2.912   4.095   2.699  0.0476  0.0144 -0.0874
23709W        W39178   6.913   5.634   4.931  0.1312 -0.0862 -0.5582
23710W        W39179   5.287   0.135   5.927  0.0743 -0.3328 -0.1193
23711W        W39180   6.760   2.086   3.882  0.0637  0.0276  0.1540
23712W        W39181  14.140   3.775  12.684  0.1639  0.2928 -0.3249
23713W        W39182  14.322  15.556   0.856 -0.1266  0.0523  0.2854
23714W        W39183   4.215  11.763   4.227 -0.4592 -0.0400 -0.5985
23715W        W39184   0.871   4.801   4.291  0.1232 -0.1789  0.0187
23716W        W39185  10.180   6.248   4.442 -0.1660  0.0694  0.0354
23717W        W39186  10.273  14.132  13.845 -0.0953 -0.1716 -0.2771
23718W        W39187   3.838   0.639  14.453 -0.1137  0.0973  0.1355
23719W        W39188   7.420  12.528   3.139  0.2148  0.3648  0.1359
23720W        W39189  12.890  17.784  12.529  0.2838  0.0942  0.1343
23721W        W39190  14.838  13.160   1.873  0.0379 -0.2691  0.2934
23722W        W39191   1.186   6.151   4.239  0.1374  0.0032  0.0405
23723W        W39192  12.262   6.027  14.441  0.1186 -0.1402 -0.0579
23724W        W39193   5.754   5.485  14.471 -0.0739  0.0700 -0.0447
23725W        W39194   2.569   0.705  15.718 -0.1299 -0.1161 -0.1934
23726W        W39195  13.749   4.633  12.770  0.4204  0.0489  0.0400
23727W        W39196   1.937   9.598  14.852  0.1434  0.0666 -0.0029
23728W        W39197  17.677   7.420  14.509  0.3633 -0.3236  0.6594
23729W        W39198   6.891  11.410   1.453  0.2028  0.0720 -0.0303
23730W        W39199  10.604  14.237  16.281  0.1109  0.0037 -0.2475
23731W        W39200   1.393  15.451  12.303  0.1911  0.2506 -0.2816
23732W        W39201  17.347   0.824   2.053 -0.2802  0.5334 -0.0491
23733W        W39202  11.944   9.506   4.081  0.0980  0.0474  0.2577
23734W        W39203  11.748   1.438  13.415 -0.0515  0.1894 -0.1233
23735W        W39204  13.906  12.898   2.308  0.2628 -0.0401 -0.3646
23736W        W39205   1.615  13.704   1.008  0.0037  0.1467 -0.2085
23737W        W39206  10.461   0.733  15.883 -0.0925  0.0026 -0.2872
23738W        W39207   9.138   4.731  15.879 -0.1233  0.1594 -0.2096
23739W        W39208  16.271   3.901  10.801  0.0807 -0.2851  0.0708
23740W        W39209   6.821   4.106  12.243 -0.0583  0.1642 -0.1562
23741W        W39210   4.646   2.809   1.808  0.0802  0.2601  0.2872
23742W        W39211   5.427   4.975   0.445 -0.0337 -0.1145  0.4049
23743W        W39212   0.655  15.015   3.510  0.1213 -0.0769 -0.0690
23744W        W39213  15.528   0.120   2.526  0.0554  0.4369  0.0293
23745W        W39214   8.674   9.608  12.941  0.0377 -0.1603  0.1606
23746W        W39215   9.953  10.139  15.324  0.0568  0.1005  0.0368
23747W        W39216  13.373   6.402  12.354  0.0978 -0.1415  0.0781
23748W        W39217   9.601  14.551  11.715  0.0833  0.2486  0.1347
23749W        W39218   2.399   3.043   1.442  0.2680  0.4205 -0.0418
23750W        W39219   4.712  14.332  12.590 -0.2919  0.0654  0.2411
23751W        W39220   2.504   2.547  13.231 -0.0130 -0.0917 -0.0606
23752W        W39221   5.919   4.167  12.686 -0.2500  0.1348  0.2170
23753W        W39222  15.254   7.516   3.019 -0.2303  0.1531 -0.0678
23754W        W39223  12.715   0.625   0.999 -0.0050 -0.0359  0.3394
23755W        W39224  17.588   5.727   1.609  0.1070  0.1346  0.2478
23756W        W39225  10.149  17.369   0.941  0.0139 -0.0474  0.1929
23757W        W39226   7.649   6.141   1.148 -0.2949 -0.1544  0.1580
23758W        W39227  15.577   8.463   2.296 -0.1945 -0.1608 -0.0260
23759W        W39228   0.810  11.148   1.794 -0.2975 -0.2319 -0.0247
23760W        W39229   2.474  10.453  11.537 -0.1731  0.1061 -0.0970
23761W        W39230   2.650  11.657  12.370  0.1735  0.2929 -0.1066
23762W        W39231  10.118  12.096   1.687 -0.1547  0.1491  0.4400
23763W        W39232  13.880   4.396  15.740 -0.1801  0.0599  0.0648
23764W        W39233  13.708  14.669  11.947  0.1127  0.1263 -0.1670
23765W        W39234   3.920   2.521   3.833 -0.0818 -0.0049 -0.2911
23766W        W39235  14.501  13.108  11.510  0.0937 -0.0259  0.1601
23767W        W39236  17.960  17.458  14.583 -0.3014  0.1475 -0.1536
23768W        W39237   2.606   5.545  14.204  0.0815  0.0654  0.0183
23769W        W39238  15.428   4.000  12.488 -0.1323 -0.1141 -0.0589
23770W        W39239   8.738   1.031   0.386  0.3058 -0.0422  0.1667
23771W        W39240   8.034   4.437  11.926  0.4824 -0.1437 -0.3071
23772W        W39241  11.837   3.582   2.064  0.1944  0.2097  0.2227
23773W        W39242  14.305   8.174   1.432 -0.0668  0.1305 -0.2808
23774W        W39243   0.991  14.685   3.326  0.1239 -0.0889 -0.3026
23775W        W39244  12.035  11.595   0.930  0.0081  0.1146  0.3356
23776W        W39245   6.363  15.961  13.066  0.2044  0.4207 -0.0566
23777W        W39246  10.351  16.644   3.971  0.0325  0.0851  0.0616
23778W        W39247   4.190   5.557   1.665 -0.1986  0.2194  0.3977
23779W        W39248  10.634  13.146  14.211 -0.0191 -0.1898  0.0230
23780W        W39249   2.579   3.598   5.247  0.2834  0.0386  0.0642
23781W        W39250  16.237   2.320  15.134 -0.0438 -0.3770  0.0796
23782W        W39251   6.849   8.286   1.010  0.0713 -0.3371  0.2997
23783W        W39252   6.491  11.337   4.850 -0.2476  0.1424 -0.0609
23784W        W39253   2.745   7.806   0.765 -0.0712  0.1227 -0.1776
23785W        W39254   1.599  10.417   4.898 -0.1663  0.4755  0.0585
23786W        W39255   6.504  13.337   2.414  0.0199  0.1143  0.2850
23787W        W39256  13.792   2.254   2.572 -0.0072 -0.1000 -0.1412
23788W        W39257   8.639   9.373   1.443 -0.2928  0.0528  0.2414
23789W        W39258   7.509   9.056  16.301 -0.1426 -0.0699  0.1315
23790W        W39259  10.806   5.705  15.608 -0.1459  0.0764  0.0882
23791W        W39260  11.554   6.743  15.938  0.1159  0.0380  0.1247
23792W        W39261   2.571  16.017  12.929 -0.3121  0.1054 -0.3204
23793W        W39262   2.991   2.433   0.133 -0.3048  0.3467 -0.0356
23794W        W39263   9.635  14.268   4.187 -0.0392  0.2994  0.0318
23795W        W39264  12.498   2.426   2.120 -0.1117  0.2338 -0.1499
23796W        W39265   3.175   7.345  12.374 -0.0708 -0.0326  0.0037
23797W        W39266   7.644   6.723  14.791 -0.0547  0.0323  0.1237
23798W        W39267  15.749  15.246   1.598  0.1061  0.2764  0.1507
23799W        W39268  16.340   3.814  15.133  0.2000  0.2068 -0.1293
23800W        W39269  11.455   6.691  13.576 -0.1508 -0.1614 -0.3185
23801W        W39270  14.880   4.298  16.415 -0.0520 -0.0650  0.0231
23802W        W39271   0.750   6.873  15.188 -0.1892 -0.1358  0.1856
23803W        W39272   4.518  16.753   1.363 -0.0708  0.1724  0.0694
23804W        W39273   8.923   2.168   5.709  0.0977  0.3194  0.1023
23805W        W39274   3.131  11.752  11.831  0.0974  0.0118 -0.1208
23806W        W39275   5.906   1.961   4.111  0.0172 -0.0600  0.3801
23807W        W39276  16.161  11.122   4.981  0.2783  0.3624  0.4408
23808W        W39277  15.555  12.085   4.306 -0.1437 -0.2656 -0.0480
23809W        W39278   5.057  16.239  15.112 -0.1489  0.0733 -0.0250
23810W        W39279   7.265  16.656  15.689  0.3440  0.4108 -0.0019
23811W        W39280  12.259  12.040  14.218 -0.2488  0.1819  0.2352
23812W        W39281   2.332   9.820   0.349  0.2465 -0.0339 -0.1659
23813W        W39282   5.236  17.372   3.654  0.0811 -0.1104 -0.0680
23814W        W39283   1.248   5.738  11.642  0.1085  0.3390  0.0764
23815W        W39284  11.696   4.367  12.114 -0.1456  0.0281  0.0154
23816W        W39285  15.334  14.778   6.044  0.0014 -0.2434  0.0875
23817W        W39286  17.789  12.370   4.694 -0.0913  0.1425 -0.2080
23818W        W39287   4.642  14.247   5.336 -0.1382 -0.3196 -0.0710
23819W        W39288   5.570   8.847   2.469  0.0928 -0.0189  0.1343
23820W        W39289   8.236   3.652   3.654  0.1141  0.1115  0.3955
23821W        W39290   9.227   4.062   3.524  0.1004  0.0064  0.3045
23822W        W39291   4.357   8.154   3.906  0.2358 -0.1602  0.2482
23823W        W39292  10.332   5.447  12.751  0.2007  0.1150  0.1303
23824W        W39293  17.683  13.319   4.351  0.1293  0.3551  0.0069
23825W        W39294  11.743   1.362  11.472 -0.0607 -0.0886 -0.1521
23826W        W39295   4.008  11.529   0.991 -0.0164 -0.0776  0.1088
23827W        W39296   2.096   5.624  11.047  0.3205  0.4211 -0.0015
23828W        W39297   8.122  13.972   0.929 -0.0097  0.4058  0.1855
23829W        W39298   6.140   4.640  12.753 -0.2889  0.0628 -0.0475
23830W        W39299  16.072  14.154   5.555  0.1018 -0.0593  0.1619
23831W        W39300   0.883   9.312   1.165 -0.3832  0.0365 -0.1064
23832W        W39301   2.092   4.829  12.189  0.0462 -0.0220 -0.1569
23833W        W39302   9.429   2.744   2.455  0.0536 -0.0324  0.2124
23834W        W39303   0.702   8.514   5.114 -0.0486 -0.0522  0.0592
23835W        W39304   5.934  10.416  12.025 -0.0813 -0.0997  0.2136
23836W        W39305  12.974   4.305  16.017  0.0071  0.3465  0.0681
23837W        W39306   2.630   9.121   5.191 -0.1528 -0.2722 -0.1226
23838W        W39307   4.872   1.308   2.083  0.0170 -0.0406  0.0687
23839W        W39308   3.437  14.590   2.852 -0.3520  0.0567  0.2891
23840W        W39309   8.655   6.607   1.570  0.0108 -0.0033  0.1639
23841W        W39310  13.353   7.631   0.747 -0.2019 -0.0861 -0.1099
23842W        W39311  11.792  15.819  15.851  0.0327 -0.2318  0.0583
23843W        W39312   8.350   2.669   5.881 -0.1939  0.1231 -0.1045
23844W        W39313   3.547   9.614   5.635 -0.1709 -0.1333 -0.0909
23845W        W39314   5.673   1.885   5.060 -0.0349  0.1479  0.1075
23846W        W39315   4.303  14.811  15.720 -0.1011 -0.0343  0.3302
23847W        W39316  14.942  11.026  15.832  0.0013 -0.1812 -0.0697
23848W        W39317  11.119   7.996   0.955  0.2382 -0.1345 -0.1222
23849W        W39318   7.258   5.662   3.674  0.0271  0.2964  0.0346
23850W        W39319  11.889   7.243   0.839 -0.0526  0.1264  0.2591
23851W        W39320   2.256   3.950   3.203 -0.2527  0.2930 -0.1606
23852W        W39321   9.513  12.668   2.260  0.3614 -0.2682 -0.0982
23853W        W39322   1.596  17.707  14.012  0.1922  0.0594 -0.0606
23854W        W39323   2.239  15.879  10.935 -0.1229 -0.0776  0.1525
23855W        W39324   2.764  17.449   1.341  0.0779  0.0207  0.2939
23856W        W39325   6.248   0.911   3.443 -0.0886 -0.1093  0.0532
23857W        W39326   3.710  12.428   3.119 -0.1078 -0.2139  0.3537
23858W        W39327   3.271   7.976   5.454 -0.0721 -0.1521  0.0037
23859W        W39328   1.413  17.349   3.893 -0.1263  0.0083 -0.1147
23860W        W39329   8.909   9.880  13.911  0.1075 -0.2345  0.1210
23861W        W39330  15.355  12.017  13.310  0.0437 -0.1171 -0.1810
23862W        W39331   5.492   9.496   1.293 -0.2200  0.1628 -0.1946
23863W        W39332  13.571   8.115   0.740 -0.0299 -0.2327  0.0568
23864W        W39333  11.190  16.431  14.758  0.2456 -0.2572 -0.0397
23865W        W39334   6.760  16.133  14.123 -0.0024  0.0459 -0.0693
23866W        W39335   8.649   5.725   4.072  0.4115 -0.0207 -0.0608
23867W        W39336  13.693   3.554   0.275 -0.0342 -0.1441  0.0204
23868W        W39337  12.916  17.694  11.622 -0.3588  0.0000 -0.2639
23869W        W39338   4.105  11.199   1.454 -0.2362  0.1535  0.1294
23870W        W39339   5.044  15.409  11.518  0.0118  0.0376 -0.1008
23871W        W39340  13.660   7.971  11.687  0.1556 -0.2046  0.2002
23872W        W39341  14.950   7.874  11.473 -0.0531 -0.0267 -0.0435
23873W        W39342   5.252   8.113  12.523  0.2368  0.0619 -0.2000
23874W        W39343   6.210  17.172   5.521 -0.2282 -0.1910  0.2875
23875W        W39344   4.373   3.376  15.201  0.0177  0.0638  0.1667
23876W        W39345   4.511  17.045   1.780 -0.1884  0.1659 -0.1465
23877W        W39346  16.885   6.362  11.992 -0.0350 -0.0604 -0.2439
23878W        W39347   7.232  17.650  15.356  0.0137  0.1028 -0.0053
23879W        W39348   5.016   6.281  12.873 -0.1209  0.0607  0.1058
23880W        W39349   3.351  14.046  14.430 -0.1445 -0.0979  0.2585
23881W        W39350  10.496  17.393  16.334 -0.0076  0.0805 -0.0190
23882W        W39351   4.306  15.027   4.943 -0.2888 -0.0468  0.1762
23883W        W39352   2.355   2.946  11.582  0.0719  0.2934  0.0025
23884W        W39353  16.638  11.415  15.310 -0.0338 -0.1958 -0.0518
23885W        W39354   4.921  11.012   2.312 -0.0648 -0.2745  0.1850
23886W        W39355   7.803   1.120   5.239  0.1513  0.1261  0.2713
23887W        W39356   0.745   7.527   4.059 -0.3570 -0.0193 -0.1523
23888W        W39357  11.579  10.361   4.625 -0.1690  0.0399 -0.1852
23889W        W39358  15.937   5.284  11.131  0.0789 -0.0114  0.2422
23890W        W39359   9.025  17.852  12.188 -0.0402 -0.1368  0.0082
23891W        W39360   4.305   8.283  16.402  0.2695  0.0710 -0.0572
23892W        W39361  14.687  17.398  15.133  0.1244 -0.0250  0.0077
23893W        W39362  12.736   4.934   0.054 -0.0652 -0.1028 -0.2642
23894W        W39363  17.024  10.229  15.750 -0.0032  0.6395  0.1180
23895W        W39364  12.895   3.861  14.838 -0.1801  0.0545  0.2387
23896W        W39365  16.039  12.808   1.256  0.1827  0.2786 -0.2543
23897W        W39366  15.329  12.740   0.085 -0.3500 -0.0754 -0.0121
23898W        W39367   5.680  16.402   1.798 -0.2003 -0.0348 -0.0089
23899W        W39368   0.027   1.664   5.767 -0.0118  0.1631  0.0735
23900W        W39369  16.047   6.442   4.221  0.0435 -0.0463  0.0758
23901W        W39370  12.466  17.872  16.587  0.3037 -0.3733  0.0547
23902W        W39371   2.087  17.147  13.508 -0.0464 -0.1942  0.1241
23903W        W39372   4.183  17.698   2.157  0.1982  0.0759  0.2183
23904W        W39373  12.991   3.038  11.298  0.2352  0.0068 -0.0654
23905W        W39374  11.279   3.250  11.339  0.0725  0.1216  0.2201
23906W        W39375  14.984   7.916   2.838  0.1345 -0.0536 -0.0731
23907W        W39376   1.560   3.079   1.050  0.0384  0.2232  0.0585
23908W        W39377  16.060  12.399   1.571  0.1028 -0.0150 -0.0343
23909W        W39378  15.454  10.163   1.425  0.1227  0.3087 -0.1351
23910W        W39379  16.391  17.323   1.362 -0.3252  0.1978 -0.1202
23911W        W39380  17.504  15.678  12.312  0.1150  0.0076 -0.2860
23912W        W39381  10.842   9.233  10.902 -0.0196 -0.0980 -0.4131
23913W        W39382  13.164  16.073   2.786  0.1651  0.0175 -0.1131
23914W        W39383  11.785   8.808   2.525  0.0416  0.0875  0.0796
23915W        W39384   1.193   3.201  11.310  0.2055 -0.0650  0.2629
23916W        W39385   8.036  14.441  11.766 -0.2340 -0.2002 -0.1863
23917W        W39386   0.060  17.966  16.332  0.0170  0.0071  0.1110
23918W        W39387  16.375  16.281  11.787 -0.3006  0.0366  0.1449
23919W        W39388  13.648   5.999   4.782  0.2016 -0.2197  0.0022
23920W        W39389   4.614  14.647  16.543 -0.1728 -0.3512 -0.2484
23921W        W39390   3.711   2.310   2.875  0.2043  0.0362  0.1741
23922W        W39391  13.420   2.378  11.976 -0.0846 -0.2727  0.4132
23923W        W39392   2.317   0.898  13.926 -0.0512 -0.2303 -0.2561
23924W        W39393   7.186  10.066   2.511  0.1595  0.0896  0.2104
23925W        W39394  12.027   8.762  11.986  0.1538  0.1452  0.2796
23926W        W39395  11.989   4.496   2.087 -0.1292 -0.0272 -0.1589
23927W        W39396   2.777  12.091  11.975  0.0148  0.0415  0.1582
23928W        W39397   3.344   1.290  13.314  0.1222  0.1428 -0.1382
23929W        W39398   0.929   5.422  14.099  0.2976 -0.0231  0.1938
23930W        W39399  17.954  12.897   6.009 -0.0029 -0.1455 -0.0091
23931W        W39400   6.314   6.020  11.820  0.2205  0.1024  0.1115
23932W        W39401   5.312   7.790   3.862 -0.0528  0.2160  0.2719
23933W        W39402  14.999  15.036   4.876 -0.1951  0.2584 -0.1408
23934W        W39403   3.655   7.430  16.380 -0.0830  0.0319  0.0146
23935W        W39404   1.965   7.366   0.386  0.0932  0.1079  0.0633
23936W        W39405  12.429  17.869  13.560  0.2807  0.2467 -0.1182
23937W        W39406  14.601  13.687   0.432  0.0008 -0.0779  0.1961
23938W        W39407   6.954   2.224  14.936 -0.0788 -0.2492 -0.2209
23939W        W39408  17.307  11.140  13.102 -0.1821  0.0085 -0.2053
23940W        W39409   4.721   8.385   4.146 -0.0276  0.0148 -0.1258
23941W        W39410  11.870  14.044  16.528 -0.1466 -0.3172 -0.0773
23942W        W39411  16.651  13.755  11.389  0.0691  0.1322  0.3325
23943W        W39412   8.060   4.573   1.182 -0.2777 -0.0046 -0.1926
23944W        W39413   4.175   8.731   1.594 -0.2357 -0.0845 -0.0775
23945W        W39414  13.703  15.711   3.334 -0.0162 -0.0338 -0.2593
23946W        W39415   7.938   2.595   5.035 -0.0279  0.0507 -0.0628
23947W        W39416   0.649   9.083   2.449 -0.1273 -0.2889  0.1514
23948W        W39417   7.457   8.958   2.352  0.1489 -0.0949 -0.0692
23949W        W39418  17.825  17.609   0.045 -0.1404 -0.0862 -0.2579
23950W        W39419   8.085  11.332   4.695 -0.0477 -0.1433  0.1322
23951W        W39420  12.758   4.014  13.109 -0.2679  0.0214  0.2468
23952W        W39421  15.567   0.663  14.166  0.2695  0.0607 -0.2171
23953W        W39422   3.506   8.786   4.171 -0.0973 -0.0922  0.0958
23954W        W39423   1.069   8.513  12.934  0.0917 -0.0360  0.2209
23955W        W39424  11.445   9.123  13.133 -0.0424  0.0538  0.2493
23956W        W39425   0.216  12.216   3.145  0.1593  0.2411 -0.1757
23957W        W39426   8.335  11.168  13.526  0.0753  0.0368 -0.0451
23958W        W39427   5.405   2.429  14.670 -0.0153  0.0972  0.1288
23959W        W39428  16.218   8.979  11.111  0.2501  0.2413 -0.2580
23960W        W39429   4.339   7.449  11.691  0.3365 -0.1234  0.0372
23961W        W39430  15.294  11.604   3.574 -0.2424 -0.0599  0.1372
23962W        W39431  13.236  11.737   4.774  0.0416  0.0526  0.0798
23963W        W39432  14.329   9.687   4.542 -0.3197 -0.1780 -0.0680
23964W        W39433   8.682   1.523   0.687  0.2718  0.1531 -0.0534
23965W        W39434  12.381  17.324  11.555 -0.0291 -0.1466  0.2184
23966W        W39435  16.878  10.403   2.442 -0.0888 -0.0592  0.0443
23967W        W39436  12.181   5.696   3.029  0.1253 -0.0796  0.0852
23968W        W39437   9.921  10.934  11.452  0.0424 -0.1225  0.1250
23969W        W39438  16.712  14.112  15.920 -0.3642 -0.1389 -0.2484
23970W        W39439  14.646  12.226   4.420  0.0673  0.0121  0.4091
23971W        W39440   9.745   3.863   0.008  0.2745 -0.0549  0.0025
23972W        W39441  16.962  14.018   1.148 -0.2874  0.0952 -0.1542
23973W        W39442   2.766  14.321  13.675  0.1587 -0.0792  0.0613
23974W        W39443  12.248  16.824   0.573 -0.0945  0.0012  0.0167
23975W        W39444  12.440  15.047  12.468 -0.0858 -0.0402  0.1434
23976W        W39445   6.550  12.246  15.371  0.1005 -0.0039 -0.1140
23977W        W39446  13.012   1.165  10.931  0.1810 -0.1147 -0.0844
23978W        W39447  10.586   4.820  14.834  0.2842 -0.1726  0.3576
23979W        W39448   0.934  16.484  11.045 -0.3008 -0.1274  0.2210
23980W        W39449  13.942   6.337  13.747  0.0935 -0.0890  0.0033
23981W        W39450   1.677  17.274   3.432 -0.1140 -0.0296 -0.1705
23982W        W39451  15.844   7.567  14.374  0.0966 -0.2343 -0.1217
23983W        W39452  14.315  13.484   0.078  0.2734 -0.2740 -0.3356
23984W        W39453   8.383   7.074   2.201  0.1961 -0.1530  0.1009
23985W        W39454  16.178   1.839  14.258  0.1005 -0.1925  0.3205
23986W        W39455   5.190  16.445   4.535 -0.2794 -0.1642 -0.1213
23987W        W39456   8.583  10.694   5.319  0.0795 -0.2913 -0.0543
23988W        W39457   5.537  11.303   2.364  0.0813  0.0613  0.2869
23989W        W39458  14.908   6.045   2.207  0.1505  0.1799 -0.3017
23990W        W39459  16.108   7.787   4.587 -0.2557  0.0006 -0.1595
23991W        W39460  17.181  14.108  14.750  0.2748 -0.1301 -0.2089
23992W        W39461   7.095   0.300   0.171  0.1994 -0.0075  0.0573
23993W        W39462  15.281   0.393  13.280  0.2488 -0.3613  0.0998
23994W        W39463   9.299   3.372   5.422 -0.0292 -0.1617  0.1623
23995W        W39464   5.156   3.247   3.912  0.0199 -0.1356 -0.2281
23996W        W39465   2.637   5.584   5.737 -0.0970 -0.0926 -0.1560
23997W        W39466  13.003  17.301  12.827  0.0565  0.0027  0.0711
23998W        W39467   2.469  15.245   3.230 -0.2162  0.0570  0.1070
23999W        W39468  13.215  14.443  16.294 -0.1338 -0.1601 -0.0743
24000W        W39469  11.480   9.603   3.748 -0.2513 -0.2735  0.2946
24001W        W39470   6.230  14.998   2.694  0.0355  0.0939  0.2911
24002W        W39471  11.560   5.321   2.246  0.2512  0.1681  0.0652
24003W        W39472   5.635   0.064   5.486  0.0401  0.3304  0.0745
24004W        W39473   0.384  16.145  13.783 -0.0494  0.1265 -0.2279
24005W        W39474   1.220   7.134   5.166 -0.0351  0.3933 -0.1119
24006W        W39475  17.782   1.779   4.888  0.2578  0.0401 -0.2308
24007W        W39476  12.318   4.623  15.346  0.1476  0.1712  0.0821
24008W        W39477  16.685  15.383  12.421  0.0921  0.2956 -0.0674
24009W        W39478   2.246  15.296  11.884 -0.1563  0.0913 -0.1381
24010W        W39479   7.085   5.560   2.820 -0.3749 -0.0786  0.0512
24011W        W39480  17.112   0.216   4.022  0.3615 -0.0741 -0.3076
24012W        W39481   7.445  17.645   5.197 -0.0893 -0.0360 -0.0085
24013W        W39482   1.415  16.017   1.520 -0.2276 -0.0184  0.0103
24014W        W39483   6.565   9.920   2.111 -0.0885  0.0391  0.3356
24015W        W39484  10.785  12.160  12.691  0.1504  0.0295 -0.2976
24016W        W39485  11.831   8.085  16.287  0.1669  0.1093  0.1478
24017W        W39486   1.928  15.761  14.933 -0.0952 -0.0327  0.1065
24018W        W39487  15.189   1.824   2.610 -0.0850 -0.2127  0.0077
24019W        W39488   7.023  14.982  15.000  0.1230  0.2827  0.0698
24020W        W39489   6.714  15.907   0.173  0.2186 -0.3838  0.0745
24021W        W39490  11.425  10.048   4.026  0.2449 -0.2184 -0.0180
24022W        W39491   8.521  17.062  12.205 -0.0680  0.1889  0.0048
24023W        W39492   6.436   0.829   0.387 -0.1593 -0.0470  0.3092
24024W        W39493   7.171   4.809  15.650  0.1597  0.0658 -0.0742
24025W        W39494  10.586   2.619  12.018 -0.2142  0.1111 -0.0081
24026W        W39495  12.692  16.226   0.028 -0.1223  0.2642 -0.1405
24027W        W39496   0.940  10.266   0.214  0.0371 -0.1137  0.1167
24028W        W39497  11.689  14.515   1.933 -0.1358 -0.1604 -0.4828
24029W        W39498  14.298   3.161  13.640  0.2204 -0.2054 -0.1602
24030W        W39499  14.820  13.725  14.921 -0.0109 -0.1440 -0.0508
24031W        W39500   5.055  17.640  14.955 -0.0278  0.1731 -0.2922
24032W        W39501  13.174  16.752   3.415 -0.1110 -0.0292 -0.0009
24033W        W39502   2.339  12.045  12.182  0.0641  0.0803 -0.0220
24034W        W39503  12.953   9.763  13.216 -0.2356 -0.0708  0.0185
24035W        W39504   5.415   7.212   2.162 -0.3556  0.0088  0.0920
24036W        W39505  17.952  11.520  16.498 -0.0881 -0.1168  0.1058
24037W        W39506  13.639  15.565  15.095  0.1756  0.1863 -0.1507
24038W        W39507   4.269   8.638   4.032  0.1833  0.0385  0.2267
24039W        W39508  15.208  13.502   3.116 -0.2028 -0.1414  0.1012
24040W        W39509   0.282   3.728   4.268  0.0219  0.0959  0.1133
24041W        W39510   1.255   9.568   0.844 -0.1276  0.2787 -0.2246
24042W        W39511   7.930  17.201  12.297 -0.2724  0.3045  0.0263
24043W        W39512   4.038   9.775  11.028 -0.0918 -0.0664 -0.3720
24044W        W39513   8.722   4.201  15.691  0.1794  0.1456  0.1938
24045W        W39514  15.285   1.540  12.162 -0.2686  0.0261  0.3262
24046W        W39515   6.242   7.701  11.638 -0.0139 -0.0738  0.3040
24047W        W39516   7.986   4.519  11.465 -0.1375 -0.0341 -0.0176
24048W        W39517   0.372  12.414   2.417  0.0847 -0.1569  0.0871
24049W        W39518   1.805   6.949  11.380 -0.0434 -0.0910  0.0424
24050W        W39519   1.207  13.759  13.251  0.0044  0.0423 -0.0180
24051W        W39520   8.545   6.968  16.520 -0.2943  0.1853 -0.0255
24052W        W39521   1.404   7.626  13.137  0.1103 -0.0455 -0.0612
24053W        W39522  14.047  11.208   2.416 -0.1169 -0.0615 -0.2515
24054W        W39523  14.199  17.348   2.805  0.0716  0.1781  0.1224
24055W        W39524  13.883  15.708   1.069  0.0386  0.2823 -0.0733
24056W        W39525   8.380   7.213  12.401  0.1986  0.1814  0.1859
24057W        W39526   7.051  15.517   6.948 -0.0045 -0.0837  0.0487
24058W        W39527   4.302   8.978  13.349  0.0182 -0.1930  0.0483
24059W        W39528   3.412   3.753  11.767 -0.1435 -0.1170  0.1180
24060W        W39529  12.260   9.580   1.602 -0.0872 -0.1328 -0.1612
24061W        W39530   9.141  14.643  11.582 -0.0560 -0.0595  0.1516
24062W        W39531  17.667  16.414   4.438  0.0131 -0.0681  0.5452
24063W        W39532   4.111   5.489  14.151  0.2004 -0.0600  0.0918
24064W        W39533   9.653   4.450   0.608  0.0845 -0.2012 -0.1352
24065W        W39534  12.008   6.030   4.146  0.2373  0.1592 -0.1663
24066W        W39535  12.196  10.883   3.642  0.0678 -0.0751 -0.0087
24067W        W39536   8.977  15.847   3.682 -0.0186  0.3276  0.0289
24068W        W39537  15.808  15.550  13.602  0.3568  0.2515  0.1739
24069W        W39538   0.101  17.108   5.662 -0.0210  0.0182 -0.0145
24070W        W39539   5.923   5.549  12.704  0.2645 -0.0192 -0.1385
24071W        W39540  17.023   1.579   2.396  0.0741 -0.4343  0.1418
24072W        W39541  17.081   8.188  12.094  0.1081 -0.0168 -0.3293
24073W        W39542  12.970  10.566  15.037  0.0625 -0.0742  0.2920
24074W        W39543   5.824  10.227   5.264 -0.0303 -0.2151 -0.1414
24075W        W39544   6.393   2.718   2.470  0.0257  0.0601  0.1230
24076W        W39545  10.186   7.919  16.182  0.3720 -0.2459  0.1795
24077W        W39546  15.896  14.363   2.832 -0.1293  0.0923 -0.0487
24078W        W39547  16.321  15.632   4.358  0.2910 -0.1355  0.1733
24079W        W39548  12.391  14.416  12.145  0.2170 -0.1726  0.2886
24080W        W39549   2.510   1.718   0.247  0.0567  0.4225  0.0342
24081W        W39550   9.842   7.056   0.745  0.0664 -0.0426  0.1786
24082W        W39551   9.993  17.645   0.557  0.0371 -0.3493  0.0344
24083W        W39552   6.452  15.843   4.630 -0.1181 -0.0530  0.1705
24084W        W39553  12.485   5.233  13.096  0.0142 -0.1527  0.1768
24085W        W39554  17.093   2.646   0.425 -0.1976  0.0986  0.0788
24086W        W39555  15.644   1.411  13.563 -0.0989 -0.0002  0.2442
24087W        W39556   6.178  11.851   3.556 -0.3550 -0.2480 -0.0006
24088W        W39557   5.881  13.778   4.534  0.1230 -0.0501  0.1440
24089W        W39558   5.009  11.914   5.158  0.1598  0.1834 -0.0160
24090W        W39559   6.953  12.295  14.736  0.0513 -0.2101 -0.1635
24091W        W39560   1.212  17.787   2.060  0.0268  0.2299  0.1099
24092W        W39561  10.284   4.939   1.209  0.1266 -0.1478  0.1742
24093W        W39562   9.422  17.401   5.937  0.3585  0.1643  0.1579
24094W        W39563  14.939   6.366   3.593 -0.0583  0.1763  0.0527
24095W        W39564  16.722  14.488   2.335 -0.1762  0.0780  0.0155
24096W        W39565   8.511   6.019   0.153 -0.3940  0.1572  0.2581
24097W        W39566  17.227   2.761   4.570 -0.0582 -0.1350  0.1809
24098W        W39567   9.344   0.356  13.998  0.3239  0.3845  0.1878
24099W        W39568  15.815   9.879  12.375 -0.1867  0.0472  0.0196
24100W        W39569  13.538  15.630  14.039 -0.1850  0.0964  0.1702
24101W        W39570   0.692  11.363  13.851 -0.4493 -0.0447  0.2884
24102W        W39571   0.140  10.395  11.003 -0.0079  0.3143 -0.0791
24103W        W39572  11.038   3.762   2.616  0.1440  0.0366  0.0989
24104W        W39573   4.670   1.655  13.772 -0.4895  0.2933  0.0127
24105W        W39574   4.889  16.270   5.431  0.1154 -0.1611  0.2717
24106W        W39575  17.873   5.577   6.202  0.2426  0.3768  0.0998
24107W        W39576   3.214  13.065   0.425  0.0746 -0.0203 -0.0773
24108W        W39577  12.844   0.678   2.002 -0.1277 -0.0174 -0.2465
24109W        W39578   1.709   9.829   1.398 -0.1697  0.3013  0.0732
24110W        W39579   6.437  16.848   2.176  0.1533  0.1463 -0.0535
24111W        W39580  10.393   4.579  16.436 -0.0582 -0.1010  0.3622
24112W        W39581   1.172  15.194  15.585 -0.0996 -0.1926 -0.0029
24113W        W39582   3.887   8.326   4.019  0.1058 -0.1197 -0.0608
24114W        W39583   4.048   7.173   3.468  0.0467 -0.1400  0.2274
24115W        W39584   8.475  16.664  13.812  0.4301  0.2143  0.0772
24116W        W39585   4.370  16.598   4.714 -0.2315 -0.0139  0.1599
24117W        W39586   0.088  15.805  16.032 -0.3052 -0.1861  0.0089
24118W        W39587  12.265  10.081  14.018  0.2143  0.1275  0.0224
24119W        W39588   6.672   9.531   1.750  0.0450  0.1742 -0.0782
24120W        W39589  10.354   1.318  13.704 -0.0303 -0.1204 -0.1668
24121W        W39590   7.251   1.774   3.052  0.1223 -0.2117  0.2706
24122W        W39591   5.891   3.849  11.692 -0.0872  0.1198  0.0130
24123W        W39592   9.868   7.483   1.248  0.2656  0.0448  0.0093
24124W        W39593   9.387   9.761   0.429  0.0948 -0.5322  0.0815
24125W        W39594  10.156   9.133  15.471 -0.2583 -0.1729 -0.0057
24126W        W39595   9.032   4.287  11.943 -0.3078  0.1967  0.3465
24127W        W39596  10.224  13.717   5.531  0.0681 -0.2476 -0.2203
24128W        W39597   4.853  13.780   3.621 -0.0340  0.3867 -0.0688
24129W        W39598   3.698  17.108   4.418 -0.0250 -0.3561  0.1102
24130W        W39599   3.992  17.708   3.959 -0.0139  0.1250  0.1575
24131W        W39600   3.352  16.807   4.592 -0.2428 -0.1678 -0.0154
24132W        W39601  12.097   4.776  11.241 -0.0930  0.2022  0.0503
24133W        W39602  14.792  13.171  12.481 -0.0487 -0.4694  0.1220
24134W        W39603   7.894   9.546  16.047 -0.1611 -0.3128  0.0169
24135W        W39604   8.103  13.307  13.669  0.1929 -0.0354 -0.1068
24136W        W39605  17.284   7.015  13.523 -0.5169  0.1582 -0.1030
24137W        W39606   3.701   8.570  11.087  0.0038 -0.0372  0.0065
24138W        W39607   3.154   6.164  16.274 -0.0552  0.1597 -0.0035
24139W        W39608  12.179   5.121  12.149 -0.0723 -0.3200  0.1932
24140W        W39609  14.678   5.974   0.597  0.0510 -0.0508  0.2840
24141W        W39610   5.487   0.402  13.672 -0.2257  0.0023  0.0307
24142W        W39611  15.568  11.222   3.024 -0.1757 -0.0276  0.0202
24143W        W39612  13.153  13.773  14.206 -0.0489  0.2172  0.2215
24144W        W39613   9.279  10.286  10.425 -0.0193  0.2449  0.0278
24145W        W39614  17.233   7.042  15.382  0.1540 -0.2428  0.2387
24146W        W39615  16.997   1.006   5.181 -0.2498 -0.1887  0.1490
24147W        W39616   5.309  15.188  12.957 -0.0678 -0.0086  0.1131
24148W        W39617  10.665   6.570  16.046  0.0820 -0.2990 -0.3417
24149W        W39618  10.899   0.363  13.241 -0.1243 -0.1029 -0.2240
24150W        W39619  16.612   3.222   3.799  0.2470  0.3006  0.3160
24151W        W39620  13.345   9.856  12.420  0.0951  0.2047 -0.0719
24152W        W39621   7.550  15.983   3.947  0.1572 -0.1350  0.4201
24153W        W39622   2.693   3.320  12.302 -0.0012  0.0605  0.1515
24154W        W39623   6.912   6.903   2.202 -0.3295 -0.0619 -0.0426
24155W        W39624   8.727  17.356  15.684 -0.0628  0.1320 -0.0966
24156W        W39625   4.376  10.323  14.293  0.4159 -0.1039 -0.0301
24157W        W39626   1.381  13.231   4.968  0.1310  0.5017  0.0283
24158W        W39627  17.764  12.735  14.861 -0.2281  0.1836  0.3255
24159W        W39628  10.433  10.727  12.647  0.3910  0.0913 -0.0067
24160W        W39629  10.980   7.087  11.510 -0.0915  0.2470  0.0658
24161W        W39630   5.589   3.122  15.820 -0.1302  0.1017 -0.1149
24162W        W39631  11.510  13.746  14.812 -0.1649 -0.0140  0.3456
24163W        W39632  16.496   8.449  11.393  0.1114 -0.0739  0.1588
24164W        W39633  17.464  15.924  13.306 -0.1455  0.2019 -0.0808
24165W        W39634  16.197  16.628   3.859  0.1416 -0.2198 -0.2130
24166W        W39635  13.092  12.478  13.538  0.0822 -0.4247  0.2202
24167W        W39636   3.093  11.703  15.750 -0.1796  0.1887  0.0826
24168W        W39637  11.117  15.798  12.061 -0.0519  0.0864  0.0327
24169W        W39638   1.760   8.943  13.752 -0.0505 -0.3373 -0.0074
24170W        W39639  13.825   1.490   4.001  0.0583  0.3211 -0.2695
24171W        W39640   4.488   3.752  15.936 -0.1400  0.1088 -0.2100
24172W        W39641   9.055   6.716  11.948  0.1934  0.1827 -0.3318
24173W        W39642  13.609  15.126   1.079 -0.1164 -0.3490 -0.0353
24174W        W39643   2.835   7.730  12.410 -0.1353 -0.0305  0.0231
24175W        W39644   5.194  13.591   2.273  0.1989 -0.4908 -0.0881
24176W        W39645  13.386  11.763  13.855 -0.0125  0.0008 -0.3103
24177W        W39646   6.024  16.517   4.233  0.0753 -0.1448  0.1294
24178W        W39647  17.376  14.004  11.759  0.3019 -0.0742  0.2053
24179W        W39648  11.382   4.310  14.386 -0.2183 -0.0832  0.1194
24180W        W39649  15.266  13.007  15.930 -0.1089  0.0778  0.0169
24181W        W39650   8.565  12.722   6.251 -0.1722  0.0477  0.0778
24182W        W39651  10.587  15.832   1.677  0.0774 -0.1390  0.1165
24183W        W39652  13.621   9.521  16.176 -0.1782 -0.0428 -0.2005
24184W        W39653   3.948   1.336  15.041  0.3349  0.0654 -0.1227
24185W        W39654  14.242   8.344   4.560  0.0167  0.1714  0.0656
24186W        W39655  10.897  13.824  16.307 -0.0156  0.3693 -0.2215
24187W        W39656   0.204   4.470  10.579 -0.2530  0.0563  0.1548
24188W        W39657   9.785   0.243  15.252 -0.1881 -0.0642 -0.0830
24189W        W39658  15.005  11.412  11.549  0.1088  0.0270 -0.1073
24190W        W39659   3.103   7.656   4.184 -0.0195 -0.4370  0.0463
24191W        W39660   1.949   8.636   3.587 -0.0333 -0.0832  0.0465
24192W        W39661  13.860   2.259  12.161 -0.1052  0.3641 -0.0550
24193W        W39662   0.516  13.618   3.296  0.0025 -0.1609  0.0511
24194W        W39663  16.213   2.675   0.731 -0.1493  0.2635  0.2699
24195W        W39664   7.198  11.536  15.866  0.0699  0.1567 -0.0392
24196W        W39665   7.194  13.450  15.796 -0.1242  0.0953 -0.1263
24197W        W39666  14.600  17.132   4.058 -0.1779 -0.0641 -0.1303
24198W        W39667  15.993  16.400   2.445 -0.2175 -0.0472 -0.0813
24199W        W39668   8.891  17.519   2.665 -0.0683  0.0602  0.0911
24200W        W39669   3.908  11.404   4.385 -0.3952 -0.2582  0.1889
24201W        W39670   0.133  13.230  12.305  0.0133 -0.0445 -0.0545
24202W        W39671  11.105   3.314   5.611  0.0332 -0.4664 -0.1602
24203W        W39672   7.246   8.650   1.460  0.1405 -0.3504  0.0785
24204W        W39673  11.096   2.621   3.879 -0.0422 -0.0765 -0.0273
24205W        W39674  12.812  14.663  11.997 -0.0916  0.0349  0.1286
24206W        W39675   7.629  15.978  13.709  0.2617  0.1132  0.6831
24207W        W39676   2.551  10.265  16.415 -0.0342 -0.1214 -0.1278
24208W        W39677   6.521  10.279  13.452  0.1985 -0.1075 -0.0860
24209W        W39678   3.669   0.788   0.275 -0.1808  0.0459  0.0326
24210W        W39679  17.929   5.451  12.073 -0.0641 -0.3351 -0.2267
24211W        W39680  17.007   8.045  10.662  0.1886 -0.1244  0.1769
24212W        W39681   1.474   5.167   2.954 -0.4320  0.0454  0.0113
24213W        W39682  17.109   4.265   2.184 -0.0522 -0.0509 -0.3683
24214W        W39683  13.648  12.820  11.416  0.1508  0.1568 -0.1199
24215W        W39684   9.011   9.483   2.846  0.4446  0.3240 -0.0540
24216W        W39685   4.155   0.735   0.485  0.1303 -0.1568  0.0376
24217W        W39686  14.703   9.373  16.566 -0.0089  0.1494  0.1528
24218W        W39687   7.417   7.902   4.395 -0.1905 -0.0588  0.0050
24219W        W39688   5.099   8.730  14.805 -0.0648  0.0478  0.0916
24220W        W39689  16.897   4.344  15.534 -0.0845  0.1989 -0.0484
24221W        W39690  17.311  10.571  10.653 -0.1620 -0.0390  0.1285
24222W        W39691   7.359   1.250  15.330 -0.1332 -0.3248 -0.1291
24223W        W39692   0.290   6.067  10.784 -0.0138 -0.0416  0.1607
24224W        W39693  12.276  10.394   2.260  0.0278  0.0579  0.3845
24225W        W39694  15.882   0.587  14.583  0.1999 -0.1193 -0.2461
24226W        W39695  11.138  15.769  14.033  0.2899  0.0062 -0.0444
24227W        W39696   4.761  10.339   1.349  0.1999  0.3047 -0.0664
24228W        W39697  16.429  14.992   1.626 -0.0977  0.3062  0.3393
24229W        W39698   1.058   3.731   1.800 -0.1352  0.0238  0.4117
24230W        W39699   5.573  17.448   0.050 -0.3782 -0.2257 -0.1884
24231W        W39700  15.824   1.507   4.258 -0.2508  0.0902 -0.0779
24232W        W39701  10.841  13.203  14.714  0.0916  0.1130  0.1220
24233W        W39702   2.081   7.896   1.705 -0.0559  0.0215 -0.1040
24234W        W39703   4.663   2.548   0.843 -0.2089  0.0242  0.1478
24235W        W39704   8.833   5.683   3.213  0.1968  0.1283  0.0758
24236W        W39705   1.364  11.686  14.460 -0.2281 -0.0914  0.0454
24237W        W39706  16.054  13.200  13.867  0.0290  0.0593 -0.0177
24238W        W39707   9.667   2.424   3.303  0.2733 -0.3104  0.3657
24239W        W39708  13.439  14.844   2.084  0.3040 -0.1567 -0.2498
24240W        W39709   2.279   0.514  13.082  0.0261  0.0309  0.0827
24241W        W39710   0.610   0.756  12.652 -0.1134  0.1419  0.0338
24242W        W39711  17.131  15.748   4.970 -0.1185  0.0174  0.4661
24243W        W39712   7.126   1.712  15.660 -0.0201  0.2925 -0.0852
24244W        W39713   9.114  13.871   1.671 -0.1450 -0.0048 -0.0357
24245W        W39714  10.955   9.468  12.491  0.0506 -0.3108  0.1537
24246W        W39715  12.129   3.846  16.048 -0.2484 -0.1470 -0.0170
24247W        W39716   0.976  16.952  13.136 -0.1039  0.2550 -0.3248
24248W        W39717   0.077  11.090   4.116 -0.1281 -0.0521 -0.0951
24249W        W39718   4.020   1.265   4.928 -0.1634 -0.0357 -0.1679
24250W        W39719   2.372   7.447   1.018 -0.1344  0.0605  0.2146
24251W        W39720   3.452   5.384  11.216 -0.1712  0.2102 -0.1543
24252W        W39721  11.022  15.885  12.615 -0.0015  0.3031  0.1064
24253W        W39722  15.911   7.486  10.960  0.3718 -0.0094  0.1215
24254W        W39723   4.021  16.926   2.648 -0.2546  0.1656  0.0405
24255W        W39724   8.893   2.970   5.362  0.1019  0.1569  0.1532
24256W        W39725   9.978   5.041   5.201  0.0085 -0.0067  0.0456
24257W        W39726  14.950  14.816   0.533  0.0247 -0.1968  0.0427
24258W        W39727  11.629   1.746  14.369  0.1066  0.1377  0.1019
24259W        W39728  15.394  14.715  15.119  0.0958 -0.2480 -0.1264
24260W        W39729   1.647   0.943   4.347 -0.1247  0.1327 -0.0838
24261W        W39730   1.891   5.522   4.985 -0.1525  0.1595  0.0976
24262W        W39731  10.700   0.992  13.906  0.1007 -0.0887 -0.0888
24263W        W39732  10.826   6.957  15.199 -0.0026  0.1685  0.1067
24264W        W39733  11.378  17.358  11.566 -0.0510  0.3317 -0.1455
24265W        W39734   0.549  16.409   4.685  0.1802 -0.0749 -0.2552
24266W        W39735  13.476  14.332  15.437  0.3099  0.1117 -0.0714
24267W        W39736   5.796   4.812   3.130 -0.2908  0.0653 -0.1276
24268W        W39737  16.263   3.883   0.658 -0.0104 -0.0166  0.2797
24269W        W39738   4.811  16.748   0.909  0.1021  0.1231  0.0865
24270W        W39739  16.339   8.445  10.899 -0.0935 -0.0747 -0.0287
24271W        W39740  14.635  15.421   4.909 -0.0245 -0.0391 -0.1518
24272W        W39741   6.916   3.195  14.581  0.0140  0.2448 -0.0921
24273W        W39742  11.598  16.069  14.751 -0.0594 -0.1336 -0.0204
24274W        W39743  17.011  17.588   4.724 -0.3191  0.0014 -0.4217
24275W        W39744   0.357   2.584  11.701  0.0400 -0.0148  0.0742
24276W        W39745   3.876  11.652   2.152  0.2579  0.0842 -0.0883
24277W        W39746  16.550  11.209   1.810  0.1819 -0.0032  0.3093
24278W        W39747  14.890  13.065  14.036 -0.2128 -0.1677  0.0690
24279W        W39748   1.774   3.241   1.504  0.0636 -0.2327 -0.2560
24280W        W39749  11.805   0.370   1.793  0.1209  0.0299 -0.2898
24281W        W39750   5.082  11.033   2.901  0.0125  0.0097  0.2659
24282W        W39751  16.126   1.270   3.998 -0.0532  0.1814  0.0819
24283W        W39752   9.379   1.069   4.258 -0.0647  0.0409  0.2464
24284W        W39753   6.626   3.262   1.574 -0.3095 -0.1993 -0.0778
24285W        W39754   6.323   2.004  12.989 -0.2210 -0.0641  0.2186
24286W        W39755   8.242  11.235   5.146  0.1196  0.3123 -0.1185
24287W        W39756   0.506  16.894  12.939  0.1008 -0.2854 -0.0211
24288W        W39757  12.977  15.614  13.005  0.0270 -0.0296  0.1735
24289W        W39758   5.096  13.074   2.328 -0.3485 -0.3261  0.2600
24290W        W39759   1.865   7.044  12.564  0.3793 -0.1261 -0.0208
24291W        W39760   9.918  15.811  14.840  0.1120  0.1661  0.0070
24292W        W39761  10.227  10.459  13.012  0.0748  0.1417  0.1869
24293W        W39762  16.799   2.749   5.265 -0.0642 -0.1717  0.1369
24294W        W39763   6.825  16.458   3.111 -0.5169  0.3175 -0.1165
24295W        W39764   5.614   2.383  10.829 -0.1319 -0.1502 -0.0359
24296W        W39765  14.307   3.350  12.516 -0.0616  0.6511 -0.0517
24297W        W39766   8.672   5.744   4.618  0.0968 -0.1196 -0.0089
24298W        W39767  14.937   3.695  13.168 -0.0411 -0.0385  0.0272
24299W        W39768   6.965  16.809   0.540 -0.2263 -0.1067  0.0366
24300W        W39769   6.741  12.032   2.923  0.1207  0.2428  0.2836
24301W        W39770   0.899  12.829   0.993 -0.2100 -0.3911  0.0159
24302W        W39771  11.477  12.666   0.836 -0.1959  0.1592 -0.1183
24303W        W39772  10.582  17.997   2.181  0.0214 -0.0943 -0.3698
24304W        W39773   7.466   5.477   4.878 -0.0820  0.1059 -0.2247
24305W        W39774  11.297   9.774  15.413 -0.0471  0.3503 -0.1209
24306W        W39775   7.865   6.639  16.382 -0.0762  0.1118 -0.0221
24307W        W39776   0.504  13.994   3.747 -0.1875 -0.1855  0.3020
24308W        W39777   5.320   5.714  14.361 -0.0140  0.0534 -0.1063
24309W        W39778   9.085   6.899   1.502 -0.2315  0.2714 -0.1912
24310W        W39779   2.208   3.335  16.457  0.1152 -0.0933  0.1040
24311W        W39780   4.859   5.408   4.657 -0.0773 -0.3421 -0.1685
24312W        W39781   0.363  15.581  13.554 -0.2502 -0.2361  0.2352
24313W        W39782  11.006  11.180  16.393 -0.0652  0.0566 -0.0211
24314W        W39783  17.562  16.562   5.206  0.0777  0.0086  0.3190
24315W        W39784  15.361  17.014   2.043 -0.0601 -0.2288 -0.0859
24316W        W39785  12.418  17.518   0.310  0.0517  0.0539  0.0041
24317W        W39786  15.838   8.944  16.004  0.1946  0.5298  0.0003
24318W        W39787  16.258  14.967   4.272 -0.2473 -0.2025  0.3137
24319W        W39788   5.348   6.277   0.375 -0.0190 -0.1739 -0.1511
24320W        W39789  13.572   0.457  12.660 -0.0553 -0.0763  0.3338
24321W        W39790  10.829  14.390  15.884 -0.1887 -0.3651  0.0061
24322W        W39791   8.534   6.719  14.950 -0.1960 -0.1053  0.0291
24323W        W39792  14.753   7.128   0.755  0.0640 -0.1571  0.2974
24324W        W39793   6.706  12.475  14.274  0.3209 -0.0878 -0.1279
24325W        W39794   6.730   8.454   5.215  0.1245  0.0440 -0.0700
24326W        W39795  17.575   8.362   1.138  0.0627  0.2540  0.2014
24327W        W39796  15.628  13.875   4.396  0.0142  0.2997  0.2467
24328W        W39797  12.993  10.987  11.603  0.1187  0.2247 -0.1705
24329W        W39798   8.970   8.301  11.314  0.5173 -0.1714 -0.1178
24330W        W39799   5.304   0.408  12.808  0.0992 -0.0908 -0.1854
24331W        W39800   0.879   9.404  14.477  0.4006 -0.1793  0.0397
24332W        W39801  12.259   3.744   0.639 -0.1056  0.1370 -0.0386
24333W        W39802   0.149   8.168  14.687 -0.3299 -0.1828 -0.3210
24334W        W39803  17.732  14.675  12.891 -0.2246 -0.5018  0.2972
24335W        W39804  15.884   9.106   5.234  0.3631 -0.1035 -0.0145
24336W        W39805   7.719   4.320   0.781  0.0822  0.0229 -0.1283
24337W        W39806   1.282  10.062  11.970 -0.0786  0.1898 -0.2286
24338W        W39807   4.143  16.923  14.162  0.1082 -0.1318 -0.2656
24339W        W39808  14.299  11.434  10.926  0.1363 -0.2180 -0.0843
24340W        W39809   0.888  14.738  13.837  0.3848  0.0827  0.0695
24341W        W39810  12.447   5.765   5.083 -0.0500  0.1144  0.0185
24342W        W39811   8.649  17.610  13.394 -0.0882  0.1053  0.0429
24343W        W39812   1.701  16.225  14.050 -0.1302 -0.0970  0.1933
24344W        W39813  15.831  11.448   3.345  0.1380 -0.0040 -0.1874
24345W        W39814   1.532   8.418  12.968 -0.2150 -0.1257  0.2163
24346W        W39815   6.046   5.475   1.865 -0.2286 -0.0245 -0.1463
24347W        W39816   7.993   3.554   3.225 -0.1227 -0.1559  0.3107
24348W        W39817   0.372  14.857  15.566 -0.1400  0.0773 -0.0173
24349W        W39818  11.850  12.821   3.527 -0.2563 -0.0727  0.0416
24350W        W39819  12.928   0.754   2.522 -0.2044  0.0913  0.0801
24351W        W39820  11.089  14.008   4.172  0.1045 -0.0162 -0.3254
24352W        W39821  11.446   0.285   2.361 -0.0722  0.2428 -0.0440
24353W        W39822   7.611  12.707  11.699  0.1338  0.2563 -0.0554
24354W        W39823   3.994   6.467   0.711  0.1199  0.2243 -0.0717
24355W        W39824  17.653  10.470  12.415  0.0737  0.1373 -0.1957
24356W        W39825  13.307   0.856   2.899 -0.1203  0.1941 -0.0325
24357W        W39826  14.747  16.355   3.465  0.0848 -0.2465  0.0424
24358W        W39827   9.544  11.485  14.066  0.1841  0.1695  0.0347
24359W        W39828  11.963   4.017   2.916  0.1262 -0.1796 -0.0971
24360W        W39829   8.089   9.069   5.855 -0.0323  0.1313 -0.0663
24361W        W39830  17.096  16.900  13.005 -0.1165  0.0076 -0.0847
24362W        W39831  16.661   2.157   2.813 -0.0690 -0.1814 -0.0451
24363W        W39832   9.205   4.791  16.400 -0.0831  0.2016  0.2727
24364W        W39833   7.857  17.535  11.897 -0.1001 -0.1985 -0.3755
24365W        W39834  13.694   7.711   4.487  0.0652 -0.0041 -0.1259
24366W        W39835  14.214   1.787   4.124  0.2063 -0.3070  0.1956
24367W        W39836   2.898   1.922   2.094  0.0350  0.5682  0.2427
24368W        W39837   6.849  10.051   1.098 -0.1515 -0.1075  0.1124
24369W        W39838  11.141  11.877   4.457 -0.0867 -0.0036 -0.1059
24370W        W39839  14.404   8.565   5.392 -0.2158  0.0204 -0.4638
24371W        W39840   1.568   0.030   0.728  0.3269  0.0752 -0.2418
24372W        W39841   4.914  13.507   3.098 -0.0107 -0.1633  0.2895
24373W        W39842  10.770  15.720   2.772 -0.1711  0.1009 -0.0041
24374W        W39843   8.667   2.320  11.819  0.1138  0.0684 -0.0130
24375W        W39844  12.063   0.452   5.998 -0.3512 -0.1594  0.0687
24376W        W39845   9.415  13.349  15.768  0.2335  0.1753 -0.0063
24377W        W39846  11.302   5.094   5.135 -0.1963  0.0851  0.1479
24378W        W39847  14.274   3.748   4.941 -0.1531 -0.1998  0.1874
24379W        W39848   6.366   1.164  14.367  0.1432  0.0116 -0.2689
24380W        W39849   5.612   0.510  16.465  0.0389  0.0280 -0.0414
24381W        W39850   4.116   7.153   1.185 -0.0171 -0.3364 -0.1305
24382W        W39851  12.150   2.112   3.052  0.0090 -0.0332  0.0231
24383W        W39852  13.440  12.277   0.956 -0.0907 -0.0886  0.0562
24384W        W39853   7.394  13.177   1.434  0.0599 -0.0675  0.0393
24385W        W39854   3.040  11.393   2.498  0.2064 -0.0535 -0.2185
24386W        W39855   9.726  15.201  16.033  0.1301 -0.1734  0.2341
24387W        W39856   0.674   9.160   4.426  0.2477 -0.0512 -0.0363
24388W        W39857   5.226   9.583  13.386 -0.0672  0.1835  0.2511
24389W        W39858   3.438   8.929  16.421 -0.0675 -0.1843 -0.0480
24390W        W39859  11.724  17.877   2.514  0.1886 -0.2008 -0.1559
24391W        W39860  17.100   1.677  14.286 -0.3503 -0.0971  0.0565
24392W        W39861   3.721  16.627  14.061  0.0972 -0.2700 -0.0232
24393W        W39862   3.912   9.339  13.461 -0.1948 -0.1577  0.2792
24394W        W39863   0.040  12.514   5.615  0.2562  0.2276  0.3702
24395W        W39864   5.434   3.206  12.814  0.0035 -0.1707  0.1301
24396W        W39865   2.780  12.343   0.924  0.1980  0.0496  0.0229
24397W        W39866   9.275   2.925   5.766 -0.1839  0.3396 -0.1086
24398W        W39867  17.122   8.348  15.185 -0.0067 -0.1487 -0.0978
24399W        W39868   8.370   1.947  16.062 -0.0431 -0.3563 -0.1310
24400W        W39869   0.981  15.509   5.473  0.0510  0.0572  0.2265
24401W        W39870   9.893  15.963   5.781  0.1888 -0.0281  0.1828
24402W        W39871   1.327   7.609   4.362 -0.2171 -0.2032  0.3213
24403W        W39872  11.256   6.730  14.049  0.0695  0.0019 -0.2881
24404W        W39873   5.213   4.510   2.931 -0.1821  0.0170  0.0011
24405W        W39874  12.465   5.307   3.983  0.1238 -0.1641 -0.2631
24406W        W39875  12.220   6.690   3.010 -0.0877  0.3306 -0.2924
24407W        W39876  12.450   7.555   0.088 -0.1334  0.0216  0.1201
24408W        W39877   0.819  15.750  13.528 -0.0478 -0.1071  0.3322
24409W        W39878   2.345  12.351   1.221  0.0525 -0.0487 -0.0991
24410W        W39879   9.518   4.595   2.907  0.0768 -0.2138  0.0434
24411W        W39880   3.770  12.173  11.164 -0.0928 -0.0715 -0.1709
24412W        W39881  14.753   4.317   5.379 -0.0483  0.1746 -0.0682
24413W        W39882  12.973   0.814  13.498 -0.1788  0.0631  0.1359
24414W        W39883  10.530   2.435   5.642  0.0064  0.2751 -0.4664
24415W        W39884   1.171   7.838   0.218 -0.1732 -0.2021 -0.2097
24416W        W39885  17.891   9.968   1.966 -0.0475  0.3717  0.0228
24417W        W39886  16.301  16.401  15.145 -0.3083  0.2949 -0.1728
24418W        W39887  14.488  17.233  14.685 -0.1866 -0.2995  0.0789
24419W        W39888   0.799   0.233   1.991  0.2989  0.1218 -0.0185
24420W        W39889   5.537  11.422   0.938 -0.1455 -0.1531  0.3070
24421W        W39890  17.283   5.010   3.075 -0.0023  0.0255 -0.1673
24422W        W39891   7.634   7.365  14.964 -0.4437  0.1530  0.1545
24423W        W39892  10.156   8.348  14.406 -0.0188 -0.1098 -0.5186
24424W        W39893   2.415  15.474   3.671 -0.0379 -0.0215 -0.3468
24425W        W39894  13.245  11.377   2.644 -0.1496  0.0906 -0.2328
24426W        W39895  11.329   9.431  10.889 -0.1180 -0.1556 -0.1090
24427W        W39896  12.099   9.995   3.171 -0.0717  0.2976  0.1507
24428W        W39897  13.684   5.305   2.581  0.1777 -0.2006  0.1928
24429W        W39898   7.677  13.202   1.911  0.3492  0.1754  0.0520
24430W        W39899   5.375  11.751   5.432 -0.1373 -0.1957  0.2253
24431W        W39900  16.583   7.827  15.328 -0.1088 -0.0866  0.0224
24432W        W39901   1.646  17.457  13.598  0.0089  0.2498  0.1888
24433W        W39902  16.455  14.646  16.073  0.1300 -0.4399 -0.2173
24434W        W39903  12.165   7.006   0.502 -0.1772 -0.2984  0.0306
24435W        W39904  17.210   5.181   0.477  0.0065  0.0172  0.0614
24436W        W39905  11.167  13.158   0.862 -0.2329 -0.1625  0.0424
24437W        W39906   7.146   9.324   4.231 -0.2263 -0.0725 -0.0135
24438W        W39907   2.623   7.751   4.135 -0.3153  0.0084 -0.1123
24439W        W39908  10.712   3.866  11.977 -0.0013  0.2696 -0.1526
24440W        W39909  14.085   9.166  12.307  0.0191  0.1279 -0.2372
24441W        W39910   2.722   6.585  11.392  0.0577  0.0320  0.0414
24442W        W39911  13.107  15.245   1.254 -0.0572  0.1205  0.2572
24443W        W39912  16.817   0.794  15.993 -0.0314  0.3080 -0.0793
24444W        W39913  11.824  12.029   3.795 -0.1976  0.1975 -0.0946
24445W        W39914   0.568   3.781   2.110 -0.1023  0.3077  0.1315
24446W        W39915   7.310  12.023  15.757 -0.1656  0.0292 -0.0957
24447W        W39916   6.364   3.415   2.462 -0.0982  0.2373 -0.0558
24448W        W39917  12.238  13.514   4.015  0.1757 -0.1250  0.0155
24449W        W39918  11.375  11.781  14.168  0.0106 -0.0593 -0.2241
24450W        W39919  10.751   4.419  13.541  0.1385 -0.0362  0.4488
24451W        W39920  16.122   2.442  12.196  0.2690  0.2299 -0.1280
24452W        W39921  16.895   2.646  14.120  0.3806  0.0103 -0.0485
24453W        W39922  12.489   6.848  15.947  0.0824  0.3520  0.3235
24454W        W39923   6.904  15.214   4.412 -0.0406  0.0119  0.0814
24455W        W39924  17.166  17.744   1.740 -0.0398 -0.0533  0.3449
24456W        W39925   0.492   8.319  12.884  0.0147 -0.4209  0.2574
24457W        W39926   6.995   3.852  14.692 -0.0714  0.0115 -0.0558
24458W        W39927  10.217   9.964  12.311  0.0974  0.0762  0.2845
24459W        W39928  12.306  13.666   5.455  0.1002 -0.0993 -0.0417
24460W        W39929   2.504  12.466  15.993 -0.2406 -0.2227  0.2262
24461W        W39930  16.040   8.096  10.614 -0.0352 -0.3291  0.1762
24462W        W39931  14.984   0.355  16.333  0.1193 -0.0932  0.2607
24463W        W39932  14.958  16.087  13.213  0.0891 -0.4540  0.0708
24464W        W39933   4.600  17.789   2.375 -0.1385  0.1032  0.1448
24465W        W39934   7.495   9.911   0.252  0.1210 -0.4557 -0.1335
24466W        W39935   1.771  13.475   1.633  0.0140  0.2798  0.3016
24467W        W39936   2.720  12.298   2.752  0.0521 -0.1959 -0.3506
24468W        W39937  12.708  12.166   0.218 -0.2264 -0.0743  0.0357
24469W        W39938  17.719   6.908  10.915 -0.2371 -0.2170 -0.1303
24470W        W39939  12.656  13.936   5.187  0.3427 -0.1193 -0.1151
24471W        W39940   2.887   2.604   3.424  0.1333  0.2019 -0.3605
24472W        W39941   2.361  11.153  16.286 -0.1935 -0.1781 -0.1603
24473W        W39942   1.040   3.819   4.416  0.0733  0.3303 -0.1114
24474W        W39943  12.540   5.030  11.091 -0.2870  0.2156 -0.2361
24475W        W39944   8.137   0.220   1.006  0.0047 -0.4369 -0.0117
24476W        W39945  13.746   1.296  15.248 -0.1190  0.1738  0.0615
24477W        W39946   0.412   4.179  12.021  0.0343  0.2860 -0.0368
24478W        W39947  11.894  15.997   0.411  0.0922 -0.0641 -0.1941
24479W        W39948  16.077  17.814  13.959 -0.2126 -0.2377  0.0879
24480W        W39949   9.687   9.665   5.138  0.0973  0.1984 -0.1681
24481W        W39950   5.230  13.557   0.710  0.0361  0.0359  0.0177
24482W        W39951  17.655  15.244   3.593  0.2500 -0.1138  0.0630
24483W        W39952  16.281  13.627   0.921 -0.2487 -0.0392  0.2471
24484W        W39953   7.519  14.930  15.203  0.2052  0.0019 -0.1758
24485W        W39954   6.488   9.938  15.625 -0.1400  0.0707 -0.3234
24486W        W39955   8.684   8.941  15.422  0.3142  0.1367 -0.0406
24487W        W39956   3.128   6.857   1.126 -0.1167  0.0894  0.2541
24488W        W39957  13.274   5.553  11.478 -0.0356 -0.1620 -0.2062
24489W        W39958   0.055  17.967  11.021  0.0153 -0.3013  0.0497
24490W        W39959  17.593   4.247  13.529  0.2417  0.2377  0.0079
24491W        W39960   0.254   2.638  14.626 -0.0669  0.0181  0.0806
24492W        W39961  12.415   7.465  15.746 -0.0464 -0.0997 -0.0920
24493W        W39962   6.853  11.762   1.806 -0.0010 -0.2124 -0.1105
24494W        W39963  13.241  11.842   4.212 -0.1644  0.2460 -0.3647
24495W        W39964  16.553   4.237   3.574 -0.2426 -0.0393 -0.0539
24496W        W39965  10.078   9.397   1.271 -0.1389  0.0669  0.2630
24497W        W39966   9.862  16.499   1.592  0.0009  0.2119  0.1894
24498W        W39967   4.525   0.692   4.339  0.1519 -0.1086  0.0745
24499W        W39968  16.077  17.593  13.026 -0.0004  0.0723  0.0880
24500W        W39969  10.996   4.029   0.400  0.1422 -0.1279 -0.0231
24501W        W39970  17.042  11.553   5.461 -0.0482  0.0962 -0.2930
24502W        W39971   0.563   0.421   0.480 -0.1070 -0.0350 -0.1556
24503W        W39972  15.761  12.666  15.085 -0.0962 -0.2386  0.0967
24504W        W39973  11.942   9.401  12.950 -0.0340 -0.1025 -0.3024
24505W        W39974  12.085  15.653  14.146  0.4933 -0.1133 -0.0075
24506W        W39975   4.652  11.061   0.750 -0.2415 -0.2413 -0.2266
24507W        W39976   1.534   8.931   3.760  0.0569  0.3364  0.2918
24508W        W39977  10.529  13.661  11.590 -0.0828  0.4671 -0.0374
24509W        W39978   7.056   5.544   2.236 -0.1872  0.2277 -0.1797
24510W        W39979  15.739  17.783   1.458 -0.3417 -0.0702 -0.0325
24511W        W39980   4.534  15.564   3.210  0.0843  0.2325 -0.0202
24512W        W39981   8.948  12.578  12.868 -0.0373  0.0769  0.0412
24513W        W39982   5.141  11.254  14.795  0.1278  0.1011 -0.3768
24514W        W39983   0.954   3.381   5.297  0.0019 -0.0396 -0.0335
24515W        W39984  15.965  16.999   3.555  0.1534  0.1111  0.5180
24516W        W39985   2.519  15.694  11.716  0.1346 -0.0711  0.1343
24517W        W39986   4.815   6.448  12.284  0.0490 -0.1802 -0.1284
24518W        W39987   9.136  12.126   5.583  0.0584  0.2764 -0.0899
24519W        W39988   6.706   8.070  12.768 -0.0089 -0.0466 -0.1979
24520W        W39989   3.421  17.863  14.877 -0.0438 -0.0832  0.1331
24521W        W39990   6.213  16.101   1.001 -0.3919 -0.1032  0.0257
24522W        W39991   2.961  16.184   3.957  0.1167  0.0110  0.0427
24523W        W39992   6.958   4.574  16.287  0.0473 -0.0033 -0.0203
24524W        W39993   9.170   5.815  13.957 -0.1237  0.1655  0.1150
24525W        W39994   6.608   9.724  11.082  0.0317  0.1402 -0.1593
24526W        W39995   8.512  14.448  15.333 -0.0522 -0.2094  0.3904
24527W        W39996   7.606   4.995   5.012  0.2127 -0.1024 -0.0941
24528W        W39997   9.381  13.812  13.898 -0.3650  0.2417  0.1976
24529W        W39998   4.436  13.415   2.964  0.3724 -0.2004  0.0370
24530W        W39999  12.245  12.233  15.331  0.0228  0.0230  0.0948
24531W        W40000   9.393  13.285  13.834 -0.2075 -0.3901 -0.2047
24532W        W40001   6.864   0.850  15.478 -0.0601 -0.1643 -0.0963
24533W        W40002  14.215  13.216  14.977 -0.0490 -0.1327  0.2237
24534W        W40003  13.812   5.859  13.612  0.1692 -0.0848  0.0550
24535W        W40004  13.028   1.403   4.637 -0.1947  0.0618 -0.0164
24536W        W40005   4.775   0.279  10.442  0.0083  0.2265  0.0238
24537W        W40006  16.539  15.851  12.128  0.5212 -0.3200  0.0426
24538W        W40007  17.802   9.295  13.745 -0.2661  0.4503 -0.1219
24539W        W40008   6.694   2.611   3.782  0.0954 -0.2043  0.2713
24540W        W40009  14.788   9.863   4.081 -0.0067 -0.0398  0.1126
24541W        W40010   8.782   5.389  14.315  0.1438 -0.1763  0.0727
24542W        W40011  15.440   1.088  13.904 -0.1660  0.0188 -0.0710
24543W        W40012  11.781  10.474  12.667 -0.0492 -0.1780  0.3907
24544W        W40013  12.087   5.493  16.108  0.1368 -0.3509 -0.0090
24545W        W40014   7.224  17.825  11.112  0.1380  0.1427  0.1159
24546W        W40015   3.476   3.753   5.200 -0.1528 -0.1633 -0.0891
24547W        W40016   1.525  12.303   1.093 -0.1820 -0.1059  0.0165
24548W        W40017   6.888  15.576   5.911 -0.2261  0.0453  0.0535
24549W        W40018  11.445  10.404  14.416  0.1052 -0.5004 -0.1370
24550W        W40019  14.807  15.442  12.761  0.4457 -0.0205  0.0486
24551W        W40020   6.579  12.180   1.918 -0.1414 -0.1716 -0.2257
24552W        W40021  16.951   5.885  14.123  0.1698  0.4006  0.0901
24553W        W40022  16.724   1.540  16.557  0.0811  0.0465 -0.0134
24554W        W40023  14.646  16.263  16.035 -0.2171  0.0118 -0.0873
24555W        W40024   0.126   7.238  15.707  0.4071 -0.2391  0.0931
24556W        W40025   3.816  13.654  12.586  0.1331 -0.2993 -0.1559
24557W        W40026   0.964   4.895  16.370 -0.2986  0.1322  0.2311
24558W        W40027  13.471   5.111  15.197 -0.3206 -0.0851  0.3386
24559W        W40028  10.853   5.117   1.901  0.0276  0.2601  0.2152
24560W        W40029   7.453  15.033   1.215  0.3348 -0.3160  0.1263
24561W        W40030  17.466   8.459   0.079 -0.0707 -0.2096 -0.1343
24562W        W40031   2.235  11.861  15.586 -0.0574 -0.2869  0.0707
24563W        W40032   5.169  10.015   5.754  0.0841  0.0367 -0.0421
24564W        W40033  14.040   2.235  14.226 -0.0579  0.0021 -0.1544
24565W        W40034  12.205  11.519   0.462  0.2334  0.1735 -0.0262
24566W        W40035  12.539   1.009  11.648 -0.1371  0.2532  0.1800
24567W        W40036   9.032  12.798   4.440  0.3412  0.1726 -0.3592
24568W        W40037  16.671  14.926   2.606  0.0500  0.2704  0.5519
24569W        W40038  17.414  11.496  12.374 -0.3090  0.1143  0.2034
24570W        W40039   0.879  11.533   0.176 -0.3044 -0.3158 -0.0155
24571W        W40040  10.326   8.478  13.558 -0.0748 -0.0935  0.0223
24572W        W40041   9.166  15.133  14.756  0.3134 -0.0209  0.1959
24573W        W40042   9.073   6.177   4.527 -0.1393  0.2399 -0.1555
24574W        W40043  11.448   9.851  14.953 -0.2113 -0.0693  0.2240
24575W        W40044  11.790  12.295  11.808 -0.4120  0.0648  0.0901
24576W        W40045   0.281   6.879   4.651 -0.3049 -0.1889  0.0909
24577W        W40046   4.458  17.642   0.490 -0.1813  0.1065 -0.1211
24578W        W40047   8.498  12.442  14.688 -0.2941 -0.0702  0.2895
24579W        W40048  12.624   7.244   3.663  0.0891 -0.0508 -0.3887
24580W        W40049   1.201   0.112  14.594 -0.1681 -0.2986 -0.0629
24581W        W40050  10.115  16.501   4.355  0.2349  0.0443 -0.0612
24582W        W40051   6.755   8.047  15.448  0.1121  0.0186  0.1516
24583W        W40052  10.826   4.423  11.019  0.0937  0.0821  0.3284
24584W        W40053   8.749  15.258  14.351  0.1863 -0.0998  0.3879
24585W        W40054  15.050   3.364  16.608 -0.0155 -0.0703  0.0153
24586W        W40055   5.614   1.198   3.030  0.1637  0.1232  0.0580
24587W        W40056   6.035  14.517   5.244 -0.0124  0.1637 -0.0316
24588W        W40057  14.786  10.758   2.092  0.1628  0.0096  0.0642
24589W        W40058  12.413   7.683   2.108  0.1842 -0.0053 -0.4061
24590W        W40059   0.699  14.622  16.342 -0.2814 -0.1445  0.1591
24591W        W40060   0.688  15.886  11.834 -0.1472 -0.0458 -0.0943
24592W        W40061  12.201  17.885  15.490  0.2919 -0.1317  0.0966
24593W        W40062   2.691   8.941   0.185  0.2411 -0.0059  0.3079
24594W        W40063   0.773   1.895   4.126  0.1121  0.0363  0.1911
24595W        W40064   7.250   5.133   1.409 -0.0719  0.1926  0.0237
24596W        W40065  12.906   5.449   5.945 -0.0893 -0.0713  0.2398
24597W        W40066  12.578   7.940  15.753  0.4649 -0.1338 -0.1214
24598W        W40067  14.086   7.141   5.805 -0.0362 -0.2566 -0.2590
24599W        W40068   6.406   3.469  13.813  0.2262 -0.3153 -0.2131
24600W        W40069  14.726  10.956   3.195 -0.2008 -0.0467 -0.2600
24601W        W40070  11.383   6.180  13.239  0.0633  0.0883 -0.1325
24602W        W40071  11.660  16.750   5.350  0.1754 -0.2205 -0.0114
24603W        W40072  12.915  12.394   5.553  0.3223  0.4643  0.2559
24604W        W40073   9.840  14.480  14.116 -0.1051  0.2272  0.3262
24605W        W40074   0.615  14.473  15.292 -0.1397 -0.5843  0.0207
24606W        W40075   7.308  10.141  11.842 -0.3319 -0.3625  0.0565
24607W        W40076  16.246  12.612   2.412  0.4032  0.0706 -0.3333
24608W        W40077  12.906   5.866   0.629 -0.0043  0.3740  0.1825
24609W        W40078  17.241  14.581   5.840  0.0033  0.1224  0.0290
24610W        W40079   9.340   0.187  12.358 -0.1367 -0.2772 -0.0012
24611W        W40080   9.675  15.658  15.825  0.2660 -0.2949 -0.0112
24612W        W40081  13.845   7.758  15.491  0.3452 -0.1912  0.0912
24613W        W40082  15.544  10.597  14.123 -0.1386 -0.2838 -0.1714
24614W        W40083   5.516  13.052   0.096  0.0910 -0.1109 -0.1883
24615W        W40084  13.614   4.245   4.224 -0.0092  0.1562  0.3839
24616W        W40085  16.694   2.354   1.438  0.2879  0.1605 -0.1226
24617W        W40086  10.169  11.202   2.596  0.0316 -0.0456  0.0056
24618W        W40087   5.426  14.712   0.568 -0.1504 -0.3729  0.2207
24619W        W40088   2.711   2.248   5.237  0.0650 -0.0022  0.2784
24620W        W40089  15.046  13.923   4.347 -0.0502 -0.0276 -0.0795
24621W        W40090   1.195   4.591   0.048 -0.2906 -0.2225 -0.1024
24622W        W40091  17.429  10.894  11.799 -0.0936  0.1010  0.3280
24623W        W40092   6.325  13.515  12.793 -0.1416 -0.4740  0.1048
24624W        W40093  14.767   9.600  16.075  0.0183 -0.3202 -0.0360
24625W        W40094  15.979   2.241   4.906  0.1802  0.1532  0.2217
24626W        W40095  12.544   0.475  14.270 -0.0154 -0.0455  0.2658
24627W        W40096  11.259   9.005   1.923  0.0004  0.3968  0.0142
24628W        W40097  13.824   7.598  10.563  0.0106 -0.2848  0.1335
24629W        W40098  11.741   7.758   2.799  0.3359 -0.1791  0.0241
24630W        W40099   5.482   3.302  14.753 -0.1046 -0.1728  0.0244
24631W        W40100  17.595   5.693   0.840 -0.0128 -0.4397 -0.1412
24632W        W40101   6.890  15.647   2.722 -0.0203 -0.1102  0.1714
24633W        W40102   1.791  14.013   1.923  0.0801 -0.3605  0.4113
24634W        W40103   1.655   6.973  12.147 -0.0405 -0.0579  0.3840
24635W        W40104  16.445   6.637   2.603  0.1765 -0.1827  0.1852
24636W        W40105   0.344  16.217   2.671  0.2141  0.1109 -0.0139
24637W        W40106   9.302  12.182   0.575 -0.1545  0.0678 -0.1836
24638W        W40107   9.425  12.409   3.801 -0.1070  0.1036 -0.0547
24639W        W40108  11.404   9.795   1.339 -0.1832 -0.0586 -0.1390
24640W        W40109  11.239   4.947   4.302  0.2216  0.1109 -0.1633
24641W        W40110   4.224   1.803   4.274  0.0854  0.1315  0.1228
24642W        W40111   2.966   4.982   2.989 -0.1200  0.1343 -0.0209
24643W        W40112   6.426  17.670   2.069  0.0760  0.0150 -0.3028
24644W        W40113  16.550   7.323  12.182 -0.0734 -0.0284  0.2816
24645W        W40114   3.165  12.046  14.253 -0.1142  0.1470  0.2839
24646W        W40115   5.270   1.338  11.560 -0.0596  0.0544  0.0643
24647W        W40116  17.600   9.313  11.433  0.0874  0.0580  0.1853
24648W        W40117   9.285  12.157   1.968  0.1260 -0.2946 -0.0397
24649W        W40118   1.996  16.960  14.793  0.0023 -0.1113  0.1125
24650W        W40119  15.508   3.436   0.284  0.0900  0.1523 -0.2732
24651W        W40120   7.150   1.921   2.217 -0.3217  0.1207  0.2829
24652W        W40121  11.187   1.863  16.042 -0.1841 -0.0888 -0.0116
24653W        W40122   6.609  13.958   3.214 -0.0260 -0.0800  0.0556
24654W        W40123  11.934   0.739  16.549  0.1326 -0.1802  0.3024
24655W        W40124   3.210  11.326   0.773 -0.0775  0.0578  0.0114
24656W        W40125   1.361  11.862   4.284  0.1151  0.1442 -0.0835
24657W        W40126  16.131   5.162  14.092  0.0871 -0.1395  0.0768
24658W        W40127  15.474  17.860  14.612 -0.2521  0.0615  0.2890
24659W        W40128   4.544  10.305  15.609  0.0631  0.0766 -0.0334
24660W        W40129   3.413  13.513   0.217 -0.0108  0.2567 -0.1147
24661W        W40130  16.383  13.941  11.870  0.0292 -0.1767  0.0213
24662W        W40131   5.080   0.951  14.376  0.2045 -0.1776  0.1491
24663W        W40132  17.723   8.180   4.674 -0.1478  0.0965 -0.1962
24664W        W40133   0.579  14.114   0.299  0.0213  0.1357 -0.0939
24665W        W40134   6.377  12.671   5.587 -0.1983 -0.1923 -0.1945
24666W        W40135   8.450  11.201   0.984 -0.0252  0.0456 -0.0253
24667W        W40136  13.168  16.784   5.842 -0.2303 -0.0252 -0.2442
24668W        W40137   3.829   9.121  11.893 -0.2501  0.0859 -0.2409
24669W        W40138   3.134   3.002   3.659  0.1231 -0.4218  0.6578
24670W        W40139  15.764  14.445   0.384 -0.0914 -0.0492 -0.1543
24671W        W40140  11.763  10.485   2.246 -0.2973  0.0789 -0.2278
24672W        W40141  10.561  14.743   4.844  0.1067 -0.0933 -0.1334
24673W        W40142   3.916  15.950  12.982 -0.0938  0.2886  0.1641
24674W        W40143  11.251   4.588  12.278 -0.0909  0.0979 -0.0455
24675W        W40144  15.085  11.327   2.978 -0.0069 -0.4485 -0.3179
24676W        W40145  12.098  12.853  12.996 -0.2359  0.1820  0.0275
24677W        W40146  15.682  17.703   5.404 -0.1687 -0.0156  0.0042
24678W        W40147   9.354   1.668  11.861 -0.0166  0.0657  0.1204
24679W        W40148   7.984  12.246  12.792  0.0209 -0.3579 -0.0748
24680W        W40149  13.641  15.523   4.259 -0.0220  0.0404 -0.3297
24681W        W40150  15.962   0.857   2.080  0.3978  0.1080  0.0477
24682W        W40151   8.560   9.818   0.562 -0.0981 -0.0372  0.1691
24683W        W40152   5.759   4.520  13.548  0.3226 -0.0658 -0.0220
24684W        W40153  13.399  17.719   0.599 -0.1045  0.1802  0.0900
24685W        W40154  15.747  14.338   1.415  0.2261 -0.0345 -0.3421
24686W        W40155   6.201  17.503   3.904  0.2672 -0.1442 -0.1159
24687W        W40156   3.111  14.341  14.031  0.0981 -0.0048 -0.1824
24688W        W40157   6.949   5.263   0.098 -0.1863  0.0936 -0.0063
24689W        W40158   6.460   1.824   2.583 -0.0532 -0.1161 -0.0013
24690W        W40159  13.891   2.238  14.772 -0.1197 -0.3531  0.0521
24691W        W40160   5.504  12.243  14.783  0.2118 -0.0883 -0.0218
24692W        W40161   4.836   2.435   4.106  0.3139 -0.2223 -0.0596
24693W        W40162  16.718  13.902   2.329  0.2437  0.3019  0.0129
24694W        W40163  11.364   9.002   2.863  0.0029  0.0869  0.0265
24695W        W40164   0.514  15.639   5.213  0.2261  0.1274  0.0697
24696W        W40165   2.389   6.064  11.631  0.0290  0.0117 -0.0163
24697W        W40166  17.654  14.018   5.745 -0.0443  0.0767 -0.0819
24698W        W40167   6.868   6.392  13.917  0.0231  0.0036  0.0435
24699W        W40168   3.053  17.042   1.451  0.0513  0.0690  0.0774
24700W        W40169  16.829   7.390  14.326  0.3771  0.2379  0.2576
24701W        W40170  16.401   1.888   0.221  0.1059 -0.2060  0.1396
24702W        W40171  16.911   7.996  11.552 -0.2267 -0.1654 -0.0715
24703W        W40172   4.870  17.114   3.330 -0.0582  0.1278  0.1768
24704W        W40173  11.082   0.255   4.342 -0.2032 -0.1117  0.0037
24705W        W40174  17.720   0.260   3.007 -0.4604  0.0978  0.1199
24706W        W40175  12.629   8.760   1.485  0.2013  0.3678  0.0473
24707W        W40176  13.637  13.235  13.265 -0.5813 -0.0954  0.1724
24708W        W40177   8.557   3.355   0.226  0.1908 -0.0589 -0.1065
24709W        W40178   8.131  14.899  11.616  0.1056 -0.0285  0.0991
24710W        W40179  15.212   6.320  13.036  0.0688 -0.0891  0.0684
24711W        W40180  16.027   7.287   3.351  0.0832  0.1313 -0.0447
24712W        W40181   3.402  11.286  15.636 -0.0026 -0.0120 -0.0589
24713W        W40182  10.378   7.256   2.688  0.1598  0.0161  0.0379
24714W        W40183  15.190   2.611   1.880  0.1750  0.0175 -0.3450
24715W        W40184   9.594   3.469  12.059  0.0730 -0.0090 -0.0224
24716W        W40185  11.018   7.615   2.285 -0.1421  0.1074  0.0088
24717W        W40186   2.766  16.123   1.522 -0.0486 -0.1493 -0.0218
24718W        W40187  14.252   9.161   4.596  0.0941  0.1826  0.1664
24719W        W40188   7.783   6.015  13.928 -0.0321  0.2970  0.0184
24720W        W40189   8.915   8.148  14.547 -0.2321  0.1106  0.2098
24721W        W40190   7.247   8.265  13.540 -0.3463  0.1823  0.3771
24722W        W40191  14.175  14.666  16.133 -0.1651  0.2354 -0.0047
24723W        W40192  12.407   1.914  12.098 -0.0029  0.0737  0.2519
24724W        W40193  12.754  13.087   1.660  0.1505  0.0010 -0.1505
24725W        W40194   5.351   3.928   1.865 -0.1302 -0.2977  0.1602
24726W        W40195   6.134   2.458  12.711  0.2365  0.1126 -0.1274
24727W        W40196   9.668  12.012   0.851  0.0339 -0.0232 -0.0811
24728W        W40197   3.648   7.584  12.762 -0.0181 -0.3189  0.1524
24729W        W40198   2.011   9.645  16.613  0.1313  0.2060  0.0082
24730W        W40199  14.351   1.601   3.180  0.3548 -0.1957 -0.2876
24731W        W40200   7.393   5.186   1.929  0.0212 -0.0839 -0.0796
24732W        W40201  11.765  16.647   6.070  0.2001  0.0291 -0.0510
24733W        W40202   4.424  12.537  14.880  0.1679 -0.1476  0.1292
24734W        W40203   1.525  16.142  13.013 -0.2165 -0.1285 -0.4760
24735W        W40204  17.707  14.712   4.553 -0.1035 -0.6425  0.2362
24736W        W40205   5.307   1.633   1.199 -0.3969 -0.1886 -0.0994
24737W        W40206  11.544  13.814   5.633  0.1154  0.4171  0.0768
24738W        W40207  16.067   8.111   5.167 -0.0992  0.0842  0.2581
24739W        W40208  10.303   4.180   3.864  0.0670  0.2696  0.2148
24740W        W40209  13.813   7.662   0.483 -0.0039  0.1852  0.0307
24741W        W40210   9.577   4.949  16.104  0.0675 -0.1751  0.0873
24742W        W40211   8.799   6.843  14.492 -0.1821  0.1816  0.1643
24743W        W40212   9.001  12.429  11.401  0.1171 -0.1195  0.2277
24744W        W40213   8.823   0.429  14.724 -0.1491  0.1733  0.1837
24745W        W40214   1.847   8.194   0.877  0.2161 -0.2563 -0.1069
24746W        W40215   9.124  16.467  15.658 -0.3264  0.1752 -0.2667
24747W        W40216   5.600  13.987  14.116 -0.0919  0.1263 -0.0568
24748W        W40217   2.577  12.858  15.226  0.2322  0.0846  0.1907
24749W        W40218  14.552  11.369  13.153  0.2300 -0.0279 -0.2053
24750W        W40219   1.988   1.198  16.256 -0.1243  0.1617  0.0356
24751W        W40220   5.803  17.735   5.847 -0.0138  0.1299 -0.1286
24752W        W40221   0.867   5.313   1.618 -0.0792  0.0846 -0.2239
24753W        W40222   2.564   1.223   3.712 -0.2044  0.0233 -0.0088
24754W        W40223   5.229   6.402   1.197 -0.2986 -0.2023 -0.2712
24755W        W40224  14.160  15.010  15.378  0.1747  0.0616 -0.4492
24756W        W40225   4.211   4.346   5.677  0.0988 -0.1553 -0.0514
24757W        W40226   0.006  12.884  15.379 -0.2819  0.4360 -0.0896
24758W        W40227  17.187   8.189   1.408  0.0039 -0.0372 -0.1970
24759W        W40228   3.391   6.577   3.942  0.0036  0.0420 -0.1613
24760W        W40229  11.547   4.322  13.417  0.0711  0.0834  0.1884
24761W        W40230   0.011  12.875  13.573 -0.2070 -0.2572  0.1470
24762W        W40231   3.552   7.916   3.257 -0.2043  0.1214  0.0334
24763W        W40232  13.984  12.910  13.061  0.2163 -0.0024  0.1705
24764W        W40233   3.084  17.583   3.918 -0.1504  0.1653 -0.1212
24765W        W40234  17.813  12.382  15.294 -0.3078  0.3170 -0.1107
24766W        W40235  10.895   8.996  15.508 -0.1176 -0.1799 -0.0699
24767W        W40236  12.631   1.642  13.966 -0.0036  0.1934 -0.0005
24768W        W40237   9.256  10.705   2.559  0.1700  0.0687  0.0190
24769W        W40238   7.536   5.145   4.454 -0.1598  0.1050 -0.0961
24770W        W40239   3.067   2.072   3.772  0.2246  0.2486  0.0974
24771W        W40240  15.552  13.117   0.443  0.3699 -0.1278 -0.0041
24772W        W40241  17.706  16.630   2.050 -0.1246  0.0712  0.3044
24773W        W40242   2.329  14.594  13.806 -0.1402 -0.1796 -0.2728
24774W        W40243   9.257   2.442  11.960  0.0670  0.1966 -0.0332
24775W        W40244   1.049   6.953  11.115  0.2043 -0.0360  0.0609
24776W        W40245  17.780   0.591  13.061 -0.0978 -0.0416  0.0208
24777W        W40246   5.919   7.275  16.044  0.1825  0.0126  0.2109
24778W        W40247  14.434  11.092  15.840  0.0094  0.0818 -0.0487
24779W        W40248  13.728  16.515  15.965  0.0764  0.1101  0.1437
24780W        W40249   1.215   5.918  14.272 -0.0391  0.0320  0.1622
24781W        W40250  15.948  15.541  14.159 -0.0700 -0.4749  0.0650
24782W        W40251  15.320   6.111   5.429  0.1120  0.1329  0.2358
24783W        W40252   2.099   6.179  13.107 -0.0213 -0.1636 -0.0401
24784W        W40253   3.958  13.129   4.502 -0.0280  0.0650  0.2693
24785W        W40254  12.794   8.387   2.488  0.2048  0.0713 -0.0847
24786W        W40255   4.100   0.049   5.316 -0.1888  0.3684  0.3068
24787W        W40256  12.733   8.028  11.923 -0.3037 -0.2349 -0.0934
24788W        W40257   9.863  12.725  16.480 -0.1619 -0.0379 -0.0664
24789W        W40258  13.233   3.917  15.766  0.2818  0.0126  0.1886
24790W        W40259   4.596   3.920   4.925  0.0423 -0.0624  0.2228
24791W        W40260   3.231   5.537   0.591  0.1429  0.0244  0.0842
24792W        W40261  16.931  14.136   4.414  0.1499 -0.1131 -0.3092
24793W        W40262   5.568   8.582   1.592  0.1417  0.3449  0.0051
24794W        W40263   6.792   3.930   3.701 -0.0726 -0.0541  0.1793
24795W        W40264   3.485  15.295   4.400  0.0361 -0.0010  0.2863
24796W        W40265   4.241   7.924   5.199 -0.0222 -0.0087  0.0713
24797W        W40266  13.453   9.879   4.615 -0.1524 -0.0896  0.0312
24798W        W40267   5.017  16.952   3.997  0.0737 -0.2773 -0.1698
24799W        W40268  17.167   4.465  13.645 -0.1509 -0.1747  0.0424
24800W        W40269  12.316  13.673  12.823  0.0842 -0.2884  0.0767
24801W        W40270  11.666   7.819   3.845  0.0787  0.1169 -0.0121
24802W        W40271  17.959  16.269   1.246 -0.0328  0.2175 -0.1228
24803W        W40272  17.013  15.044  14.236  0.0454 -0.2795 -0.2288
24804W        W40273   7.029   6.335  12.462 -0.2038 -0.0533 -0.2316
24805W        W40274   9.843  14.317  13.590  0.2264 -0.0780  0.0257
24806W        W40275  10.647   3.718   0.236  0.0273  0.3065 -0.1456
24807W        W40276  10.594  15.037  12.598 -0.1832 -0.0574  0.3185
24808W        W40277  16.894   9.194   2.945  0.0577  0.0038 -0.3350
24809W        W40278  17.399   2.587   4.127 -0.4715  0.0889 -0.3054
24810W        W40279  13.502  13.038   3.630  0.0120 -0.1279  0.2565
24811W        W40280   1.073   4.590   1.429  0.1121  0.1125 -0.0952
24812W        W40281  11.394   3.833  11.318 -0.0992  0.1419  0.3188
24813W        W40282   6.745   5.025  13.586 -0.1190  0.1609  0.3817
24814W        W40283  17.904   0.825   2.050 -0.1734  0.3948  0.0304
24815W        W40284   7.693   1.266   0.304  0.0895 -0.0795  0.3617
24816W        W40285   2.054  15.303  14.027  0.0559  0.5884  0.1682
24817W        W40286   3.099  13.137   2.749 -0.1241 -0.0412  0.0031
24818W        W40287   1.867   0.063  13.778 -0.1317 -0.1352 -0.3061
24819W        W40288  17.654   0.125  11.868  0.0474 -0.3329  0.0028
24820W        W40289   3.017  11.574  13.656  0.1685  0.1025 -0.0119
24821W        W40290   0.341   1.895   2.141  0.0424  0.1013  0.1072
24822W        W40291  12.051  17.003  12.995 -0.1479 -0.2225  0.3028
24823W        W40292  17.351   8.759  14.772 -0.1208  0.1930 -0.0353
24824W        W40293  13.836   1.173   4.765 -0.0005  0.0099 -0.0233
24825W        W40294  16.144   5.154   0.658 -0.0052 -0.2655 -0.0033
24826W        W40295   0.160  12.159  14.893  0.1548  0.0638 -0.1718
24827W        W40296   6.541   8.340   9.932 -0.1623  0.0132 -0.1729
24828W        W40297  17.129   1.868   5.592 -0.1835  0.0904 -0.0089
24829W        W40298   9.089   0.029   0.864 -0.1001  0.0085  0.0450
24830W        W40299   9.181   9.441  12.821 -0.0241  0.0020 -0.0769
24831W        W40300  15.438   5.835  11.555 -0.1275  0.2270  0.0589
24832W        W40301   8.947   4.836  13.327 -0.5117  0.0816 -0.0155
24833W        W40302   7.533  16.377  16.445  0.1606 -0.1234  0.2210
24834W        W40303  12.316  14.394   0.754  0.0547 -0.0598 -0.1202
24835W        W40304   4.089  11.157   0.028  0.1618 -0.0867 -0.0376
24836W        W40305  13.236   3.008   5.614 -0.2853  0.3231 -0.0233
24837W        W40306  13.329   4.567   2.486  0.1857 -0.0297  0.1035
24838W        W40307  13.004   9.599  11.609  0.0300  0.0439  0.3284
24839W        W40308  10.036   2.109  11.287 -0.0659  0.4133  0.1335
24840W        W40309   5.203   9.924   1.466 -0.2036  0.1177 -0.1625
24841W        W40310   0.232  15.586   6.179 -0.0560  0.1044 -0.1499
24842W        W40311  13.445   5.788   5.154 -0.3405  0.2667  0.2450
24843W        W40312   3.053   5.472  13.378 -0.2303  0.1807 -0.0565
24844W        W40313   4.394   0.161  12.067 -0.2745  0.1140  0.0418
24845W        W40314   6.269  14.102   5.485 -0.0010 -0.2921  0.2632
24846W        W40315  11.048   9.594  12.999 -0.3531 -0.1377  0.0400
24847W        W40316  10.143  17.831  15.195  0.1733  0.1139  0.1437
24848W        W40317   8.649   3.495  13.060 -0.3396 -0.0747 -0.1581
24849W        W40318   9.718  12.443  10.450  0.2890 -0.2319 -0.0069
24850W        W40319  17.117   5.049   0.923  0.0500 -0.1177 -0.1302
24851W        W40320  11.826  17.996   1.163  0.2194  0.3691  0.0485
24852W        W40321   0.516   3.087  13.635  0.3358 -0.1168  0.3955
24853W        W40322  10.834  14.036  11.713 -0.1411  0.3196  0.1464
24854W        W40323   0.629   4.920   2.855 -0.1281 -0.2043 -0.1845
24855W        W40324  10.162  13.190  14.320  0.2692  0.0221  0.2727
24856W        W40325  16.182   2.419   1.761  0.0143 -0.3537  0.1224
24857W        W40326   2.806   6.717  12.903 -0.0805  0.0146 -0.1926
24858W        W40327   1.227   3.374  14.970  0.1732 -0.0161  0.1302
24859W        W40328   9.437   6.788   1.876  0.0001  0.1008  0.0574
24860W        W40329   9.247  16.699  14.082 -0.2723 -0.2472 -0.0941
24861W        W40330  17.528  13.712   2.888  0.0058  0.1558  0.0353
24862W        W40331  16.897  11.687  11.738 -0.1553 -0.3239 -0.3152
24863W        W40332   5.347   9.544  16.354 -0.0349  0.1793 -0.0964
24864W        W40333  12.590   3.841   2.540  0.1437 -0.2858  0.0132
24865W        W40334   0.069   7.967   3.745  0.1929  0.0519 -0.0913
24866W        W40335   8.138  15.726  16.304 -0.0609 -0.0248  0.3095
24867W        W40336   9.164   6.938  15.822  0.0384  0.1782 -0.0235
24868W        W40337  10.427   2.916  16.412 -0.1093  0.1774  0.1847
24869W        W40338  16.227   9.525   4.439  0.1264  0.2188 -0.2856
24870W        W40339   8.126   0.787  14.208  0.1784 -0.0319  0.0653
24871W        W40340  10.805  13.157   2.413 -0.1997  0.2953 -0.1573
24872W        W40341   2.091  15.202  12.982 -0.2186  0.1567 -0.0599
24873W        W40342   6.247  16.188   5.140  0.2098 -0.0056 -0.1719
24874W        W40343   4.883  10.839  14.725 -0.0805 -0.0507 -0.1667
24875W        W40344   5.683  10.597  13.274  0.0361 -0.3218 -0.1093
24876W        W40345  10.112  13.752   1.416  0.1325 -0.3831  0.3217
24877W        W40346  12.290   0.229  13.926 -0.2174 -0.0263  0.1406
24878W        W40347   2.816   9.002  14.572  0.2356  0.0792 -0.3604
24879W        W40348   4.092   8.271  12.777 -0.3617 -0.2546 -0.1421
24880W        W40349   8.975  13.774  13.489 -0.3680  0.1915 -0.2537
24881W        W40350   2.148   8.611   0.881 -0.0126 -0.2114  0.1754
24882W        W40351  14.253   0.695   4.931  0.4098 -0.1249  0.0430
24883W        W40352  14.932   5.221   1.103 -0.1747  0.3092  0.0800
24884W        W40353  15.925  11.345   4.132 -0.2383 -0.4665 -0.0253
24885W        W40354   1.364  14.751   4.910 -0.2699 -0.2388  0.1697
24886W        W40355  16.033  16.994  16.593 -0.2558 -0.1068 -0.0931
24887W        W40356   7.010  10.494  11.434  0.0390  0.1899 -0.1777
24888W        W40357   0.110   9.013   2.601  0.2764 -0.1491  0.0504
24889W        W40358   0.155   5.056  16.127  0.2282  0.1091 -0.0405
24890W        W40359   6.629  17.893   1.291 -0.1911 -0.1735  0.1961
24891W        W40360   0.450   6.770  15.619 -0.0910  0.3122 -0.0420
24892W        W40361   4.536  16.477   1.767  0.1334 -0.1749  0.1085
24893W        W40362  12.771  10.170   3.151  0.2808 -0.0789 -0.1855
24894W        W40363  16.005   9.425   0.974  0.1052 -0.0177 -0.3477
24895W        W40364  16.585  15.122   6.394 -0.0347  0.0454  0.0117
24896W        W40365   1.782   3.748  12.626 -0.2303  0.1925  0.2878
24897W        W40366   0.269  15.427   3.021  0.1423 -0.3423 -0.2226
24898W        W40367  12.044   1.068  16.207 -0.0982 -0.2797 -0.2697
24899W        W40368  11.408   9.419   1.717  0.1693  0.1727 -0.0622
24900W        W40369   0.321   6.397   4.859 -0.1429 -0.1236  0.0571
24901W        W40370   6.539   7.867   2.272 -0.2834  0.2704  0.0470
24902W        W40371   0.350   3.310  15.522 -0.1699  0.1805 -0.2372
24903W        W40372   1.338  14.611  13.592  0.3503  0.1749 -0.0048
24904W        W40373  10.609   8.780   4.512 -0.2911 -0.0913 -0.1908
24905W        W40374  15.647   0.255  12.376  0.3121 -0.1589 -0.0362
24906W        W40375   7.516  14.993  14.697  0.1103  0.0927  0.1741
24907W        W40376  10.599  15.742   2.121  0.1794 -0.1075  0.2270
24908W        W40377   8.579  16.078  12.577 -0.0691 -0.2265  0.1029
24909W        W40378   5.747   9.781   0.359 -0.0230 -0.0104  0.2347
24910W        W40379  12.237   8.596   1.131 -0.0415 -0.1729  0.0479
24911W        W40380   6.682  13.038  14.161  0.0034 -0.0035  0.0755
24912W        W40381   6.842   2.702  14.356 -0.2283  0.4146 -0.0083
24913W        W40382   0.447  10.423   2.335 -0.0678  0.1572 -0.2003
24914W        W40383   9.983  13.774  11.331  0.1444 -0.0178  0.0382
24915W        W40384   0.563   6.504   1.709 -0.0446 -0.0467  0.0527
24916W        W40385   9.524   2.090  15.169  0.0756 -0.1376  0.0592
24917W        W40386   0.312   8.320  13.369  0.2166 -0.0908  0.0966
24918W        W40387   8.815  17.420   1.982  0.1032 -0.3411 -0.3058
24919W        W40388   4.635  16.137  11.819  0.2223  0.2899 -0.0310
24920W        W40389  12.795   0.707  11.920 -0.1873  0.2309 -0.3510
24921W        W40390   0.032   4.496  12.286 -0.0122 -0.2377 -0.1212
24922W        W40391  11.609   4.700   4.700  0.0297 -0.1806  0.1300
24923W        W40392  14.985  17.312  15.934  0.0441 -0.1636 -0.0039
24924W        W40393  16.064   9.940   4.621  0.0477  0.0377 -0.0221
24925W        W40394  16.689  16.532   3.869  0.1005  0.1106  0.1683
24926W        W40395  10.350  11.114  11.868  0.1917  0.0144 -0.0846
24927W        W40396   1.051   6.379  14.614 -0.1754 -0.0344 -0.1270
24928W        W40397   5.302   6.032   9.915  0.1204 -0.0979 -0.2109
24929W        W40398   7.309   5.857   2.484  0.0337  0.1529 -0.0220
24930W        W40399   8.013   6.005  16.552  0.1165  0.2056  0.0002
24931W        W40400  12.634   4.451   1.949  0.0085 -0.2699  0.1353
24932W        W40401   7.274   6.799   1.453 -0.0142  0.1044 -0.1835
24933W        W40402  12.221  10.765   0.991 -0.1638  0.1136  0.2767
24934W        W40403   8.871   2.897   0.506 -0.1364  0.2372  0.0998
24935W        W40404  13.663  10.267  13.608 -0.3279 -0.2380 -0.1596
24936W        W40405   7.156  13.255   2.472 -0.0182  0.3548 -0.2542
24937W        W40406  16.140  15.980   2.784  0.0259 -0.1278  0.2408
24938W        W40407  16.815   5.829   1.076 -0.1705 -0.0316  0.1069
24939W        W40408  17.115   4.975  14.283  0.3603  0.0487  0.2129
24940W        W40409  15.951   4.823  14.372  0.0427  0.0475 -0.1858
24941W        W40410  12.424  10.374   0.605  0.1898  0.1745 -0.0966
24942W        W40411  11.047   4.502  10.082 -0.0165 -0.1635 -0.4107
24943W        W40412   8.540   7.242   3.026  0.3576  0.0750 -0.0454
24944W        W40413   3.220   9.733   1.111 -0.1559  0.2129 -0.0371
24945W        W40414  17.237  11.735  16.515  0.2192 -0.1436  0.2135
24946W        W40415   1.829   8.931   4.789  0.3550 -0.2656 -0.0497
24947W        W40416  13.393   1.662  12.633 -0.4494 -0.1743  0.0788
24948W        W40417  11.255  14.314  13.514  0.0367  0.2373  0.2672
24949W        W40418  15.963   2.609   2.702  0.0909  0.0689  0.2471
24950W        W40419  13.513  10.761  10.637  0.1181 -0.0189 -0.1024
24951W        W40420  16.030  10.602  15.476  0.3640  0.1342 -0.1281
24952W        W40421   0.862  17.448  16.107  0.3039  0.0505  0.1340
24953W        W40422   9.981  12.501  15.450 -0.1890 -0.1707 -0.2541
24954W        W40423   3.221   4.778   2.534 -0.1252  0.0197 -0.0701
24955W        W40424   9.349   0.797  13.111  0.0202  0.1604 -0.0909
24956W        W40425   3.591   1.061  11.976  0.0171  0.1104 -0.2701
24957W        W40426  10.945  12.477  12.294 -0.0096  0.0160 -0.0768
24958W        W40427  13.705   9.886   0.894  0.0848  0.1436 -0.0763
24959W        W40428   3.850  11.152  12.635 -0.0197 -0.0320  0.0534
24960W        W40429  10.213   1.615   3.601 -0.1197  0.0037 -0.0747
24961W        W40430  14.356  16.124   3.247  0.0958  0.2561 -0.0891
24962W        W40431  15.961   3.055  14.541 -0.0342  0.1147  0.0209
24963W        W40432  16.622   7.023  12.995  0.0785  0.2442 -0.2357
24964W        W40433   3.382   7.287   0.128 -0.2894  0.2890  0.0052
24965W        W40434   1.925  15.539   1.176 -0.3169 -0.0703 -0.0259
24966W        W40435   5.111  14.441  11.510 -0.1369  0.0624  0.0936
24967W        W40436   0.974  15.368   1.773 -0.1803  0.0717  0.3459
24968W        W40437   4.898   7.812  13.364  0.1845 -0.2217  0.2010
24969W        W40438   0.089  10.725  12.339  0.1377  0.2316  0.0887
24970W        W40439  15.765  11.752   5.108 -0.1059 -0.0445  0.0584
24971W        W40440   3.360  10.224   2.064 -0.0091  0.2417 -0.0306
24972W        W40441   8.107  15.873  13.397 -0.1095  0.0845 -0.1653
24973W        W40442  12.511   4.407   0.111  0.1034  0.0767  0.0720
24974W        W40443   6.333  10.105  16.172  0.1437  0.0757 -0.1347
24975W        W40444   8.700   0.180   3.280  0.0654 -0.1834 -0.2107
24976W        W40445   2.319   7.279  11.702 -0.1230  0.0571 -0.0412
24977W        W40446   4.141  11.491   2.933 -0.0413  0.0872  0.1147
24978W        W40447   2.775   0.769   3.962  0.2001  0.1946 -0.3955
24979W        W40448   4.673   7.878   1.369 -0.1455  0.0461  0.0229
24980W        W40449   8.574  13.199  13.883 -0.3248  0.1988  0.1519
24981W        W40450   5.262  16.257   3.716 -0.1044 -0.0691  0.0400
24982W        W40451  11.651   4.854  11.939 -0.2965  0.2399  0.1192
24983W        W40452  10.941   4.887   4.789 -0.0790 -0.3156 -0.1752
24984W        W40453   7.205   5.711  15.591  0.0269  0.3225  0.2966
24985W        W40454   3.440  15.386   3.535  0.0868 -0.1528 -0.2252
24986W        W40455  12.662   6.423   3.591  0.0687 -0.1160 -0.0870
24987W        W40456   0.082  14.228   5.730 -0.1066 -0.1495  0.1520
24988W        W40457  17.613  14.761  12.003  0.2469 -0.2798  0.3345
24989W        W40458   7.464  14.480  12.200 -0.0754 -0.1927  0.1775
24990W        W40459  13.548   6.783   2.520  0.0074 -0.1958 -0.0560
24991W        W40460   7.825   9.475  15.522  0.0311 -0.2710 -0.1224
24992W        W40461   4.139   5.229   1.258 -0.0931 -0.1300 -0.4316
24993W        W40462  16.274  11.590   1.968  0.0352 -0.1268  0.0322
24994W        W40463   4.693   3.110   2.903 -0.0047 -0.2360  0.2235
24995W        W40464   7.438   4.705   3.665 -0.0306  0.0403  0.0107
24996W        W40465   2.215  17.666   5.321  0.1326 -0.1213 -0.0610
24997W        W40466   8.345  15.187   2.723 -0.2151 -0.3814 -0.0704
24998W        W40467   2.604  16.715   5.035  0.0938 -0.2033  0.1643
24999W        W40468   9.823   0.214   0.001  0.3182 -0.0767  0.0154
25000W        W40469   6.417  17.501   5.190 -0.2329 -0.1450 -0.0106
25001W        W40470  15.752   8.151  13.612  0.1729 -0.0254 -0.3005
25002W        W40471   5.259  12.079  12.354  0.2209  0.4207 -0.2050
25003W        W40472   0.371  13.167   3.467  0.0989 -0.2047 -0.0234
25004W        W40473  10.088  14.602   5.503  0.0812 -0.1584  0.0263
25005W        W40474   0.028   0.785  13.499  0.0935  0.0081  0.2484
25006W        W40475  12.268  12.463   2.952 -0.3082 -0.0207  0.2286
25007W        W40476  12.857  10.322   0.444 -0.2536  0.1203 -0.1040
25008W        W40477   6.530  17.155  14.158 -0.1400 -0.0689 -0.2474
25009W        W40478   3.411  14.926   1.311 -0.0443 -0.0106  0.1184
25010W        W40479  15.266   8.992  10.876 -0.1588 -0.0818  0.0206
25011W        W40480  17.773   0.337   3.584  0.0241  0.1136  0.2782
25012W        W40481  13.576   9.484   3.406  0.1674  0.0779  0.1049
25013W        W40482   7.618   2.611  14.266  0.1579 -0.1503  0.0169
25014W        W40483   5.226   1.410  15.955  0.1187  0.0382 -0.0398
25015W        W40484  13.406  13.520   6.330  0.0662 -0.0701 -0.2441
25016W        W40485   1.522  16.774  11.856  0.0706 -0.0837 -0.1283
25017W        W40486  17.016  15.815  12.302 -0.2168 -0.0440 -0.2519
25018W        W40487  11.212   4.675  13.585 -0.0274  0.1710  0.1527
25019W        W40488   9.388  16.826   0.701  0.0338 -0.2706 -0.2585
25020W        W40489  11.252   7.942   4.262 -0.1479  0.1323  0.3093
25021W        W40490   6.599   0.160   6.021  0.1423  0.1692  0.2207
25022W        W40491   7.791   0.438  14.313  0.0756 -0.0351 -0.4487
25023W        W40492   7.199   5.607  13.184  0.2807  0.2484 -0.3467
25024W        W40493   4.084  16.761   3.728 -0.2287  0.1830  0.1315
25025W        W40494  13.553   4.571  14.611  0.1766  0.0755  0.0247
25026W        W40495  17.364  16.469   2.988 -0.2199  0.0252  0.1333
25027W        W40496   1.765   8.452  13.386 -0.1243 -0.3613 -0.1629
25028W        W40497  11.162  10.190   2.215 -0.1745 -0.0477  0.2167
25029W        W40498   1.137   8.161   3.544  0.2902  0.1074 -0.0382
25030W        W40499  10.614  13.247  12.771  0.1163 -0.2584  0.1844
25031W        W40500   1.668  17.851  14.640 -0.2550  0.0557 -0.1326
25032W        W40501  15.716   6.780  14.891  0.2093 -0.1051 -0.2429
25033W        W40502   0.705  17.965  16.292 -0.2389  0.1765 -0.0884
25034W        W40503   7.743  15.285  14.349 -0.0459 -0.2084  0.1866
25035W        W40504  16.577   8.705  16.531  0.0630  0.0722  0.1029
25036W        W40505   8.076   6.990  13.217  0.0933 -0.1819  0.2594
25037W        W40506  15.448   6.617   1.656  0.3094  0.1611  0.0786
25038W        W40507   8.453   5.387  16.503 -0.0909  0.1728  0.0493
25039W        W40508   3.563   9.168   5.230  0.0521 -0.1009 -0.0031
25040W        W40509  15.774   5.999  15.322  0.0205 -0.0984 -0.0941
25041W        W40510  14.346   9.156  13.742 -0.0913  0.0734 -0.3236
25042W        W40511  15.972   7.483  12.458 -0.0758 -0.0165 -0.2146
25043W        W40512  12.581   0.761  12.488  0.0492  0.0689  0.1118
25044W        W40513  13.570  10.345  11.679  0.1204 -0.1088  0.1624
25045W        W40514  11.285  13.844  11.798 -0.0969  0.2402  0.3189
25046W        W40515  17.897   3.478   0.498  0.0632 -0.0324 -0.1295
25047W        W40516  15.864  15.683   4.768  0.0327 -0.2847  0.2852
25048W        W40517  10.726   1.355   6.434  0.2003  0.0445  0.1800
25049W        W40518   5.707   2.072  15.513 -0.0462 -0.2372 -0.0642
25050W        W40519  11.407   6.145  14.543  0.1082 -0.0430  0.0868
25051W        W40520   7.576   2.815  16.592  0.1365 -0.1587 -0.0830
25052W        W40521  17.909   8.223  15.661  0.4497 -0.3434  0.0382
25053W        W40522  12.715  17.133   1.298 -0.2013  0.1197  0.0211
25054W        W40523   0.253  14.014  12.012 -0.0258  0.1648  0.0968
25055W        W40524   0.074   0.085  12.149 -0.1042  0.1872  0.1403
25056W        W40525  13.022   3.132   0.809  0.2569  0.1169 -0.1483
25057W        W40526   0.157   0.177  13.120 -0.3128 -0.0454  0.0387
25058W        W40527   0.932  16.161   4.477 -0.0058  0.1319  0.0914
25059W        W40528  11.900   0.768   3.642 -0.2389  0.4181  0.0068
25060W        W40529  15.699   8.408  14.091 -0.0813  0.0972 -0.1145
25061W        W40530   8.968   5.553   3.697 -0.1844  0.1346 -0.2149
25062W        W40531   4.938   4.779  12.189 -0.3111 -0.1075  0.0063
25063W        W40532   6.052   1.780   0.629  0.0937 -0.2321  0.2148
25064W        W40533  15.655   5.395   1.510  0.1413  0.0082 -0.3027
25065W        W40534   1.075   8.734  15.600 -0.1795  0.1427  0.1045
25066W        W40535   9.001  16.518   2.778 -0.1034  0.1397 -0.3381
25067W        W40536   0.784   8.412  11.201  0.1210 -0.2489 -0.0444
25068W        W40537  12.376  17.405   3.498 -0.4315 -0.2845 -0.3721
25069W        W40538   9.779  15.906  12.924 -0.3549 -0.0117 -0.4755
25070W        W40539   5.102  13.813  14.071  0.0600 -0.4561 -0.7367
25071W        W40540   6.540  10.357   1.778 -0.0005 -0.3661 -0.0755
25072W        W40541  14.774  14.712  11.681 -0.0611 -0.2181  0.3276
25073W        W40542   5.969   4.615  15.160  0.3548 -0.3303  0.0631
25074W        W40543   0.910   5.090  12.895 -0.2444  0.1315 -0.1525
25075W        W40544   4.880  16.383  15.606 -0.2083  0.3146  0.2980
25076W        W40545  11.073   6.866  12.129 -0.1327 -0.1127  0.0244
25077W        W40546   3.677   1.723  12.766 -0.1085 -0.1804  0.0878
25078W        W40547   0.541  15.415   1.557  0.0567 -0.3776  0.3523
25079W        W40548  16.219   9.599  10.293 -0.2027  0.0991  0.0008
25080W        W40549   0.588  10.547  12.327  0.0114  0.0645 -0.1013
25081W        W40550   0.531   9.932  10.478 -0.1153 -0.0916 -0.1712
25082W        W40551   8.119   4.486  10.571 -0.3680  0.2284  0.0245
25083W        W40552  10.884   1.525   4.501 -0.0657 -0.0669  0.0316
25084W        W40553   9.604   9.684  16.125 -0.0537  0.0012 -0.0960
25085W        W40554   4.718  16.395   6.150 -0.1692 -0.2182  0.1695
25086W        W40555   3.970   2.922   4.224  0.0808  0.0264  0.0435
25087W        W40556  13.401   4.186  14.048  0.0929 -0.1165  0.2492
25088W        W40557   3.599   0.407   5.271  0.4978 -0.1730  0.4232
25089W        W40558  17.208   2.328  16.601 -0.0458 -0.0718 -0.1445
25090W        W40559   8.127  12.974  11.387 -0.2146 -0.5864  0.2339
25091W        W40560   1.426   0.346  12.345  0.1701  0.2428  0.1662
25092W        W40561   8.854   2.355  12.930  0.1389  0.0711  0.1950
25093W        W40562   4.272  15.274   5.716  0.0624 -0.1609  0.3969
25094W        W40563   5.227  10.264   3.366 -0.0725  0.0959  0.0030
25095W        W40564   4.640   4.751  11.560 -0.1759 -0.3958  0.0240
25096W        W40565   0.601  15.347   6.498 -0.0194  0.2568  0.0733
25097W        W40566  12.932  17.177   5.686  0.1329  0.0787 -0.0807
25098W        W40567  11.686   4.847  15.088 -0.0410 -0.1126 -0.1455
25099W        W40568   1.511   3.300  14.190 -0.0677  0.1123  0.2575
25100W        W40569  17.731  12.888   4.782 -0.0473 -0.1287  0.2031
25101W        W40570   9.605   7.895  16.187  0.0254 -0.0358 -0.1969
25102W        W40571   8.065  15.401  15.610  0.1036 -0.1118 -0.0486
25103W        W40572  16.441   3.129  15.727  0.0370 -0.0904  0.0425
25104W        W40573   2.953   5.691   4.731 -0.0357  0.2075 -0.2538
25105W        W40574  15.401  10.565   2.195 -0.0594 -0.1076 -0.0497
25106W        W40575  17.137  13.512  12.508 -0.3159  0.2569  0.1023
25107W        W40576   7.517   5.364  11.522 -0.0355  0.0461 -0.0199
25108W        W40577   8.485  14.024  12.909  0.0586 -0.0030  0.0420
25109W        W40578   3.980   5.122  14.478 -0.1913  0.0093  0.3489
25110W        W40579  10.692   5.174   1.078  0.1107 -0.2254 -0.1264
25111W        W40580  11.343  15.675  15.963 -0.1965  0.0897  0.0001
25112W        W40581  17.437   3.060  12.420 -0.0276  0.3654 -0.0269
25113W        W40582  16.201   6.168  11.686  0.2181  0.2369  0.0653
25114W        W40583  17.288   3.166   2.497  0.2138 -0.0630  0.3534
25115W        W40584  13.614   0.586   0.470 -0.0430  0.0101 -0.3243
25116W        W40585  12.972   3.637  11.440  0.4565 -0.1370 -0.0956
25117W        W40586   8.166  17.812  12.133 -0.0462 -0.1958  0.0868
25118W        W40587   7.325  14.771   5.056  0.1144  0.0485  0.0204
25119W        W40588  10.843  15.848  15.158 -0.0097 -0.1958  0.2784
25120W        W40589   4.745  12.364   4.520 -0.1429 -0.0574 -0.1063
25121W        W40590   9.523  13.260  12.626  0.2140 -0.2583  0.0717
25122W        W40591   7.841  12.974   4.703  0.0356  0.2959 -0.0672
25123W        W40592  12.683  10.166  16.505 -0.1195  0.1145 -0.3878
25124W        W40593  12.688  12.255   2.265 -0.0891  0.0110  0.0793
25125W        W40594   8.416  13.682  13.707  0.0732  0.2400  0.4439
25126W        W40595   1.762  13.724   5.028  0.1065  0.1593  0.0954
25127W        W40596  15.488  15.722  12.426  0.0212 -0.2365 -0.0275
25128W        W40597  10.730   8.853   3.647  0.1498 -0.3289  0.0367
25129W        W40598   1.144  11.730   2.269  0.1182  0.1837  0.0890
25130W        W40599   8.499  11.355  16.526 -0.0498  0.0356  0.1081
25131W        W40600   5.785  12.206  16.115 -0.0236  0.2925  0.0050
25132W        W40601   6.706   7.669  12.446  0.0368  0.2536 -0.1690
25133W        W40602   2.652  12.650  13.878 -0.4541 -0.0304  0.2170
25134W        W40603  14.101  17.645   0.463  0.2091  0.1767 -0.3296
25135W        W40604  10.615   2.379  14.531 -0.2241 -0.2870 -0.0153
25136W        W40605  12.518  17.227  13.746  0.0951  0.3271  0.3357
25137W        W40606   0.802  16.947  16.016  0.2300  0.4410 -0.1122
25138W        W40607  12.030  17.262   3.878 -0.0749  0.3209  0.1404
25139W        W40608   0.406   0.302   0.014  0.1195 -0.0461  0.0863
25140W        W40609   3.050  12.465  13.614  0.0719 -0.2583 -0.1498
25141W        W40610  16.003   6.713  10.538 -0.2641  0.1051 -0.0503
25142W        W40611   4.996   7.686   0.425 -0.1974 -0.1953  0.3638
25143W        W40612  12.945   1.054  12.258 -0.1073 -0.1735 -0.1318
25144W        W40613  14.300  17.460   0.948 -0.2757  0.1419 -0.1131
25145W        W40614   1.652   6.357   0.920  0.0932  0.1858 -0.3679
25146W        W40615  14.765  14.263   3.181 -0.1011 -0.0086 -0.0725
25147W        W40616   6.314   5.778   6.274  0.2627 -0.1344 -0.0529
25148W        W40617   7.469  16.544   1.845 -0.1688 -0.1431 -0.0898
25149W        W40618   3.407   3.714   2.684 -0.2013  0.0137 -0.0575
25150W        W40619   5.136  10.176   4.746  0.0903  0.0363 -0.1907
25151W        W40620   5.214   9.803  15.026 -0.3301  0.1205  0.2927
25152W        W40621  10.339  11.179  15.658  0.1777 -0.0684  0.0918
25153W        W40622   8.297   7.296   3.479 -0.0095 -0.1934  0.0126
25154W        W40623   1.372   5.734  16.278  0.1815 -0.1123  0.0100
25155W        W40624   9.357  17.193   6.410  0.0953 -0.2116  0.0223
25156W        W40625  16.353   0.750  14.623 -0.0809  0.1205 -0.0155
25157W        W40626   4.978   9.333   1.374 -0.1727 -0.4422  0.1860
25158W        W40627  14.031   6.155  15.559  0.3197 -0.2546  0.3542
25159W        W40628   5.890   4.780  14.158 -0.3327  0.3209  0.2316
25160W        W40629   6.595  17.139  11.207  0.0256  0.1581 -0.1541
25161W        W40630  12.632   3.977  16.109 -0.1924  0.1292 -0.0470
25162W        W40631   9.378   4.466  13.385 -0.0727 -0.1679  0.2903
25163W        W40632   3.313  10.759   0.013  0.1105  0.1127 -0.1041
25164W        W40633  13.191   8.247  16.541 -0.0553 -0.2177  0.1448
25165W        W40634  14.440   7.763  12.213 -0.3899  0.0306  0.2165
25166W        W40635   0.971   3.550   5.783  0.0822 -0.0364 -0.0387
25167W        W40636  17.643   5.873  14.565 -0.0179  0.1226 -0.1449
25168W        W40637  14.964   7.241  13.797  0.0109  0.0173 -0.0753
25169W        W40638   1.260  14.747  14.142 -0.1909 -0.0212  0.2584
25170W        W40639  15.518  12.095   0.543 -0.1517 -0.1553  0.2323
25171W        W40640   5.997   3.188   4.323 -0.0343 -0.1729 -0.0633
25172W        W40641  10.570   0.627  16.533 -0.0638  0.0305  0.0561
25173W        W40642   4.580   8.525  16.051 -0.2358 -0.1023 -0.1049
25174W        W40643   9.957   7.725   3.636 -0.0244 -0.0993 -0.1273
25175W        W40644   3.445   9.861  12.662 -0.2151  0.2167  0.2319
25176W        W40645  15.966   8.496   0.446 -0.0894 -0.1743 -0.0989
25177W        W40646  11.463  10.067   3.079  0.1102 -0.2862 -0.0096
25178W        W40647   3.946  12.618  11.270  0.2264  0.0791  0.0620
25179W        W40648   9.747   1.378  11.861 -0.2287  0.0327  0.0792
25180W        W40649   5.024  13.341   0.017 -0.0660 -0.1617 -0.2116
25181W        W40650   1.070  11.990   0.241 -0.2016 -0.0562 -0.1741
25182W        W40651  12.053  16.690  14.907 -0.1102 -0.1123 -0.0266
25183W        W40652   6.787   2.030  15.448 -0.0906 -0.0316  0.2415
25184W        W40653   6.772  12.740  13.349 -0.1540  0.0537 -0.1822
25185W        W40654   0.351   6.178  14.227  0.4836 -0.0413  0.1273
25186W        W40655  10.561   1.481   5.874 -0.1096 -0.0656 -0.1354
25187W        W40656  10.671   2.812  12.724 -0.0597  0.2679  0.1196
25188W        W40657  11.970   1.917  12.347  0.1323 -0.1605  0.3645
25189W        W40658   8.887  16.086   0.325  0.2391 -0.1066 -0.0773
25190W        W40659   8.970   9.373   5.178 -0.0919 -0.0471 -0.0107
25191W        W40660   2.960   3.517  11.418 -0.1960 -0.1664  0.1685
25192W        W40661   9.290  16.926   5.529 -0.0361  0.3291 -0.0647
25193W        W40662  15.521   0.572   3.227 -0.2008 -0.2473 -0.0416
25194W        W40663  13.650  12.180  11.912 -0.1470  0.0562 -0.0431
25195W        W40664   8.596   3.520  15.948  0.1856 -0.0479 -0.1861
25196W        W40665  14.911   8.248   3.218  0.0275  0.2078  0.1360
25197W        W40666   4.726   8.943   1.524 -0.0267  0.0327 -0.5009
25198W        W40667   5.391  12.296   3.232 -0.2625 -0.2696  0.1591
25199W        W40668  14.982   7.595   4.350 -0.0918 -0.1234 -0.1358
25200W        W40669  16.527  16.182   2.419  0.1958  0.0991 -0.1056
25201W        W40670   9.101  15.206   2.174 -0.0096  0.1829 -0.1678
25202W        W40671   5.679   1.074   4.048 -0.3270 -0.4544 -0.1105
25203W        W40672   2.238   2.958  12.121  0.0564 -0.1516 -0.2388
25204W        W40673  12.212  14.837  16.020 -0.0190 -0.2278 -0.1471
25205W        W40674   7.950   8.000  10.378 -0.3732  0.0462 -0.1206
25206W        W40675   3.294  13.390   2.328 -0.2431 -0.0736 -0.0745
25207W        W40676  16.068  15.509  15.121  0.0070 -0.1493  0.1002
25208W        W40677  17.460   0.800  14.299 -0.1576  0.2029  0.0951
25209W        W40678  12.370   8.708   5.589 -0.0947 -0.2755 -0.0939
25210W        W40679   5.057   6.313  11.242 -0.0681  0.2758  0.0873
25211W        W40680  13.169   3.382   1.253  0.0223  0.0522 -0.1050
25212W        W40681  16.675  15.861   4.117  0.1265 -0.0137 -0.1164
25213W        W40682   5.035  11.962   0.326  0.1454 -0.0453  0.2594
25214W        W40683   7.476  13.134   3.070 -0.2735 -0.0294  0.1155
25215W        W40684  13.027  11.408   0.726 -0.4228 -0.1176 -0.0682
25216W        W40685   2.993  17.437   3.372  0.0667 -0.3314 -0.2138
25217W        W40686   7.071  15.878  13.683  0.1349  0.2394  0.1668
25218W        W40687   8.909   8.258  13.270  0.0529  0.0624 -0.0615
25219W        W40688   7.844  15.516  16.604 -0.0770 -0.0693 -0.3467
25220W        W40689   1.679   9.810  16.306  0.1956  0.1519 -0.0203
25221W        W40690  13.081  10.238  15.632  0.2348  0.0089 -0.2853
25222W        W40691   9.704  13.469  13.076  0.1002 -0.0794 -0.1590
25223W        W40692   8.109   0.524  15.120  0.1129 -0.0756 -0.0009
25224W        W40693  10.045   6.178   0.150  0.1198  0.0574 -0.4016
25225W        W40694   1.727   0.620   1.938  0.2058  0.0350  0.3865
25226W        W40695   1.719   7.399   1.405 -0.0566 -0.0752  0.0759
25227W        W40696   3.854  14.930   2.784 -0.0962 -0.0414  0.1406
25228W        W40697   5.389  16.336  14.530  0.0503 -0.2413 -0.3122
25229W        W40698  13.283  15.997   1.666 -0.2109  0.0551 -0.0890
25230W        W40699   8.162  14.487  15.747  0.0061  0.0750  0.0823
25231W        W40700   7.673  15.924  16.276  0.2656  0.0163 -0.1208
25232W        W40701  16.864   8.704   2.803  0.0896  0.1063 -0.0053
25233W        W40702   3.005   1.342   3.486 -0.0038 -0.1988  0.0827
25234W        W40703   9.102   9.774   4.962 -0.3322 -0.1720  0.1460
25235W        W40704  17.828  12.345   0.061  0.1234 -0.0183  0.1725
25236W        W40705  11.151   1.091   4.776  0.0718 -0.0792  0.0394
25237W        W40706  11.717   6.912   1.533 -0.0423  0.2504 -0.0926
25238W        W40707   1.562   4.723  15.990  0.2782  0.1889  0.0421
25239W        W40708   2.603  17.772  13.456  0.0929  0.0476 -0.2394
25240W        W40709  16.285   3.820   5.080 -0.0164  0.0416  0.1185
25241W        W40710  16.195  14.743  14.509 -0.0523  0.0219 -0.1504
25242W        W40711   1.773   3.907   1.433 -0.0303 -0.0560 -0.2899
25243W        W40712  10.675   4.111  15.566 -0.1400 -0.1124  0.1054
25244W        W40713   8.100   0.997   2.116  0.0841 -0.2126 -0.0427
25245W        W40714   5.023   8.618  15.417  0.3236 -0.3170 -0.0341
25246W        W40715   6.161   0.177   5.104  0.1846 -0.2434 -0.2437
25247W        W40716   7.036   2.939   2.421  0.2404 -0.3278 -0.0174
25248W        W40717  17.847   4.661   5.183 -0.1816  0.0878  0.3884
25249W        W40718   1.026  17.599  16.547 -0.2172  0.0034 -0.1520
25250W        W40719  14.654   2.058   3.837  0.2024 -0.1254 -0.1149
25251W        W40720  11.619   9.292  13.976  0.2330 -0.0646  0.2557
25252W        W40721   8.169   5.982   5.419 -0.1105 -0.0926  0.0457
25253W        W40722   5.961   6.841   3.245  0.0921 -0.2669 -0.1171
25254W        W40723  15.231   2.719  12.917  0.1048 -0.2470  0.1778
25255W        W40724   4.478  16.537   3.972 -0.2565 -0.0849 -0.0535
25256W        W40725   8.122   6.243   2.313 -0.2087 -0.1482  0.0546
25257W        W40726   2.286   7.469   4.600 -0.0250  0.0009  0.2350
25258W        W40727  16.229   1.492   0.095  0.1600  0.0933  0.0261
25259W        W40728  15.827   9.039   4.716  0.0382  0.2951  0.0508
25260W        W40729   1.452  15.758   6.259 -0.0794 -0.1837 -0.0515
25261W        W40730   3.313   2.550   3.914  0.1830 -0.0656 -0.0712
25262W        W40731  12.696   6.753  14.910  0.4069  0.1423 -0.0522
25263W        W40732  16.031   3.817  14.276 -0.1294 -0.2797  0.1438
25264W        W40733   7.882  11.741  10.711  0.2397  0.0021  0.1233
25265W        W40734  12.794  16.641   0.584 -0.1152  0.0675 -0.1090
25266W        W40735   1.218  16.944   3.527  0.1440 -0.1065 -0.0948
25267W        W40736   5.098  15.279   5.902  0.1187  0.1590  0.2080
25268W        W40737   9.732  15.695   4.892 -0.0258 -0.1376 -0.3681
25269W        W40738   3.762   1.360  16.577  0.2976  0.3034  0.3216
25270W        W40739  11.098   1.629   6.580  0.0321  0.3488 -0.1083
25271W        W40740  10.500  12.354   3.099  0.1476  0.2109 -0.2450
25272W        W40741   6.571   7.883  14.194 -0.2708  0.0889 -0.0506
25273W        W40742   9.597  13.719   1.426 -0.1064 -0.2538  0.2830
25274W        W40743   8.336  10.748  14.946 -0.3608  0.0295  0.2423
25275W        W40744   1.457  11.306  13.549 -0.0741 -0.1600  0.1600
25276W        W40745   6.192  14.942  14.196  0.0429  0.1365  0.0372
25277W        W40746  17.296  15.488   2.846  0.0268  0.2288 -0.2315
25278W        W40747   1.148   3.520   4.011  0.1546  0.0590 -0.1784
25279W        W40748   5.378  14.530   2.723  0.0638 -0.2451  0.1150
25280W        W40749   2.549   7.298  16.520 -0.2995 -0.3284 -0.3236
25281W        W40750  15.575  17.644  13.121  0.1108  0.3542  0.0576
25282W        W40751  16.014   1.790  15.801 -0.0127 -0.0856 -0.0240
25283W        W40752  10.816   5.877   2.528  0.1040 -0.2132 -0.3097
25284W        W40753   4.680   7.827  15.116  0.0850 -0.1958  0.2299
25285W        W40754  14.712   7.384  11.409  0.3917 -0.1078  0.0347
25286W        W40755  14.629   4.022  13.707 -0.1792 -0.0815 -0.0624
25287W        W40756   5.376   8.981   0.009  0.2522  0.0638  0.0023
25288W        W40757   2.958  10.598  16.233 -0.0640 -0.2218 -0.1334
25289W        W40758  13.758  12.222  14.065  0.0816 -0.4011  0.0920
25290W        W40759  11.156  14.144  14.557 -0.1134  0.0007 -0.3058
25291W        W40760   2.531   1.305  16.524  0.1551 -0.0091 -0.0706
25292W        W40761  17.357   7.824  11.806 -0.0132  0.0487  0.1425
25293W        W40762   8.330   0.450   1.429  0.0232 -0.2486 -0.0513
25294W        W40763   8.004  14.859  14.501 -0.1369  0.0848 -0.1543
25295W        W40764   7.513   1.832  16.322  0.1629  0.4676  0.3246
25296W        W40765   5.739   6.378  15.671 -0.0532 -0.0083  0.0665
25297W        W40766  10.226  12.402   2.082 -0.0445  0.1406 -0.1379
25298W        W40767   4.299   3.432  16.342 -0.1149 -0.1209 -0.2252
25299W        W40768  10.546  15.667   3.341  0.0476 -0.1156  0.3296
25300W        W40769  12.821   2.928  14.611  0.0132 -0.2387  0.0321
25301W        W40770   9.347   4.128  13.837 -0.1830  0.1297 -0.1515
25302W        W40771   1.505  16.836  16.531  0.0551  0.0756  0.1828
25303W        W40772  12.532   2.672   5.459  0.1544 -0.1111 -0.2018
25304W        W40773   5.383  12.133  11.279 -0.1761 -0.1823 -0.0822
25305W        W40774   4.536  14.106  15.149 -0.0993 -0.1874  0.1733
25306W        W40775  14.104  10.427   2.715  0.2148 -0.0840 -0.0373
25307W        W40776  14.134   2.119   3.736  0.0534 -0.0564  0.2843
25308W        W40777   2.367   0.676   2.712  0.0306  0.1518 -0.2298
25309W        W40778  11.579  11.117   4.925  0.0115  0.3012 -0.2297
25310W        W40779   0.796  10.023  15.370 -0.0639  0.3377 -0.3535
25311W        W40780   9.149   5.887   5.381  0.2980 -0.0843 -0.2332
25312W        W40781  10.828   6.988   5.800 -0.0551  0.3527  0.0470
25313W        W40782   5.956   3.242  15.433 -0.2626  0.1477  0.1111
25314W        W40783  17.688   6.297  13.072  0.0562 -0.0608  0.1365
25315W        W40784  14.654  12.322   1.257 -0.0717 -0.0943  0.0249
25316W        W40785  11.279  16.088  15.127  0.1199  0.0001 -0.1808
25317W        W40786  15.406  10.389   2.748  0.0297  0.1645  0.1884
25318W        W40787   5.915   1.147  11.528 -0.4844 -0.1183 -0.0812
25319W        W40788  13.279   8.286  11.649 -0.1614  0.0341  0.0328
25320W        W40789   4.323  10.816  15.700 -0.0298 -0.0359  0.2129
25321W        W40790   7.275  14.562  15.974  0.2345 -0.1720 -0.0588
25322W        W40791  17.445   6.491  15.298  0.3372  0.0056  0.3179
25323W        W40792   8.274   9.212   4.728 -0.0677  0.1077 -0.1280
25324W        W40793  12.344   9.676   5.633  0.1300  0.3018  0.0715
25325W        W40794  10.178   9.472  16.085  0.4871  0.2712 -0.0903
25326W        W40795  13.534  12.572   2.566  0.1240  0.3625  0.0666
25327W        W40796   8.095  16.237   2.303 -0.0434  0.1663  0.1635
25328W        W40797   1.958  16.886   2.174 -0.2203  0.4291  0.0686
25329W        W40798   6.920   6.454   0.836  0.3246 -0.1106 -0.4272
25330W        W40799   5.841   2.874   2.276  0.1309 -0.1698  0.0997
25331W        W40800   5.011   6.113  11.922 -0.0761 -0.0274  0.1872
25332W        W40801   9.450   1.695   0.175  0.2674  0.1722 -0.2946
25333W        W40802  16.065   2.283  13.104 -0.2375 -0.0033 -0.3567
25334W        W40803   8.507   2.861   1.455 -0.3116 -0.1019  0.2110
25335W        W40804   3.748   3.355   3.022  0.0526  0.2292  0.0700
25336W        W40805  10.476   1.977  14.828 -0.4069  0.0807  0.0911
25337W        W40806   0.239   5.421   4.584  0.0376  0.0646  0.2935
25338W        W40807  17.836  17.680  13.139  0.0488 -0.2572  0.1659
25339W        W40808  17.232  11.344  16.218 -0.2757 -0.3267  0.1983
25340W        W40809  11.165   6.451  15.831 -0.0920 -0.1020  0.0242
25341W        W40810  14.014   9.681   1.344  0.1541 -0.1212  0.1860
25342W        W40811   5.356  13.654  15.038 -0.1914  0.0151 -0.0734
25343W        W40812  11.023  14.024   1.910  0.0179  0.3070 -0.0061
25344W        W40813   5.911  11.844   0.836  0.1718  0.0733 -0.0033
25345W        W40814   6.767   5.199   3.061  0.1244 -0.3890 -0.1068
25346W        W40815  17.676   4.679  11.517 -0.1452 -0.0359  0.3818
25347W        W40816   6.948  16.311   0.443  0.1687 -0.0675  0.2078
25348W        W40817   8.913   6.545  15.278  0.2522 -0.0737 -0.2584
25349W        W40818   0.495   4.853  12.731 -0.1010  0.3948  0.1864
25350W        W40819   7.643  16.013  14.600  0.0948 -0.0299  0.1382
25351W        W40820   8.941  17.353  12.318  0.1661  0.1660 -0.3994
25352W        W40821  13.220   1.053   4.153  0.0576 -0.2292 -0.1214
25353W        W40822   8.045   3.054   1.823 -0.1186 -0.1199  0.2953
25354W        W40823  16.367  16.759   4.294 -0.1145  0.0685 -0.0023
25355W        W40824   1.576  13.107  12.891  0.2122 -0.2075  0.0189
25356W        W40825   1.843  11.871   4.070 -0.0621  0.1924  0.0747
25357W        W40826  15.512   2.887   2.848 -0.0306 -0.0943  0.3809
25358W        W40827   3.281   9.301  15.992  0.1672  0.0882  0.0757
25359W        W40828   7.829  15.337   2.749 -0.3146  0.1885  0.0091
25360W        W40829  15.943   6.415  15.089  0.3106  0.3042  0.1823
25361W        W40830  13.005  10.989   3.832 -0.1823  0.1417 -0.4587
25362W        W40831   9.934   1.374  13.526 -0.0247 -0.0783 -0.0609
25363W        W40832  14.967   2.950   2.803  0.1295 -0.2170 -0.0559
25364W        W40833   3.896   7.202   0.153 -0.0480 -0.1783  0.0102
25365W        W40834   0.547   7.036  11.245 -0.1088 -0.1247  0.2049
25366W        W40835  17.683   0.150  13.874  0.1129 -0.0726  0.1073
25367W        W40836  12.544   2.998  11.159 -0.1042 -0.1136 -0.2721
25368W        W40837   7.526   3.050   2.171 -0.0400 -0.2721 -0.0491
25369W        W40838   6.692  17.761  11.884  0.0420  0.1761 -0.1062
25370W        W40839   5.811  14.840  13.829  0.1591 -0.0898 -0.0594
25371W        W40840   3.236  15.873   0.828 -0.4380 -0.0741 -0.0966
25372W        W40841   4.682   4.783  14.609 -0.2465 -0.0379  0.0085
25373W        W40842  12.571  15.407  14.066  0.2252 -0.2607 -0.1718
25374W        W40843   1.345   6.848   0.082 -0.0145 -0.0179 -0.1950
25375W        W40844  17.355   2.782  14.840  0.1264  0.0888 -0.0090
25376W        W40845  13.457   7.507   4.101 -0.0129 -0.0551  0.0750
25377W        W40846   9.243  10.387  12.143  0.1669 -0.1614  0.1060
25378W        W40847  12.871   1.040  16.047 -0.4188  0.1920 -0.0331
25379W        W40848  11.265   2.831   0.809  0.0921  0.2101 -0.0924
25380W        W40849  11.586   0.415   5.199 -0.0298 -0.2583  0.0415
25381W        W40850   6.359   9.824   5.916 -0.1259  0.1833  0.0171
25382W        W40851   2.663   9.159   2.701 -0.3758 -0.3634 -0.3027
25383W        W40852   2.124   7.091  13.512  0.1182  0.1064  0.1129
25384W        W40853   0.657  16.285  14.773 -0.1976 -0.3657 -0.0170
25385W        W40854  14.018  14.059   5.743  0.1402 -0.1038 -0.1437
25386W        W40855   1.380   6.130   3.105 -0.0815 -0.0085 -0.0088
25387W        W40856   3.692   6.200   1.074 -0.0205 -0.3767 -0.0688
25388W        W40857  10.822   5.294   2.621  0.0496 -0.0348  0.0570
25389W        W40858   2.020  13.288  16.397 -0.3011 -0.0933 -0.4151
25390W        W40859   3.310   2.427  16.374 -0.0720  0.1017  0.0135
25391W        W40860   0.283   9.301   3.529 -0.0937 -0.1994  0.1500
25392W        W40861  17.701   9.750   3.946  0.0243 -0.0809 -0.1532
25393W        W40862  14.896   7.080  12.802 -0.1405  0.0799  0.0152
25394W        W40863   6.318   6.329   1.543  0.0024 -0.1433 -0.0973
25395W        W40864  11.915  11.462  12.409  0.3782  0.1298 -0.2658
25396W        W40865   4.306  13.073  15.345 -0.1541  0.0844 -0.2554
25397W        W40866  10.545   6.185  11.585 -0.1603  0.0829  0.0640
25398W        W40867  16.397   0.190   4.831  0.1088 -0.0248 -0.1889
25399W        W40868  15.470  15.159  12.294 -0.2622  0.0452  0.0365
25400W        W40869   7.188   2.389   5.963 -0.1935 -0.2569 -0.1291
25401W        W40870   1.340  10.840   2.011  0.0337  0.1861  0.0187
25402W        W40871  17.344   6.438   1.102  0.1477 -0.0186  0.5633
25403W        W40872   2.870   4.992  14.359 -0.1283 -0.2531 -0.2336
25404W        W40873   2.464  17.305  13.208  0.1874 -0.1497 -0.0113
25405W        W40874  15.504   5.396  13.573 -0.0016 -0.0252  0.1653
25406W        W40875  11.958   8.721   5.318  0.1184  0.0441  0.2371
25407W        W40876  12.072  10.874  12.335 -0.2348 -0.0647 -0.0904
25408W        W40877   0.806   1.646   3.680  0.4728  0.0136 -0.3086
25409W        W40878  14.350  17.507   5.293  0.2500 -0.0124 -0.0940
25410W        W40879   3.978  12.252   5.043 -0.0140 -0.0527  0.1968
25411W        W40880  11.946   7.616   2.238 -0.0789 -0.0203  0.3606
25412W        W40881  12.965  12.980   4.160 -0.1671  0.2145 -0.1207
25413W        W40882  15.094  12.966  14.518 -0.0615  0.0944  0.0217
25414W        W40883   7.490  15.042  12.465  0.2525 -0.3025  0.0182
25415W        W40884  10.318  17.962  13.812 -0.0251  0.0584 -0.0958
25416W        W40885   3.958   4.015  15.126  0.0675 -0.1521  0.1182
25417W        W40886   4.834  16.707  13.676  0.0528 -0.0306 -0.2121
25418W        W40887   7.158   0.676   1.586 -0.0191 -0.0660  0.1482
25419W        W40888   5.400   3.772   5.438 -0.0650 -0.0398  0.0626
25420W        W40889   0.333   5.541  16.282  0.0155 -0.1821  0.2316
25421W        W40890   6.537  12.776  15.594 -0.1675  0.2529 -0.5507
25422W        W40891   9.956   8.910   1.145 -0.3120  0.4618 -0.2193
25423W        W40892  15.129   7.521  11.073 -0.1448  0.2283  0.2012
25424W        W40893  10.077   4.236   0.278  0.1346 -0.0349 -0.0182
25425W        W40894   8.877   6.228   0.824 -0.0846 -0.2424 -0.0483
25426W        W40895  17.976   9.885  14.277 -0.0482  0.1793 -0.0928
25427W        W40896   3.884  17.315  12.328 -0.0928  0.1766 -0.0574
25428W        W40897   9.098  14.598   3.736 -0.2644 -0.0913 -0.1151
25429W        W40898  12.940   0.930   1.619  0.2623 -0.0283 -0.0089
25430W        W40899   1.921  10.422   2.502 -0.1720  0.1268 -0.0381
25431W        W40900   0.954   7.873   4.543 -0.0721  0.2574 -0.1639
25432W        W40901   6.790  13.516  13.068 -0.0884  0.1779 -0.2133
25433W        W40902   0.823   7.862   1.938 -0.1115 -0.2003  0.0414
25434W        W40903  15.359   8.151   0.455  0.1484  0.0952 -0.2801
25435W        W40904   9.245   6.650  12.814  0.1803 -0.0472  0.0144
25436W        W40905  13.637  14.027  14.897  0.0851  0.1229  0.2907
25437W        W40906   0.517  10.308   3.869  0.2070 -0.1837 -0.2679
25438W        W40907   5.131  12.041   4.611  0.2143 -0.2617 -0.0793
25439W        W40908   3.483   4.193   0.633 -0.1765  0.0369  0.1425
25440W        W40909   1.292   6.657   3.972 -0.1632  0.0552  0.0755
25441W        W40910  11.657   5.326   0.250 -0.2693  0.0803 -0.2708
25442W        W40911  11.945  14.776   0.683  0.1900  0.1724 -0.0710
25443W        W40912   4.366  11.989  11.950 -0.1889  0.0792 -0.0507
25444W        W40913  17.783   5.907  12.273  0.2632 -0.1867  0.6656
25445W        W40914  11.213  12.552   1.676  0.1221 -0.0348  0.0430
25446W        W40915   8.475   5.352  11.917  0.0261  0.0830 -0.1170
25447W        W40916   0.472   6.160  11.697 -0.0524 -0.1976  0.1792
25448W        W40917  15.308  17.224  15.109  0.0801  0.1262  0.1242
25449W        W40918   7.964   6.519   3.478 -0.1297  0.1203  0.0343
25450W        W40919   0.953  11.094   3.962 -0.0113  0.0430  0.1189
25451W        W40920   5.597   1.876  16.072 -0.1763 -0.2171 -0.2220
25452W        W40921   3.135  12.454  11.944  0.2158  0.2284 -0.0461
25453W        W40922  14.813   9.915  11.023 -0.0601  0.1343  0.0504
25454W        W40923   3.200   1.711   5.727  0.2696  0.0845 -0.0681
25455W        W40924   2.649  16.802  11.963 -0.3358 -0.1093 -0.0516
25456W        W40925   8.873  12.915  12.456  0.2944 -0.2900  0.2655
25457W        W40926   1.234   9.812  11.165 -0.0188  0.2672 -0.0389
25458W        W40927   4.452  17.642  15.721 -0.1265  0.2712 -0.3764
25459W        W40928   4.754   7.396  14.861 -0.0286  0.1318 -0.0253
25460W        W40929   9.738  15.245  16.516 -0.2881  0.1000  0.0030
25461W        W40930   7.086   9.295   1.826  0.0583 -0.0918 -0.0809
25462W        W40931  16.169  16.462  13.623 -0.0388  0.0964  0.2214
25463W        W40932  16.086   3.822   4.621  0.0812  0.0432  0.0600
25464W        W40933  17.403   1.415  16.466  0.0186 -0.0995  0.0185
25465W        W40934   6.592  14.197   2.037  0.0300  0.3842 -0.0070
25466W        W40935   5.634   4.855   4.776  0.0318 -0.2429 -0.2305
25467W        W40936  15.453  12.051   3.825  0.1005  0.0508  0.1247
25468W        W40937   2.928   3.974   4.038  0.1326 -0.1882  0.1404
25469W        W40938   7.906   1.108  16.024 -0.1194 -0.0082 -0.1755
25470W        W40939  10.497  12.397  13.095  0.0847 -0.2198  0.1736
25471W        W40940   7.416  12.161  14.501  0.1981  0.2115  0.3315
25472W        W40941   1.520   7.802  15.958  0.0944 -0.1505 -0.0005
25473W        W40942  10.498  12.366  11.447 -0.2098 -0.0927  0.2006
25474W        W40943  17.776  14.938   1.949 -0.0116 -0.2022  0.1173
25475W        W40944   7.997  14.538  14.041 -0.1816 -0.3237 -0.0949
25476W        W40945  10.977  10.699   1.299 -0.0504 -0.1813  0.0637
25477W        W40946   4.913   1.113  13.478  0.3365 -0.3645  0.0806
25478W        W40947   7.627   0.081   0.760 -0.0871  0.0869  0.0947
25479W        W40948   5.990   5.632   5.162 -0.0975  0.1616  0.2704
25480W        W40949  17.329  17.135   6.053 -0.0063  0.0776 -0.1069
25481W        W40950   8.198   9.052   2.947 -0.0419  0.1718  0.3468
25482W        W40951  14.851  16.089   2.098 -0.1841  0.0962 -0.0270
25483W        W40952   5.282   0.068  15.090  0.4991  0.6576  0.1564
25484W        W40953   8.453   5.895  16.304 -0.1828 -0.3284 -0.0880
25485W        W40954   8.337   3.192   1.000 -0.3212 -0.1185 -0.0515
25486W        W40955   3.360   0.052   0.856  0.0694  0.1255  0.0787
25487W        W40956   2.950  11.562   4.897  0.2913 -0.1817  0.2710
25488W        W40957   9.960   1.958   1.193 -0.0297 -0.0406 -0.0561
25489W        W40958  11.391  17.313   0.447 -0.2206 -0.0787 -0.0582
25490W        W40959  12.106   2.486  13.665  0.1004  0.2163 -0.1591
25491W        W40960  14.131   9.112  10.875 -0.0305  0.0607  0.1311
25492W        W40961   3.558  11.216   3.952 -0.2783 -0.0749 -0.0427
25493W        W40962   2.013  10.421  13.573  0.1895 -0.0466 -0.2614
25494W        W40963   3.835   3.825   1.448  0.1086  0.2065 -0.1772
25495W        W40964   9.819  14.976   3.496  0.1331 -0.1474  0.2583
25496W        W40965   3.331  15.879  16.023 -0.0397 -0.2706  0.1477
25497W        W40966  17.533   6.538  13.557 -0.2206  0.0544 -0.0535
25498W        W40967  13.662  15.520   4.788 -0.0194  0.1146 -0.4517
25499W        W40968  14.940   1.055  13.838 -0.0337  0.2367 -0.0250
25500W        W40969   8.621  15.757  14.494  0.3837  0.1504 -0.0052
25501W        W40970   1.529  13.386   5.411  0.0774  0.1678 -0.1577
25502W        W40971  13.875  17.626   2.594  0.0013 -0.2451 -0.2827
25503W        W40972  13.625   6.128  15.219  0.3275 -0.0851  0.2102
25504W        W40973   2.811   0.142   1.392 -0.2781 -0.0268 -0.1280
25505W        W40974   9.155   9.729  15.828 -0.2495 -0.1375  0.1712
25506W        W40975   0.151   7.786  16.525  0.1016  0.0144  0.1496
25507W        W40976  11.005   7.394  11.099  0.1671  0.2492  0.1433
25508W        W40977   6.531  10.292  13.917 -0.0736  0.0500 -0.0150
25509W        W40978  16.698  13.725   1.838 -0.0566 -0.0918  0.1161
25510W        W40979  11.032  14.769   4.180 -0.1463  0.1778 -0.0930
25511W        W40980   8.596   1.881  15.655  0.1461 -0.1337 -0.0310
25512W        W40981   0.141   6.706  12.416 -0.3196  0.0107 -0.0779
25513W        W40982  10.139   0.804  12.385  0.0089  0.0594 -0.1899
25514W        W40983   9.868  17.034   0.640 -0.3972 -0.0292 -0.0032
25515W        W40984  11.250   2.482  14.804 -0.0023  0.1226 -0.1805
25516W        W40985   3.956   0.164  14.509  0.0568  0.2356 -0.2967
25517W        W40986  15.461  14.587   6.834 -0.0715 -0.0860 -0.2390
25518W        W40987  12.811  16.110   0.678  0.0477  0.1390 -0.0440
25519W        W40988   1.838  10.570  13.120  0.0939  0.3371 -0.2321
25520W        W40989   8.604  11.222  12.569 -0.3221  0.0689 -0.0338
25521W        W40990  13.894  10.909   3.315 -0.1412 -0.1266  0.2229
25522W        W40991   2.933  13.231  12.208 -0.0088  0.3868 -0.3632
25523W        W40992   2.698   8.345  13.005  0.0878  0.0048 -0.1572
25524W        W40993   4.334   8.215  15.749 -0.0135  0.1412 -0.0129
25525W        W40994   9.636  16.950   6.051 -0.1431 -0.1765  0.0241
25526W        W40995   0.442   8.627  12.486 -0.1015 -0.0408 -0.0029
25527W        W40996   0.568   4.216  11.416 -0.1672 -0.0234  0.0396
25528W        W40997  13.354   6.561   2.929  0.0159 -0.0171 -0.0276
25529W        W40998  14.930   0.770   0.636 -0.0947  0.0961 -0.0846
25530W        W40999  14.710  12.052  14.435  0.2472 -0.0890  0.0539
25531W        W41000   0.942   8.759  12.436 -0.3892  0.0799 -0.0320
25532W        W41001  14.209   7.423  16.234  0.1291 -0.1439 -0.0512
25533W        W41002   9.478  12.791   6.278  0.0584  0.1337  0.2002
25534W        W41003  14.186  16.902   2.570  0.1607  0.2874 -0.2347
25535W        W41004  17.375   5.483   5.461  0.0346 -0.2719  0.0594
25536W        W41005  17.025   3.907  14.382  0.2118 -0.1282  0.1730
25537W        W41006  11.272  17.546  14.561  0.0222 -0.1181  0.0009
25538W        W41007   4.348  17.362  13.759 -0.2155  0.1284 -0.1040
25539W        W41008   7.249  16.901   1.387 -0.0111  0.0244  0.0376
25540W        W41009   5.388   5.718   1.819 -0.2240 -0.0328 -0.2567
25541W        W41010  12.689   0.166   1.788  0.0378 -0.2650  0.1822
25542W        W41011   8.570  11.719  12.304 -0.0508  0.2421 -0.1731
25543W        W41012   8.634  17.181  14.502  0.0948 -0.0313 -0.0168
25544W        W41013  13.737   6.785  13.385 -0.3475  0.1204  0.1813
25545W        W41014   7.124   9.214   0.013 -0.2226 -0.2126 -0.0619
25546W        W41015   9.281   3.516  15.158  0.1883  0.0825 -0.0194
25547W        W41016   0.780  16.112   3.912  0.2594  0.1547 -0.2682
25548W        W41017  10.988   4.715  11.461  0.2034  0.1108 -0.2438
25549W        W41018   9.352  17.577   3.646  0.2021  0.1849 -0.1521
25550W        W41019   5.551   6.900   1.715 -0.2152  0.1244  0.0579
25551W        W41020   2.109   6.761  13.854 -0.3413 -0.0814 -0.0882
25552W        W41021   2.053   8.530  16.167  0.0775  0.1259  0.0042
25553W        W41022  11.958  16.267  16.072  0.0946  0.2362 -0.0928
25554W        W41023  13.324  16.140  16.143  0.3698  0.0030 -0.2239
25555W        W41024   4.169   5.377   4.970 -0.2099 -0.2068 -0.0126
25556W        W41025   7.780   9.967  13.017  0.2001 -0.2191  0.0165
25557W        W41026   1.526  13.812  15.751 -0.1100 -0.1492  0.2357
25558W        W41027   4.210   2.937  13.187  0.1170  0.3238  0.0224
25559W        W41028  15.554   5.635   3.145 -0.1749 -0.0624  0.3757
25560W        W41029  15.756  16.322   4.985 -0.1224 -0.0467 -0.1870
25561W        W41030   2.958  15.945  15.632 -0.0189 -0.0132 -0.1165
25562W        W41031   2.660  12.775   4.684  0.0991  0.0303 -0.0221
25563W        W41032  14.347  10.170   1.444 -0.0657 -0.1723 -0.0942
25564W        W41033  17.319   9.803  16.026  0.1203 -0.2348 -0.2736
25565W        W41034   8.151  12.291  15.643 -0.3723  0.0911 -0.3143
25566W        W41035  13.870   8.703   2.106 -0.0049 -0.0783  0.2222
25567W        W41036  17.354   0.380   4.650 -0.1767  0.1010 -0.1326
25568W        W41037  14.903   0.604   0.170 -0.2897  0.1081  0.0505
25569W        W41038  17.825   7.170   4.462 -0.0016 -0.2535  0.0390
25570W        W41039  15.627   3.940  14.655  0.2448 -0.0291  0.0822
25571W        W41040  14.370  14.562  15.178 -0.0107 -0.2101 -0.0861
25572W        W41041   4.541   7.807   1.860  0.1405  0.2364 -0.2011
25573W        W41042   1.828  12.755   1.071 -0.0678 -0.1618  0.1344
25574W        W41043   9.174   3.255   1.538 -0.2453 -0.0480 -0.1722
25575W        W41044  13.069   7.545  12.836  0.2096 -0.4313  0.1143
25576W        W41045   0.467  14.642   5.750 -0.2849 -0.1648 -0.0409
25577W        W41046  14.792   6.197  11.025 -0.0398  0.0528 -0.0625
25578W        W41047   8.080   8.277  11.796  0.0067  0.1978 -0.2138
25579W        W41048   5.266   1.432   3.527  0.0336  0.0261  0.0678
25580W        W41049  14.817   8.467  16.016 -0.1091 -0.2321  0.0308
25581W        W41050   3.877   4.025   2.699  0.2564  0.0945  0.2344
25582W        W41051  11.890   6.300  13.188 -0.0190  0.1231 -0.1280
25583W        W41052  12.444  13.230  15.890  0.0568  0.1329 -0.2033
25584W        W41053   5.185  12.795  15.925  0.0867 -0.2064 -0.0727
25585W        W41054   0.106  16.492  13.596 -0.0166  0.0649  0.1910
25586W        W41055   8.119   5.983  14.776 -0.4508  0.0545 -0.4299
25587W        W41056  11.653   0.648  12.683  0.1671  0.2090  0.0449
25588W        W41057  16.008  14.767   1.531  0.2903 -0.0398  0.0531
25589W        W41058   7.010   1.906   3.473 -0.0828  0.0635 -0.0132
25590W        W41059  12.158   9.979  11.869  0.0876  0.2529  0.1135
25591W        W41060  16.928  15.159   2.991  0.1123  0.1425  0.0931
25592W        W41061  11.158   0.187   4.856 -0.0003  0.1562  0.2520
25593W        W41062   4.846  15.111   5.033 -0.4636  0.0868 -0.2495
25594W        W41063   1.993  13.668   2.658  0.0479 -0.0009 -0.0121
25595W        W41064  14.552   2.965   3.691 -0.1502 -0.1487 -0.0173
25596W        W41065   2.924  17.990  14.845  0.0686 -0.0927 -0.3188
25597W        W41066   2.543   4.263   0.271  0.1128 -0.2781  0.0882
25598W        W41067  12.116   4.803  14.030 -0.1649 -0.0676  0.1102
25599W        W41068  12.322   2.292   3.605  0.2133  0.3460 -0.0328
25600W        W41069   5.596   8.112  12.140 -0.1739  0.1454  0.3257
25601W        W41070  13.339  13.574  14.698  0.3763  0.3428  0.2329
25602W        W41071  17.262   2.764  16.223 -0.3036  0.3154  0.1496
25603W        W41072   2.417   6.348   4.993 -0.3393 -0.0571 -0.1197
25604W        W41073   4.099  10.310  10.761  0.0071 -0.2726 -0.4436
25605W        W41074  10.737   1.810   0.330 -0.2456  0.1155  0.0034
25606W        W41075   5.165   9.283  11.986 -0.1443 -0.0911 -0.0831
25607W        W41076   4.188   4.637  14.527 -0.1293  0.2034 -0.0034
25608W        W41077   2.375  13.083   5.510  0.0435 -0.1594 -0.1161
25609W        W41078   9.355  15.995  14.671 -0.0921 -0.1645 -0.0026
25610W        W41079  14.494  10.052  13.420 -0.0004  0.0002  0.1561
25611W        W41080   2.467  15.111  14.652 -0.4128  0.1268 -0.0401
25612W        W41081  10.382  12.774   0.615  0.2988 -0.1244 -0.0726
25613W        W41082  15.018   8.754   3.679 -0.1144 -0.2202  0.2527
25614W        W41083   5.990  13.820  10.537 -0.3741 -0.2267 -0.1211
25615W        W41084   8.406  16.821  16.452 -0.2493  0.1700  0.2690
25616W        W41085   8.862  16.567  15.227  0.2141  0.0211  0.2700
25617W        W41086  12.139  17.957   0.360 -0.1077  0.0999  0.2205
25618W        W41087  12.092   5.616  10.762  0.0573  0.0354 -0.1865
25619W        W41088  13.187   5.484   3.355  0.2449  0.1836  0.0774
25620W        W41089   3.709  15.727  11.934  0.5556 -0.2398 -0.0649
25621W        W41090  17.341   0.920  16.394  0.1242  0.0036 -0.0251
25622W        W41091   9.961  12.039   5.319  0.1742  0.2905 -0.0455
25623W        W41092   8.929  17.753   3.291  0.2209  0.3454 -0.1646
25624W        W41093   2.293   1.051   4.218 -0.0970 -0.1162 -0.1412
25625W        W41094   7.516   4.332   5.610  0.0830 -0.1321  0.0465
25626W        W41095   0.610  16.933   5.597 -0.1106 -0.0980 -0.2019
25627W        W41096  17.584   4.339   2.436 -0.0557 -0.0330 -0.1245
25628W        W41097   7.729   9.463  13.097 -0.3087  0.1144  0.1838
25629W        W41098   8.029  13.090   2.222  0.0439 -0.2995  0.1981
25630W        W41099  11.463  13.307   1.256 -0.1010 -0.4159  0.0782
25631W        W41100   9.844  17.971  14.034  0.2859 -0.1174  0.1463
25632W        W41101   9.278  11.254  14.436  0.1107 -0.1079 -0.1332
25633W        W41102   7.416   2.923   0.584 -0.3036  0.2719 -0.1663
25634W        W41103   6.368  16.222  14.472 -0.0611  0.2103 -0.0091
25635W        W41104  10.964   4.238   3.465 -0.1047  0.5310  0.0418
25636W        W41105   1.885  12.764   2.475  0.2389  0.0981  0.0307
25637W        W41106   9.930  17.060   4.953  0.1012 -0.5054  0.2802
25638W        W41107  12.644   1.064   1.213  0.2488  0.2974  0.0910
25639W        W41108   9.282   2.658   5.064  0.0260 -0.1934  0.3228
25640W        W41109   9.560  12.169  12.246  0.2982 -0.2827  0.1883
25641W        W41110  17.624   2.146  13.951 -0.0586  0.1134 -0.5119
25642W        W41111  12.230   2.152  15.943  0.4112 -0.1118 -0.0387
25643W        W41112  13.843   1.611  16.105  0.3416 -0.0168 -0.0937
25644W        W41113   2.811   0.817   3.477  0.0597 -0.1858  0.1157
25645W        W41114  17.611  17.743   1.289  0.1143 -0.0786  0.3630
25646W        W41115  12.865   7.710  13.263  0.3027  0.0537  0.0593
25647W        W41116  13.917  17.303  13.986  0.1344  0.1474 -0.0627
25648W        W41117  14.331  12.286   4.879 -0.1403 -0.1479 -0.1979
25649W        W41118   4.553  13.820   3.251 -0.2281  0.0574  0.0154
25650W        W41119   5.085   1.800  16.269  0.0450 -0.0205  0.2015
25651W        W41120  11.520  10.330   0.712 -0.1027 -0.1088  0.1541
25652W        W41121  13.518   0.556   1.465  0.0442  0.1379  0.0525
25653W        W41122   1.215   6.565  15.023 -0.1096  0.1723 -0.0109
25654W        W41123   1.413   5.019  15.607  0.1786 -0.1681  0.1037
25655W        W41124   7.473  13.843  15.991 -0.0083 -0.1218  0.0204
25656W        W41125  17.193  17.633   3.347 -0.1125 -0.0376  0.1411
25657W        W41126   8.486   9.435   3.759 -0.1688  0.3854 -0.0582
25658W        W41127  11.296  16.876   1.242 -0.0282 -0.0225 -0.0959
25659W        W41128   6.136   8.410   4.558 -0.4148  0.1793 -0.3148
25660W        W41129   7.818   8.109   3.504  0.1761  0.1830 -0.1369
25661W        W41130   3.034  12.713   3.046 -0.0877  0.1836 -0.3091
25662W        W41131  13.999  16.229   1.785  0.1066  0.0614  0.3727
25663W        W41132   0.851  16.352  11.711  0.3223  0.0102  0.1145
25664W        W41133  10.612  10.535   3.170 -0.1582 -0.0707  0.0881
25665W        W41134  16.290   0.069   2.192 -0.1595  0.1432  0.1468
25666W        W41135  16.017  17.748  15.851 -0.1407  0.0972 -0.3946
25667W        W41136   6.113   3.698   0.372  0.6328  0.0861 -0.0784
25668W        W41137   4.732   5.190  16.601  0.0124  0.2040 -0.2283
25669W        W41138  12.990   7.824  14.954  0.0810 -0.0223 -0.2260
25670W        W41139   1.095   7.559  14.092 -0.1114 -0.0565 -0.0667
25671W        W41140  13.971   3.916   1.958 -0.0193 -0.2248 -0.0181
25672W        W41141  14.670   1.851  12.033 -0.2016  0.2816  0.0911
25673W        W41142   3.025  10.896   1.628  0.1840 -0.0618 -0.0070
25674W        W41143   5.062   7.803   3.327  0.0970 -0.1102 -0.3608
25675W        W41144  10.228  17.461   4.319  0.0873  0.0961  0.0234
25676W        W41145   5.178   2.019   6.064 -0.2875  0.4636  0.2181
25677W        W41146   8.631  11.618  11.689  0.2512 -0.0975 -0.0879
25678W        W41147  15.768  16.868   2.415  0.1925 -0.0330 -0.0738
25679W        W41148  17.915   8.856   0.733  0.0072  0.0111  0.0153
25680W        W41149  15.186  14.440  13.870 -0.0008  0.2091 -0.0953
25681W        W41150   0.894   8.572   3.338 -0.3977  0.0068 -0.0171
25682W        W41151   4.336  16.700  16.209  0.1620  0.2213  0.0623
25683W        W41152   2.947   4.901   4.311 -0.0829  0.2413 -0.1988
25684W        W41153   5.898   1.541   2.749 -0.4001 -0.2330 -0.1523
25685W        W41154   0.973   0.951   5.365 -0.1403  0.1902 -0.0985
25686W        W41155   4.890   5.395  12.568  0.0096  0.0703  0.0542
25687W        W41156   7.459  17.591  13.917  0.0528  0.0067 -0.1455
25688W        W41157  16.588  14.338   4.774  0.1649 -0.1141 -0.1065
25689W        W41158   2.993   1.531  16.373  0.0345  0.1667  0.2471
25690W        W41159  17.459   2.259   1.491  0.0974  0.4073  0.0763
25691W        W41160  17.855  10.633   4.992  0.1557  0.0225  0.0594
25692W        W41161   5.232  15.733   4.692  0.2534 -0.0818  0.1630
25693W        W41162  14.187  16.356   4.876  0.1374  0.0994 -0.0704
25694W        W41163   8.716  10.809   2.646  0.2773  0.2847 -0.0434
25695W        W41164   5.909  17.395   1.506 -0.2545  0.1049 -0.3116
25696W        W41165   9.080   3.147   1.033 -0.1729 -0.0492 -0.4330
25697W        W41166  13.763   7.293  12.806  0.2096 -0.0384  0.2244
25698W        W41167  15.634   8.781  14.894  0.0250 -0.0579  0.4428
25699W        W41168   1.836  16.424  11.761  0.0646  0.2493 -0.2353
25700W        W41169   5.592  14.919  16.259  0.2738 -0.1312 -0.0477
25701W        W41170  12.158  16.470   4.494  0.2121 -0.1193 -0.1368
25702W        W41171   1.458   5.863   0.437 -0.0569 -0.0077  0.0568
25703W        W41172   4.212   4.511   2.697 -0.0643 -0.0500  0.0723
25704W        W41173   3.295   6.205  11.542  0.0408 -0.1487 -0.0254
25705W        W41174   1.793  15.742  13.976 -0.2029  0.0236 -0.2511
25706W        W41175  16.505   9.561   3.705  0.1473 -0.1597 -0.0478
25707W        W41176  17.236  13.831   0.497 -0.0352  0.0299  0.1578
25708W        W41177   6.966  12.784  12.186 -0.0904 -0.0246 -0.1916
25709W        W41178   9.400  16.780   3.645 -0.3055 -0.0472  0.0428
25710W        W41179  16.667   0.781  11.485 -0.0584 -0.0423  0.0750
25711W        W41180   8.192   1.405   3.893 -0.1750 -0.1396 -0.0706
25712W        W41181   6.268  10.433   2.408  0.1155 -0.0778 -0.0736
25713W        W41182   9.157  11.543  11.660  0.0200  0.0680  0.1556
25714W        W41183   7.050  10.709   3.148 -0.2190  0.3534  0.0509
25715W        W41184  12.013   2.288   5.214 -0.1530  0.1408  0.2388
25716W        W41185   0.080   3.904  14.450  0.4182  0.1034 -0.0061
25717W        W41186  11.702  12.483   3.943 -0.0246  0.2455 -0.1784
25718W        W41187  12.362  17.211   2.922 -0.2236 -0.0291 -0.1658
25719W        W41188   2.408   8.152   3.909  0.5204 -0.3703 -0.0757
25720W        W41189   7.836   4.367   3.760  0.2435  0.0339  0.0177
25721W        W41190  13.109  13.308  14.024  0.2670  0.0978  0.1442
25722W        W41191  16.099   1.904   3.648 -0.0680 -0.0131 -0.1472
25723W        W41192  14.638   6.740   5.092  0.0782 -0.0625  0.0040
25724W        W41193  15.962  12.613   4.242  0.0395 -0.0881 -0.1417
25725W        W41194   9.296  13.430  13.399  0.3422  0.2904 -0.0683
25726W        W41195  10.001  13.294   1.809  0.1876 -0.3117  0.1681
25727W        W41196   1.999   1.370  14.255  0.0670 -0.2168  0.0002
25728W        W41197  16.477  17.143  11.984 -0.1340  0.0080 -0.3437
25729W        W41198  15.683   6.483  12.982 -0.0631  0.1290  0.1148
25730W        W41199  12.838   2.083  13.783 -0.3672  0.0597 -0.0247
25731W        W41200   7.561  15.241   1.655 -0.2429 -0.0738  0.0202
25732W        W41201   1.545   8.435  13.847 -0.3829 -0.3940  0.0432
25733W        W41202  10.825   4.832  13.878  0.2203 -0.2179 -0.0400
25734W        W41203  13.463   8.208  16.078  0.1214 -0.3341 -0.0725
25735W        W41204   7.871   6.211   3.073 -0.3082  0.0547  0.3785
25736W        W41205  11.848   4.019   0.902 -0.0216  0.1367  0.1671
25737W        W41206  15.684   6.042  14.318  0.0577  0.0742  0.0839
25738W        W41207   2.608  14.828  11.829  0.0481 -0.0317 -0.1175
25739W        W41208  17.360  17.293  13.223 -0.1020  0.1371  0.0320
25740W        W41209   7.072   4.874  15.055  0.0600 -0.0761 -0.1181
25741W        W41210  14.890  12.667  15.289 -0.0904 -0.0334 -0.0176
25742W        W41211  16.906  11.108  11.814 -0.2449 -0.1596  0.1197
25743W        W41212  12.592   9.152   0.029  0.0179 -0.0597  0.1201
25744W        W41213   5.592  11.182  14.455  0.2376 -0.1034 -0.1299
25745W        W41214   2.813   9.669  11.154  0.0693  0.0387  0.3179
25746W        W41215  10.385  15.811   6.072  0.4379 -0.1113  0.0658
25747W        W41216  12.686   7.353  15.042  0.0147  0.2140  0.2578
25748W        W41217  12.515  12.505   4.902 -0.3129  0.0134 -0.0440
25749W        W41218   9.942  10.896  15.477  0.2813  0.0005 -0.0667
25750W        W41219  11.885  10.010   4.916  0.1952  0.2471  0.0549
25751W        W41220   9.958  14.474   3.376 -0.0967  0.1472 -0.2936
25752W        W41221   7.322  11.651   2.993 -0.3760  0.1288  0.1234
25753W        W41222  13.301  12.987  11.752 -0.1506 -0.1394  0.2209
25754W        W41223  13.649   2.607   4.939 -0.1361  0.2222  0.0931
25755W        W41224   4.536  10.468   3.942  0.0923  0.1636  0.1881
25756W        W41225  16.944  12.550  12.634 -0.0652 -0.1084  0.1829
25757W        W41226  11.163   1.225   5.735 -0.3508  0.1547 -0.2288
25758W        W41227   9.591  15.171  13.418  0.0710 -0.1870 -0.1467
25759W        W41228   9.493  11.311  12.538 -0.1535  0.3001 -0.1345
25760W        W41229  11.476  11.160   3.052  0.4690  0.2792 -0.0483
25761W        W41230  14.016  15.305   3.078  0.1508 -0.4129 -0.0345
25762W        W41231   0.121   0.720   0.219 -0.1174  0.1033  0.0141
25763W        W41232  16.142  13.743  15.543 -0.1829  0.3942 -0.0470
25764W        W41233   1.137   6.113  15.244  0.1186 -0.0324 -0.1457
25765W        W41234  13.498   9.005   1.275 -0.0140  0.0609 -0.0984
25766W        W41235   8.750   4.966   5.692  0.0095  0.2135  0.1904
25767W        W41236   3.357  16.415  14.852 -0.0243  0.2740 -0.0702
25768W        W41237  11.142   7.715  13.756  0.1280 -0.0058 -0.3792
25769W        W41238  17.054  13.193   2.678  0.2688  0.2351  0.1615
25770W        W41239   1.695   1.237  14.752  0.0048  0.0046  0.1289
25771W        W41240  15.668   3.165   4.253 -0.0026 -0.0058 -0.5145
25772W        W41241   3.125   4.118   2.024 -0.1046 -0.0128 -0.0124
25773W        W41242  16.655   2.578   2.030  0.0219 -0.0555  0.1848
25774W        W41243   0.411   0.015   2.297 -0.0925  0.0854  0.1726
25775W        W41244  11.005   6.420  10.923 -0.2159 -0.0249  0.0708
25776W        W41245  15.484  10.134  16.016  0.1823 -0.0645  0.2555
25777W        W41246   8.159   6.119  10.435  0.0635  0.0797 -0.0307
25778W        W41247  14.688   4.010   0.806  0.0095  0.3351 -0.0621
25779W        W41248   6.985   4.607   2.613  0.1830  0.1846  0.1376
25780W        W41249   7.736  13.419  15.902  0.0201  0.0671 -0.1208
25781W        W41250  13.419  16.891   0.043 -0.0235  0.0593 -0.1240
25782W        W41251   2.329  13.047  14.167 -0.0398 -0.3669  0.2861
25783W        W41252   0.694  12.208  14.217  0.1144  0.0970  0.1952
25784W        W41253   0.544  14.026   1.480  0.0469  0.0414 -0.3887
25785W        W41254   3.486   6.632   0.893 -0.0272  0.0592  0.2476
25786W        W41255   1.695  10.728  14.390  0.1550  0.1190  0.0996
25787W        W41256  12.840  17.588   1.071  0.0083 -0.5871 -0.0771
25788W        W41257   1.913   6.332  13.833  0.2165  0.0040 -0.0256
25789W        W41258   3.532   4.272  12.896  0.0204  0.3767  0.2449
25790W        W41259   6.462   1.822  11.655 -0.2052 -0.1901 -0.0835
25791W        W41260  16.833  14.519  15.415 -0.2739  0.1733 -0.2614
25792W        W41261  11.839   2.417   3.356 -0.2449  0.3398  0.1803
25793W        W41262  13.954   2.741  14.462 -0.3428  0.2756 -0.0040
25794W        W41263   4.208   3.433  12.027 -0.1938  0.0931  0.1189
25795W        W41264   4.565   9.683   0.690  0.0567 -0.0876  0.1095
25796W        W41265  13.333   5.944   0.152  0.0160  0.1081  0.2612
25797W        W41266   2.391   2.991  15.523 -0.0338  0.1019 -0.1656
25798W        W41267   0.908   2.487  11.933 -0.0146 -0.2163 -0.1025
25799W        W41268   6.733   1.039   3.672 -0.2205  0.2816  0.0719
25800W        W41269  12.545  10.028   2.055  0.0536  0.0440  0.1056
25801W        W41270   0.739  17.887  15.777  0.0284  0.1386  0.0523
25802W        W41271   5.565  15.628  12.161 -0.2240  0.0474 -0.0228
25803W        W41272   2.526   7.440  15.648  0.2947  0.0948 -0.2416
25804W        W41273  11.100  12.342  13.989 -0.0165  0.1136  0.0441
25805W        W41274   1.019   5.313   4.887  0.1017 -0.2035  0.2062
25806W        W41275   6.478  12.274  11.071 -0.1652 -0.0819 -0.0449
25807W        W41276  14.079   2.948  13.999  0.1784 -0.0512  0.1619
25808W        W41277   6.931  14.325  15.304  0.3858 -0.1737  0.2534
25809W        W41278   0.080   3.691   2.310  0.2665 -0.1223  0.3993
25810W        W41279  11.472   5.818   2.322 -0.0304 -0.0482  0.2591
25811W        W41280   0.544   3.992  14.596 -0.0669 -0.0377  0.0939
25812W        W41281  15.035  13.899   2.487 -0.1651 -0.2918 -0.0018
25813W        W41282   3.391  14.199   1.900  0.0626 -0.0824  0.0597
25814W        W41283  10.098  17.117   3.936  0.0511  0.1280 -0.0728
25815W        W41284   8.670  17.416  12.925  0.0525 -0.0471  0.1730
25816W        W41285  10.806  16.573  16.019  0.0650  0.0480  0.0740
25817W        W41286  14.572   0.188   5.948 -0.0504 -0.1546  0.0514
25818W        W41287  11.357   3.868  16.205  0.1552  0.0994 -0.2347
25819W        W41288   6.539  17.223  15.442 -0.0645 -0.3024  0.1283
25820W        W41289  16.447   1.010  15.374  0.1819  0.2993 -0.0476
25821W        W41290   1.147   1.169  13.438 -0.1559 -0.1628  0.0067
25822W        W41291  17.616   4.132  15.709 -0.1622 -0.1804  0.0294
25823W        W41292  12.077   7.219   5.197 -0.0668  0.0456  0.2738
25824W        W41293  14.888   9.747  15.522  0.1576  0.1104  0.0299
25825W        W41294   1.296   8.189  15.580  0.1506 -0.1603 -0.2690
25826W        W41295  15.621   7.704  11.272  0.0039  0.1454 -0.5056
25827W        W41296   5.636  14.802   5.207  0.0376 -0.0710  0.4351
25828W        W41297  15.589   2.863  13.295 -0.1200  0.0556  0.2035
25829W        W41298   1.770  14.970   2.167  0.2361 -0.1129 -0.1282
25830W        W41299  12.130   1.280  10.790  0.2104  0.0555 -0.0143
25831W        W41300   7.385  15.101  16.053 -0.0237  0.0220  0.0505
25832W        W41301   5.473   4.928  13.222  0.0711  0.3027 -0.1425
25833W        W41302   8.174  15.398   5.056  0.1579  0.2711 -0.0894
25834W        W41303   9.354   8.040   0.943  0.1369 -0.0771  0.1084
25835W        W41304   0.144  12.741   0.871  0.1114 -0.1049  0.2708
25836W        W41305   3.645   9.933  16.474  0.1380  0.2328 -0.1900
25837W        W41306   8.713   4.483  16.160  0.0294 -0.0915 -0.2786
25838W        W41307  14.461  10.038  16.066 -0.1842  0.2781  0.0501
25839W        W41308   6.676   3.499  13.413 -0.1717  0.2485 -0.1010
25840W        W41309   9.448  12.312  16.204  0.0634 -0.1058 -0.0669
25841W        W41310  17.012  12.197  11.812  0.0346 -0.1157  0.0546
25842W        W41311   2.813   0.196  14.207  0.0239 -0.0684 -0.3964
25843W        W41312   7.205  15.583  15.909 -0.1919 -0.0298 -0.0872
25844W        W41313  10.827   3.324  13.001 -0.0582  0.0138 -0.0594
25845W        W41314   1.317  13.479   3.744  0.0239 -0.0184  0.1396
25846W        W41315  16.784   5.905  12.279  0.1035 -0.2277 -0.0311
25847W        W41316  15.972   1.448  13.981 -0.0114  0.1148 -0.2223
25848W        W41317   7.747   2.617  12.644 -0.0717  0.0878 -0.2302
25849W        W41318  11.094  15.995   1.542 -0.1183 -0.1232  0.0908
25850W        W41319   0.976   4.560  12.222  0.4402 -0.2869 -0.1612
25851W        W41320  12.187   0.616   4.284 -0.0140  0.2561  0.3293
25852W        W41321  10.874  11.467   4.355  0.2026 -0.1573  0.1154
25853W        W41322   9.163  16.069   1.947 -0.0535  0.0597  0.3399
25854W        W41323   5.307  12.805  14.508  0.0298 -0.1426 -0.2099
25855W        W41324   6.965   3.707   1.632 -0.1973 -0.0734 -0.3029
25856W        W41325   5.682  10.717  14.168 -0.0647 -0.1167  0.1192
25857W        W41326   6.965  13.228   3.766  0.1900 -0.0750 -0.0551
25858W        W41327   8.071  16.239  13.847 -0.0662 -0.1777  0.0874
25859W        W41328   0.119   4.551  12.823  0.1495 -0.0415  0.1169
25860W        W41329   6.919  12.170  13.940  0.0824 -0.1523  0.0297
25861W        W41330  13.628  17.622  13.075  0.0089  0.1953 -0.0215
25862W        W41331   2.297   0.520  11.285  0.0138  0.0397  0.0335
25863W        W41332   5.715  16.049  11.828  0.2931  0.0813 -0.2009
25864W        W41333   5.378  17.911  14.167 -0.0207 -0.2933  0.1661
25865W        W41334  12.391  12.595   2.495 -0.1607 -0.1105 -0.0097
25866W        W41335   4.168   4.354  13.877 -0.0892  0.1467 -0.1003
25867W        W41336   6.575   3.783   5.843 -0.1979  0.0801 -0.1806
25868W        W41337   1.292  13.887  11.731 -0.0338 -0.1007 -0.1949
25869W        W41338   2.751   5.351  15.202  0.2438  0.0350  0.0842
25870W        W41339   9.571   7.277   2.449 -0.3821  0.4107 -0.1530
25871W        W41340  12.132  10.221  12.852  0.2278  0.1672 -0.1504
25872W        W41341   7.872   7.521  14.245  0.0003  0.1775  0.0400
25873W        W41342  15.567   9.417  13.251 -0.1193 -0.3016  0.1254
25874W        W41343  17.052  12.203   1.760 -0.2042 -0.2043 -0.2818
25875W        W41344   9.298  12.459   4.664 -0.1600 -0.0194  0.2862
25876W        W41345  11.699   5.669   5.636  0.2131  0.3703  0.2911
25877W        W41346   7.303  12.729  15.412  0.0527 -0.0832  0.0062
25878W        W41347  10.489   6.538   1.800  0.2722 -0.3801 -0.0157
25879W        W41348  13.897  12.125   2.891  0.1802  0.1212  0.2696
25880W        W41349  12.054  10.175   1.775  0.1567 -0.1616 -0.0912
25881W        W41350  16.302   3.947   1.967 -0.0222  0.0530  0.0072
25882W        W41351   1.584   4.636   4.915  0.4365 -0.2171 -0.0882
25883W        W41352   3.921   9.934  12.511 -0.1076  0.1797 -0.0859
25884W        W41353  16.613   6.545  16.464 -0.0229  0.0789 -0.0277
25885W        W41354  15.729  10.210  15.515 -0.0224  0.0468 -0.2671
25886W        W41355  11.667   2.624   5.129 -0.0223  0.0026 -0.0224
25887W        W41356   8.083   6.489  14.880 -0.1440  0.0921  0.0953
25888W        W41357   0.442   3.899   1.214  0.1943  0.0809 -0.0361
25889W        W41358   8.576   5.742   1.450 -0.2191 -0.2415  0.2754
25890W        W41359   8.142  16.047   1.860  0.2589 -0.0807 -0.0838
25891W        W41360   2.115  17.889   0.583  0.4075 -0.1655 -0.0415
25892W        W41361  10.645   4.171  14.340  0.0393 -0.1934 -0.3059
25893W        W41362  12.137  15.976   2.124 -0.0325 -0.0501  0.0144
25894W        W41363  10.596  11.760   6.262 -0.1329  0.0228 -0.0188
25895W        W41364  12.692  17.711  16.157 -0.0878 -0.4562  0.1153
25896W        W41365   6.466  12.884  16.444 -0.2071  0.0658  0.1387
25897W        W41366   9.489   9.935  14.518 -0.2642 -0.1486 -0.1388
25898W        W41367  14.233   3.649   0.203 -0.0783  0.3223 -0.1489
25899W        W41368   6.955  13.670   3.583  0.0392 -0.1708  0.0254
25900W        W41369   4.235   6.423  15.575 -0.1384  0.1736  0.0757
25901W        W41370  17.105   6.395  10.689 -0.0559 -0.1979  0.1923
25902W        W41371   8.123  13.665  12.842 -0.3043  0.0610  0.0365
25903W        W41372   8.998  13.662   1.203 -0.0263  0.0702 -0.0822
25904W        W41373  15.856   7.657  13.300  0.2223 -0.3044  0.0993
25905W        W41374   0.570  12.142   0.448 -0.3173 -0.0598 -0.1009
25906W        W41375   2.190   4.499   0.611  0.3405 -0.1291  0.1328
25907W        W41376   4.315   8.142  15.284  0.1919 -0.2037  0.1884
25908W        W41377   2.188  16.951  14.350  0.0955  0.1896  0.2147
25909W        W41378  10.033  11.515  12.325 -0.1735 -0.1342 -0.0493
25910W        W41379  15.116  17.525  13.512 -0.1696 -0.1916  0.0388
25911W        W41380  13.298  14.663  15.080  0.0639  0.0925 -0.0996
25912W        W41381  13.069  11.793  12.997 -0.0079 -0.2233 -0.1111
25913W        W41382  15.119   3.433   2.963  0.0456  0.0129  0.1040
25914W        W41383  15.741   7.654  11.949  0.0971 -0.1051  0.2990
25915W        W41384   4.712   9.948  12.411  0.2201  0.1071 -0.2040
25916W        W41385   2.613   7.635  14.027  0.0621  0.3704 -0.0312
25917W        W41386   0.632   7.246  15.591 -0.2585 -0.0702  0.0544
25918W        W41387   0.805   0.779   1.775 -0.1917  0.5551  0.0887
25919W        W41388   1.640  15.619   0.103  0.1888 -0.3068  0.5028
25920W        W41389  13.856  14.723   0.305  0.0950  0.0416 -0.2634
25921W        W41390   7.914   1.177  12.669  0.0506  0.3424 -0.1530
25922W        W41391   5.928  16.261  15.462 -0.2889 -0.2059  0.1122
25923W        W41392  11.841   5.956  14.180 -0.3835  0.0817 -0.0441
25924W        W41393   3.046   3.024   1.400  0.0017  0.0309  0.0699
25925W        W41394  14.232  13.539   4.580 -0.0172  0.0839  0.2145
25926W        W41395   6.272   5.626  15.294 -0.2839  0.0844  0.2172
25927W        W41396   7.778  17.250  14.244  0.2469  0.1273  0.2879
25928W        W41397   2.788  15.630   3.284  0.1980  0.1276 -0.2228
25929W        W41398   7.960   9.620   1.686 -0.3003  0.0523  0.1673
25930W        W41399   7.427   1.061  11.760 -0.0249 -0.1909  0.2490
25931W        W41400   0.836  16.081   2.614  0.1295  0.0308  0.1709
25932W        W41401  17.171   9.945  11.879 -0.0582 -0.2349 -0.0817
25933W        W41402  17.014  17.668   0.450  0.0697  0.1303 -0.1066
25934W        W41403   8.228   9.477   1.254 -0.1125 -0.1683  0.0905
25935W        W41404   3.890  10.624   3.217 -0.1439 -0.0666 -0.3380
25936W        W41405   2.491   0.044   3.231 -0.1657  0.0534 -0.0139
25937W        W41406  12.996   6.834  15.302 -0.3474 -0.2880  0.2085
25938W        W41407  11.838  10.379  15.804 -0.0904 -0.1418  0.0302
25939W        W41408  14.383   4.243  11.485  0.4922 -0.0214 -0.1623
25940W        W41409  13.811  15.423   2.665 -0.0999  0.1593  0.1809
25941W        W41410   5.652   2.339   4.649 -0.0139  0.0753  0.1262
25942W        W41411   0.995   0.060   4.748 -0.3269  0.0718 -0.3353
25943W        W41412  13.545  10.997   4.060  0.1354  0.2131  0.0366
25944W        W41413   4.616  15.214  11.497 -0.0512  0.1716  0.0465
25945W        W41414  10.652   4.549  10.391 -0.3622 -0.3171 -0.0135
25946W        W41415   1.899  10.563  15.001  0.1779 -0.1877 -0.0846
25947W        W41416  15.950  14.713  11.544  0.0294  0.4896 -0.0187
25948W        W41417   7.178  17.981   0.539  0.1483 -0.1571 -0.0301
25949W        W41418   9.906  13.025  12.879  0.1049 -0.0247  0.0549
25950W        W41419  15.639  16.309  12.515  0.2042  0.2413  0.1012
25951W        W41420  11.635  17.952   2.022  0.0097 -0.3205  0.1129
25952W        W41421  12.458  16.656   3.162  0.0916 -0.0318  0.0310
25953W        W41422   6.479  11.611   3.161 -0.1105 -0.0458  0.0309
25954W        W41423   5.777  11.572  16.601  0.1769  0.1166 -0.2707
25955W        W41424   8.300   6.748   4.721  0.0675 -0.1596  0.3255
25956W        W41425   1.236   9.859   1.344  0.0664 -0.1586  0.0726
25957W        W41426   5.960  17.379   2.484  0.0247  0.1250  0.1908
25958W        W41427  11.228   9.847   0.703 -0.0003 -0.0060 -0.0565
25959W        W41428   2.306   6.272  15.287 -0.1368 -0.1083  0.2396
25960W        W41429   9.191   1.293   5.701  0.0006  0.0923  0.1321
25961W        W41430  11.035  12.156   2.560 -0.4145 -0.2557  0.1139
25962W        W41431  13.033  14.322   5.801 -0.0080  0.0635 -0.0895
25963W        W41432  11.320  10.083  16.416 -0.0973  0.2537  0.1389
25964W        W41433  15.115   3.866  15.445 -0.1941  0.1440  0.0741
25965W        W41434  17.055   5.426   3.199 -0.2123 -0.1347 -0.0576
25966W        W41435  17.789   7.366   4.026 -0.0485 -0.0109 -0.0889
25967W        W41436   4.390   0.925  15.064  0.0403  0.0391 -0.1884
25968W        W41437  14.404   1.654   5.478  0.0860  0.1803  0.2800
25969W        W41438   4.894   6.817  13.580 -0.2287  0.0352 -0.2661
25970W        W41439   0.585   2.954  14.367  0.1398 -0.1451  0.0815
25971W        W41440  14.194  10.034   5.791  0.0309  0.0758  0.0467
25972W        W41441   4.054   6.798   5.650  0.0695  0.1364 -0.2598
25973W        W41442   0.500  16.143   2.110  0.1349 -0.0048 -0.0007
25974W        W41443   8.020   2.566  13.101  0.1469 -0.1793  0.0897
25975W        W41444   3.962  15.245   5.264 -0.0900  0.1558  0.0619
25976W        W41445   8.504  16.122   4.486  0.1923  0.0567  0.3404
25977W        W41446   5.950  14.655   4.712 -0.2027 -0.3085  0.1674
25978W        W41447   8.065   5.489   0.825  0.1937 -0.4257 -0.0016
25979W        W41448   9.846   8.605   2.606  0.1885  0.0478 -0.1356
25980W        W41449  11.624  15.629  16.356  0.2898  0.0099 -0.0577
25981W        W41450  17.200   8.751  11.118  0.2589 -0.1103 -0.1657
25982W        W41451   4.967   7.109  14.017  0.1596  0.3058  0.1608
25983W        W41452  12.699  11.236  15.636 -0.0386  0.0365 -0.0095
25984W        W41453  12.044   4.050  13.532 -0.1411 -0.2100  0.0920
25985W        W41454  17.711  14.335   6.091  0.0347  0.0833  0.0041
25986W        W41455   0.798   6.032  14.004  0.2268  0.2410  0.1297
25987W        W41456  11.017   6.943  13.659  0.0775 -0.0184 -0.1341
25988W        W41457   0.802   3.215   2.799  0.4341 -0.1963  0.0062
25989W        W41458  17.154   1.071  14.819 -0.2203 -0.0608  0.0579
25990W        W41459  10.040  10.136   3.638  0.1739  0.1059  0.1216
25991W        W41460  13.856  11.858  13.761  0.4407  0.3000 -0.0443
25992W        W41461  16.033   8.938  10.613 -0.0820 -0.0424  0.0413
25993W        W41462   5.211   0.664  11.991 -0.3789  0.1658 -0.0183
25994W        W41463   2.405   1.574  15.254 -0.0628  0.3838 -0.2476
25995W        W41464   1.695   1.183  15.696  0.0797 -0.0630  0.1271
25996W        W41465   4.763   2.480  16.140  0.0037 -0.1005  0.0355
25997W        W41466  14.069  15.125   0.888 -0.1630 -0.2389  0.2198
25998W        W41467  10.984  10.336   4.913  0.4546  0.0352  0.2539
25999W        W41468   5.335  10.633   4.664  0.1093  0.0344 -0.2349
26000W        W41469   5.877   7.464  14.153 -0.2036 -0.2999  0.1240
26001W        W41470   0.173   9.139  16.476  0.1393  0.0076 -0.0389
26002W        W41471  14.411   8.400   0.996  0.1818  0.0553 -0.0612
26003W        W41472  10.897  14.018  12.220 -0.3879 -0.1828  0.0385
26004W        W41473   7.226  11.478   0.446  0.0505  0.0620  0.2875
26005W        W41474   8.176   3.924  16.299 -0.0576  0.1735  0.0458
26006W        W41475   8.890   7.062  15.146 -0.3368  0.0871 -0.2419
26007W        W41476  12.637   4.953  12.037  0.0104  0.0773 -0.2623
26008W        W41477   1.895   1.286  15.252  0.1425  0.1076 -0.1632
26009W        W41478  10.198   0.909  16.288 -0.3854  0.0962 -0.1293
26010W        W41479  17.806  10.806  10.979 -0.0805  0.0836 -0.2438
26011W        W41480   2.248   3.574  13.271 -0.1701  0.0447 -0.0022
26012W        W41481   1.776  17.540  12.060 -0.2405  0.2965  0.4295
26013W        W41482   6.063  14.042  16.325  0.0667  0.4487 -0.0478
26014W        W41483  16.083   2.762  16.474 -0.3890  0.0020 -0.0736
26015W        W41484   2.099   4.042   0.980 -0.0372  0.0286 -0.1778
26016W        W41485  16.949   9.735   0.812 -0.0633 -0.0708 -0.0254
26017W        W41486   0.956   3.675   2.576 -0.1184 -0.2630 -0.0283
26018W        W41487   1.160   0.138  15.525 -0.0825 -0.1224 -0.1347
26019W        W41488  16.768   2.656   3.455  0.0844  0.2203 -0.2712
26020W        W41489   5.550   5.707  13.897 -0.0751 -0.0158  0.0989
26021W        W41490   1.391   0.056  12.747  0.0013  0.3009 -0.3287
26022W        W41491  14.549  16.135   3.943 -0.1821 -0.0449  0.0402
26023W        W41492   9.893   4.152   5.223 -0.1785  0.0818 -0.2215
26024W        W41493  14.167  10.600  12.814 -0.1470 -0.0728 -0.0636
26025W        W41494   7.689   1.381  16.373  0.0070 -0.0632  0.1368
26026W        W41495  15.868   5.844   1.266 -0.2230 -0.0125 -0.1430
26027W        W41496   2.555   4.268   3.707  0.2679  0.1524 -0.0814
26028W        W41497  12.493  11.157   5.979 -0.2821  0.3396  0.3127
26029W        W41498   1.141   6.556   1.730  0.3738  0.1897  0.0972
26030W        W41499   6.087   9.293  12.234 -0.2140  0.0379  0.0231
26031W        W41500  11.014   3.702  16.504 -0.1065  0.0405 -0.1472
26032W        W41501   1.319   4.469   5.591 -0.1568 -0.3193  0.0102
26033W        W41502   0.132  13.439   4.233  0.4588  0.0198 -0.0872
26034W        W41503   3.686  13.734   1.186 -0.0682 -0.3740 -0.0428
26035W        W41504   7.514  15.032   0.715  0.2455  0.2219 -0.0557
26036W        W41505  13.040   7.134   1.486 -0.1849 -0.4354 -0.0784
26037W        W41506  16.295   8.992  15.707 -0.0818 -0.0102  0.1794
26038W        W41507  15.111  12.466  11.813 -0.0644 -0.1854 -0.3380
26039W        W41508  16.950  15.916   6.845  0.2621  0.1618  0.1881
26040W        W41509   5.922   2.359   2.234  0.2629  0.4243  0.1151
26041W        W41510   5.397   6.605  14.844 -0.2352  0.1559  0.3485
26042W        W41511  14.577  16.255  13.425  0.2266  0.0677 -0.2361
26043W        W41512   0.064   6.536  11.674 -0.1297  0.3221 -0.1719
26044W        W41513  12.341  11.291  12.137 -0.1799 -0.0395 -0.1620
26045W        W41514   0.654   8.991   3.479  0.2151 -0.0603  0.4925
26046W        W41515   5.095  11.524   2.665  0.2655 -0.0747 -0.0501
26047W        W41516  17.624  16.739  12.855  0.0967  0.1629  0.2523
26048W        W41517   0.085  16.915  12.637 -0.0165  0.2160  0.1236
26049W        W41518  12.554   3.769   4.569  0.1174 -0.1348 -0.1885
26050W        W41519  15.264   5.764  15.503  0.3860  0.0121  0.0082
26051W        W41520   2.072   5.642  15.436  0.0324  0.3666 -0.1577
26052W        W41521  15.412  12.797  12.112  0.2087 -0.0788 -0.0620
26053W        W41522  12.786   0.319   4.711 -0.0140 -0.1311  0.0860
26054W        W41523   6.149   2.509  13.229 -0.1680  0.3835 -0.1202
26055W        W41524  10.518   9.704  16.604 -0.0653 -0.2171 -0.0130
26056W        W41525  11.650   8.844  11.296 -0.2629  0.0754 -0.3464
26057W        W41526  16.231  10.663  12.192  0.0853  0.2933 -0.1780
26058W        W41527   1.731  17.044   0.337  0.0865  0.0851  0.2063
26059W        W41528  10.496   9.830  16.063  0.0021  0.0953 -0.2677
26060W        W41529   5.680  11.324   4.639  0.2004  0.0827 -0.1073
26061W        W41530  15.721   7.717   4.859 -0.1442 -0.0390  0.1940
26062W        W41531  11.546   8.348  11.505  0.2949  0.1268 -0.1188
26063W        W41532   2.719  14.293   2.641 -0.1013  0.3607  0.3956
26064W        W41533  14.835  10.397   4.675  0.0270  0.1935  0.1726
26065W        W41534   9.240   9.910   3.010  0.1321 -0.0422  0.5188
26066W        W41535  10.571   7.117  13.660  0.2336  0.0639 -0.2103
26067W        W41536  10.087   1.867  13.836 -0.2443 -0.2182  0.1273
26068W        W41537   1.294  17.608  12.924 -0.1628  0.1129  0.3824
26069W        W41538   9.219   8.019   1.776 -0.0797  0.1769 -0.2249
26070W        W41539  11.129   8.718   4.673 -0.1165  0.2170  0.0330
26071W        W41540  10.981   2.848  12.313 -0.0625  0.2367 -0.2040
26072W        W41541  10.280  15.943  16.526  0.1558 -0.2542  0.0933
26073W        W41542  15.027  14.885  12.465 -0.2254 -0.0071 -0.0699
26074W        W41543   4.687   6.560  14.107 -0.0538 -0.2078 -0.0951
26075W        W41544  15.950   6.205   3.265 -0.1497  0.1419  0.2991
26076W        W41545   4.521   2.907   0.512  0.0226  0.0967  0.0947
26077W        W41546  11.949  17.708   0.755  0.0460  0.1744  0.2685
26078W        W41547   6.842   6.727  14.898  0.0853 -0.0735  0.1351
26079W        W41548  17.039   8.360   2.408 -0.2849 -0.2218  0.1077
26080W        W41549   2.993   2.837  13.994  0.2509  0.0500 -0.1030
26081W        W41550   0.555  14.144  14.170  0.1226  0.2844 -0.0964
26082W        W41551   1.667   2.996   3.493 -0.2577 -0.0163  0.1758
26083W        W41552   0.858   8.123  13.398  0.2706  0.0778 -0.0507
26084W        W41553  13.080   7.746  13.711  0.1496 -0.1087 -0.1935
26085W        W41554   6.632   0.268  12.856  0.2782 -0.1642  0.1165
26086W        W41555   9.747  11.164  13.724  0.1473  0.2858  0.1810
26087W        W41556   4.701   6.747  10.212 -0.3231  0.2872  0.1276
26088W        W41557  11.621  14.658   0.354  0.0450  0.1606  0.0367
26089W        W41558   8.383   6.183  15.190 -0.1242 -0.0952  0.3494
26090W        W41559   9.392   0.238   4.881  0.2659 -0.2151 -0.6023
26091W        W41560   6.834  10.342  12.389  0.2216  0.0703 -0.2137
26092W        W41561   5.841  10.524   2.172  0.0508  0.0113  0.1349
26093W        W41562  14.807   3.766   3.255  0.2996  0.2779 -0.0853
26094W        W41563  13.303   2.706   0.770  0.2825 -0.4242 -0.0877
26095W        W41564   8.277   3.742  13.576 -0.1122 -0.1614 -0.0819
26096W        W41565  10.661  13.843   5.819  0.2543  0.1537 -0.0055
26097W        W41566   8.978  13.342   3.401  0.0554  0.3020  0.1773
26098W        W41567   5.866  11.506   5.246  0.2660 -0.0839  0.1103
26099W        W41568   5.657  12.814   2.863 -0.0470  0.0377 -0.0457
26100W        W41569  13.622   4.791   4.410 -0.0897  0.0693 -0.1037
26101W        W41570   7.690   0.980   5.810 -0.2886  0.0250  0.0722
26102W        W41571   4.553   9.557  11.396  0.2376 -0.0108  0.0070
26103W        W41572  17.590  16.898  15.316 -0.2874 -0.2233 -0.1893
26104W        W41573  10.997   5.028   1.424  0.0846  0.0880  0.1626
26105W        W41574   0.082   4.629  13.421  0.0467  0.1152 -0.1639
26106W        W41575   0.820   2.744  13.956  0.0428  0.3273 -0.0000
26107W        W41576   4.151  16.205   0.855 -0.1206  0.0194  0.0212
26108W        W41577  10.201   7.573  14.622 -0.3218  0.2886  0.2856
26109W        W41578   0.893   0.941  13.824  0.2700  0.0543 -0.0025
26110W        W41579  14.115   4.858   4.304  0.1860  0.0422  0.0931
26111W        W41580   6.258  14.862   0.254 -0.1319 -0.1312 -0.0811
26112W        W41581  10.326   0.204  12.324  0.0145 -0.0140  0.1352
26113W        W41582   3.219  15.870   5.336  0.1315 -0.1289 -0.1455
26114W        W41583   6.080   5.559   4.595  0.2533  0.1251  0.1248
26115W        W41584  12.446   0.412  16.586 -0.1728  0.4598 -0.1547
26116W        W41585  16.791  10.615  12.020 -0.2237 -0.2201 -0.0655
26117W        W41586   4.640  17.415  12.746 -0.3888  0.5056 -0.2317
26118W        W41587   7.514   1.943  11.080  0.1935 -0.0293  0.3922
26119W        W41588  12.743   6.929  12.584 -0.1720 -0.1577  0.0024
26120W        W41589  16.846  13.043  14.718 -0.0878 -0.4028 -0.0476
26121W        W41590   9.859   6.702  15.185 -0.0100  0.1930  0.2430
26122W        W41591   2.472  15.445   0.431 -0.3683 -0.3123  0.1282
26123W        W41592   9.008  14.864   3.330 -0.0605 -0.1808  0.0953
26124W        W41593  14.412   8.400  15.700 -0.2029  0.0228  0.3587
26125W        W41594   3.157  10.194  16.391 -0.0837  0.1313  0.2274
26126W        W41595  15.265  15.280  11.897 -0.2599  0.5207  0.1633
26127W        W41596   1.871  14.670  12.380 -0.0192 -0.1912  0.0010
26128W        W41597   9.555   8.115  15.172  0.2982  0.0191 -0.3645
26129W        W41598   0.787  13.938   4.160  0.1141 -0.0084  0.0050
26130W        W41599  10.700   1.436   0.666 -0.1480  0.2495  0.0956
26131W        W41600   9.093   3.501  16.050 -0.3153 -0.2781  0.1531
26132W        W41601   6.426  14.137  12.469  0.0202 -0.1983  0.3137
26133W        W41602   6.991  15.733  12.517 -0.1627  0.0056 -0.1170
26134W        W41603   8.459  14.779  14.116  0.2551 -0.2057 -0.1986
26135W        W41604  16.933  17.209   0.693 -0.0485 -0.1071 -0.2513
26136W        W41605  11.730   2.560  12.775 -0.2492 -0.1594 -0.1460
26137W        W41606  13.978  13.651   5.381  0.1235 -0.1292 -0.0462
26138W        W41607  10.769  16.781  15.546 -0.0283 -0.0403 -0.0485
26139W        W41608  15.181   7.393  11.539 -0.3325  0.3099 -0.0691
26140W        W41609   3.560  10.187   3.258 -0.1355  0.1425 -0.0824
26141W        W41610  14.440   8.457  14.335  0.2373  0.0316 -0.2990
26142W        W41611   6.880  17.551  13.517 -0.0137  0.0613  0.0172
26143W        W41612   7.526   3.451   4.141  0.1035 -0.4634  0.0222
26144W        W41613   5.832  17.081  16.049  0.2128 -0.0850  0.2816
26145W        W41614   6.025   4.684   0.870 -0.1150 -0.0554  0.0006
26146W        W41615  11.271   1.816   5.006 -0.1761  0.1775 -0.0768
26147W        W41616  13.741   8.729   1.605  0.2595 -0.1639  0.0034
26148W        W41617  16.613  13.151   3.976 -0.1560  0.1005  0.0172
26149W        W41618  11.429  17.564  15.384  0.0942  0.2794 -0.1939
26150W        W41619  14.572  11.882   4.824 -0.0652 -0.0573 -0.4181
26151W        W41620  16.047   4.197  13.916 -0.0572  0.0010  0.0012
26152W        W41621  10.449   3.026  12.311  0.1283 -0.1610  0.2851
26153W        W41622  15.591   3.386   2.913 -0.1867  0.1060  0.0407
26154W        W41623  14.138   8.353   2.472 -0.0841 -0.2972 -0.0759
26155W        W41624   6.233   5.267  13.257 -0.1147 -0.0452  0.0501
26156W        W41625  10.220   2.399  16.395  0.2324 -0.1779 -0.0545
26157W        W41626   1.694  17.239  11.025  0.0857  0.0660  0.1063
26158W        W41627  12.588   6.014   3.844  0.0030 -0.1523 -0.1211
26159W        W41628  16.966  13.093  12.697  0.0020 -0.3717  0.3351
26160W        W41629   4.143  15.316  15.706 -0.2552 -0.1450  0.2057
26161W        W41630  14.536  12.249  13.666 -0.0040  0.2515 -0.1724
26162W        W41631  17.189   4.071  11.791 -0.1172 -0.1209 -0.4414
26163W        W41632  13.073  12.079   3.803 -0.0698 -0.1017 -0.2531
26164W        W41633  16.400   5.525  13.902  0.1382 -0.1547  0.3186
26165W        W41634   4.194   2.969   3.784  0.0305 -0.0118  0.0323
26166W        W41635   9.855  13.006   5.005 -0.1935  0.3167 -0.3172
26167W        W41636   6.047  15.655   3.833  0.0027 -0.0280  0.0687
26168W        W41637   3.215  11.563   6.033  0.2062  0.1188 -0.0638
26169W        W41638  10.195   6.527  12.063  0.0353  0.0539 -0.0829
26170W        W41639   3.908  12.269   3.584 -0.2517  0.1403  0.1757
26171W        W41640   3.440   6.513  13.648  0.0203 -0.0789  0.0001
26172W        W41641  17.148   1.862  16.558 -0.0368 -0.2043 -0.1328
26173W        W41642   7.625  16.848   6.280 -0.0044  0.0926 -0.1434
26174W        W41643   0.098  13.095  14.794  0.0888  0.1102 -0.0413
26175W        W41644  14.875  13.354   0.676  0.1068  0.1006  0.1534
26176W        W41645   2.852  16.083  11.744  0.0068 -0.1790 -0.0868
26177W        W41646  11.715  16.929   3.673  0.0897  0.0104  0.1587
26178W        W41647   0.515  12.344  12.527 -0.1526 -0.3291 -0.2394
26179W        W41648  11.409   7.631  12.671  0.2127 -0.1709  0.1890
26180W        W41649   4.108  13.279  16.422  0.1107  0.1738  0.0214
26181W        W41650  17.055   5.732  12.640 -0.0401  0.0498 -0.2457
26182W        W41651  11.580   7.583  15.046  0.1935 -0.1346  0.1137
26183W        W41652   6.892   1.588   4.752  0.0947 -0.0089 -0.0532
26184W        W41653  12.507   3.535   3.540  0.0518 -0.0463  0.1353
26185W        W41654   7.592  14.411   3.002  0.1850 -0.0338  0.1256
26186W        W41655   1.538   5.354  14.797  0.0299  0.3468 -0.1450
26187W        W41656  11.661   4.709  13.882 -0.0350 -0.0254  0.2077
26188W        W41657   4.241   2.202   3.948  0.0520 -0.1644  0.2409
26189W        W41658   7.490   9.983  12.545  0.3064  0.3078  0.0226
26190W        W41659  13.691   2.157  12.643 -0.1075  0.0921 -0.1739
26191W        W41660   1.803   4.337  15.747 -0.0578 -0.1493  0.1111
26192W        W41661   8.432   9.063  14.479  0.0533 -0.2439 -0.3647
26193W        W41662   0.732   3.298   0.636  0.1094  0.4417  0.2662
26194W        W41663  17.412   5.464  12.827 -0.2627 -0.0190 -0.1019
26195W        W41664   6.235  10.384   2.896 -0.5710 -0.0462  0.0902
26196W        W41665  14.344   2.334   4.377 -0.0410 -0.3234  0.1169
26197W        W41666  10.856  13.960   2.714 -0.4198  0.3780 -0.0881
26198W        W41667  14.768   9.621   2.202  0.1519 -0.4164 -0.1348
26199W        W41668   4.896  13.666   0.377  0.0267 -0.2450  0.0764
26200W        W41669  16.599  11.419   2.796 -0.2011  0.0725 -0.1195
26201W        W41670   6.573   6.713   1.832  0.2234 -0.3293  0.0589
26202W        W41671   7.808  13.138   3.874  0.1664  0.0694 -0.0167
26203W        W41672  17.413  12.765   6.244  0.2360  0.0854 -0.0155
26204W        W41673  13.768   8.650  12.997  0.1528 -0.0902 -0.1628
26205W        W41674   0.966  13.013   2.074 -0.2675  0.1840 -0.1465
26206W        W41675  13.084   6.571  14.684 -0.1562  0.0537  0.2529
26207W        W41676   8.891   3.330   5.747  0.1403 -0.1307  0.2797
26208W        W41677  13.862   1.260  12.399  0.2564 -0.0696 -0.0369
26209W        W41678   2.956   5.447  11.018 -0.1347 -0.1424 -0.0725
26210W        W41679   4.784  12.015  12.674 -0.0821  0.0036 -0.1296
26211W        W41680   6.317  13.576  11.667  0.2225 -0.2377 -0.2334
26212W        W41681  12.062   4.305  13.052  0.2392  0.0419  0.1146
26213W        W41682  13.380   8.655  12.620 -0.1587 -0.0520  0.0447
26214W        W41683   8.986   9.250   3.971 -0.1963 -0.1507  0.0160
26215W        W41684   5.628  17.723   2.339 -0.2027 -0.2553  0.1221
26216W        W41685  15.195   3.452  11.158  0.0035  0.1151 -0.1190
26217W        W41686  13.102   2.758  12.702 -0.0932  0.0806 -0.2017
26218W        W41687   6.080   9.323  15.198  0.1800  0.0451 -0.0023
26219W        W41688   9.034   3.461   1.996  0.0855 -0.1169  0.1833
26220W        W41689  12.438   5.456   5.772 -0.1433 -0.2620  0.1139
26221W        W41690   5.999  10.690  15.347 -0.0931 -0.4775 -0.1032
26222W        W41691  10.712  12.745  13.927 -0.2277  0.2238  0.0803
26223W        W41692   3.958  14.846  11.132 -0.2596  0.1619 -0.4556
26224W        W41693  11.713   0.554  14.858  0.0565  0.1172 -0.0074
26225W        W41694   0.404   8.335  10.693 -0.0951  0.2116 -0.0066
26226W        W41695   7.267  11.982  11.749  0.1921 -0.0980  0.2259
26227W        W41696   4.885   0.901   5.077 -0.0581 -0.0197 -0.1829
26228W        W41697  14.712   0.529   2.914  0.0504 -0.0174  0.0235
26229W        W41698  10.077  15.998  15.635 -0.0694  0.0627  0.0718
26230W        W41699  17.084   6.608  13.688 -0.0898  0.0497 -0.0634
26231W        W41700   1.865   3.172  10.732 -0.2534 -0.1001  0.0314
26232W        W41701   5.816   5.206   0.776  0.0649  0.1345 -0.0601
26233W        W41702   4.806   4.077  15.645  0.0172  0.1094 -0.3029
26234W        W41703   7.986  14.042  16.103  0.1301  0.2071 -0.0760
26235W        W41704   9.834   1.974  15.607  0.2141  0.1976  0.1045
26236W        W41705  12.262   4.794  16.515  0.1760  0.1053  0.0274
26237W        W41706  11.414   5.567  11.881 -0.0610 -0.0453  0.0682
26238W        W41707  11.108  15.069   1.626  0.0019 -0.1778  0.1313
26239W        W41708  10.601  10.518  11.491  0.2104  0.2321  0.1123
26240W        W41709  15.820   4.882  16.459 -0.1107 -0.2799  0.1205
26241W        W41710   9.583  15.448   3.550  0.1087  0.1414 -0.0193
26242W        W41711   2.824  11.135  13.905 -0.0814 -0.0211  0.3414
26243W        W41712   1.392  14.743   6.020  0.2132  0.1390  0.0004
26244W        W41713   4.237   9.144  11.467 -0.5081 -0.1749 -0.0145
26245W        W41714  14.638  12.738  11.213  0.1393  0.0369 -0.0221
26246W        W41715  15.502   4.515  12.915  0.1611  0.1082 -0.1777
26247W        W41716   9.405  12.715  13.795 -0.2113  0.1723 -0.1314
26248W        W41717  12.139  16.431   3.593 -0.1855  0.1793  0.3192
26249W        W41718   4.748  12.174  11.638 -0.1897 -0.0177  0.1756
26250W        W41719   0.539   1.181  11.576 -0.0393  0.1154 -0.2936
26251W        W41720  17.554   9.623   1.759  0.0086  0.0596  0.1149
26252W        W41721   4.736   0.765  11.203 -0.3459  0.0326  0.0216
26253W        W41722  10.901   9.681   1.356  0.1357  0.2625  0.1774
26254W        W41723   6.170   3.875   3.702 -0.1309  0.3251 -0.1710
26255W        W41724  14.468   6.058  15.762  0.1560  0.0622 -0.1422
26256W        W41725  10.257   8.579   2.888 -0.4426  0.1692 -0.0087
26257W        W41726  11.240  15.387   2.180 -0.0268  0.1683 -0.0191
26258W        W41727  14.344   4.473  13.792 -0.3041 -0.1085 -0.1498
26259W        W41728   7.042   1.244  15.738  0.1006  0.0952 -0.0659
26260W        W41729  10.364  17.459   2.304 -0.3649  0.0693 -0.1048
26261W        W41730  11.223  13.438  16.297  0.1508 -0.0652 -0.0536
26262W        W41731   7.400  14.862   2.938  0.0727  0.2528 -0.0964
26263W        W41732   8.979  10.414  12.576  0.1334  0.0669  0.1080
26264W        W41733   9.339   2.978   4.119 -0.1335  0.1406  0.1743
26265W        W41734   9.592   6.382   1.395 -0.1185 -0.1087  0.1350
26266W        W41735   8.046   0.914   3.846 -0.0685  0.0866 -0.0730
26267W        W41736  17.535  16.959  14.157  0.0804 -0.1347 -0.1120
26268W        W41737   5.279   3.653  15.640  0.1199 -0.3224  0.1088
26269W        W41738  14.742  17.711  15.744  0.3541  0.0003 -0.1289
26270W        W41739   0.859  16.882   2.767 -0.0980  0.0223  0.0172
26271W        W41740  10.723   1.554   2.986  0.3115  0.0804  0.0647
26272W        W41741  12.219  16.438   1.308  0.1498 -0.0411 -0.0316
26273W        W41742   6.144   8.113   0.820  0.2601  0.1456  0.4746
26274W        W41743   6.075  15.481   0.352  0.1921 -0.0976 -0.2763
26275W        W41744   1.689  15.980  15.930 -0.0422  0.2662  0.1234
26276W        W41745   2.804  12.604  11.568 -0.0842  0.1544 -0.2080
26277W        W41746   1.286  14.804   1.460  0.0587 -0.2711 -0.2952
26278W        W41747  13.756  10.501  16.096  0.1889 -0.4958 -0.2260
26279W        W41748  10.728   8.228  16.501  0.0974  0.2070 -0.0633
26280W        W41749   6.009   8.600  11.376 -0.1531  0.1832 -0.1200
26281W        W41750  17.028   7.245   1.231 -0.0453 -0.0780  0.3152
26282W        W41751  12.263   7.045   3.991 -0.0582 -0.2034  0.2411
26283W        W41752  15.009  12.437   3.639  0.2313 -0.1608  0.0958
26284W        W41753   9.295  11.348  13.501  0.0656 -0.1037 -0.1697
26285W        W41754  11.201   6.538  16.356 -0.0088  0.0455 -0.2531
26286W        W41755   5.228  17.894   0.326  0.0840 -0.0564 -0.0217
26287W        W41756   0.202   4.017   0.450 -0.0014  0.5071 -0.0501
26288W        W41757   0.329   0.340  14.822  0.2572  0.0463 -0.1179
26289W        W41758  10.523  14.625  15.547 -0.2996 -0.1329  0.1398
26290W        W41759  10.522   6.475  14.464 -0.0899 -0.1708  0.0787
26291W        W41760   3.916   5.063  16.073 -0.1836  0.0035 -0.0863
26292W        W41761   4.482   4.679   5.304  0.1351  0.0331 -0.1526
26293W        W41762   0.984   7.954  14.874  0.1077 -0.3011  0.0659
26294W        W41763  14.308  15.912  16.425 -0.2241 -0.1698  0.0093
26295W        W41764  13.270   7.635  16.383  0.3315  0.0609 -0.4154
26296W        W41765   6.458  11.310  11.474 -0.2790  0.2778 -0.1647
26297W        W41766  15.919  13.962  14.178 -0.0599 -0.0477  0.2174
26298W        W41767  14.005   1.241  15.783  0.1434 -0.2379 -0.1857
26299W        W41768   3.814   6.330  13.878  0.3350  0.2177  0.2395
26300W        W41769  15.530  11.099   0.978 -0.0463  0.2252 -0.0251
26301W        W41770   7.032   0.867   0.108  0.0213  0.0851 -0.1307
26302W        W41771   1.836   9.605   4.729 -0.4887 -0.0230 -0.1212
26303W        W41772   2.798   1.743   0.741  0.1950 -0.1066  0.2492
26304W        W41773  13.095   9.490  15.256  0.1902  0.2772 -0.0042
26305W        W41774   8.833  12.853   4.864 -0.0274 -0.1729 -0.0522
26306W        W41775   2.639   8.751   4.316 -0.0859 -0.1931  0.0290
26307W        W41776   6.567   1.715  15.852 -0.0105 -0.0730 -0.4923
26308W        W41777   2.184  12.816   3.825  0.0585 -0.1405 -0.0599
26309W        W41778  15.708   4.362  11.622 -0.0062 -0.2771  0.1214
26310W        W41779   0.596  13.647  11.771 -0.0602 -0.1613 -0.4046
26311W        W41780   2.404  11.323   2.759 -0.2543  0.2898  0.0512
26312W        W41781  14.208  11.725   3.188 -0.0065  0.0469  0.1895
26313W        W41782   3.294  13.948   0.455 -0.0357  0.0176 -0.1189
26314W        W41783   2.133   3.377   4.871  0.0457  0.0119 -0.1780
26315W        W41784  13.686   0.584   2.642 -0.2459  0.0614 -0.2744
26316W        W41785   4.868   1.365   3.962  0.1319 -0.1412  0.2099
26317W        W41786  11.117   6.905  15.990 -0.0348 -0.2396 -0.3431
26318W        W41787   1.346   2.233  12.121 -0.2179  0.2412  0.1570
26319W        W41788  15.010  11.857  11.270 -0.0713 -0.1009 -0.2150
26320W        W41789   4.169   7.887  16.062 -0.2910  0.1076  0.0055
26321W        W41790  12.894  10.499   2.123  0.0097  0.1922 -0.0418
26322W        W41791  10.470  11.811   4.487 -0.0573 -0.0692 -0.1285
26323W        W41792   0.479  13.173   1.049  0.0906  0.2353 -0.2560
26324W        W41793   7.463   0.406   1.288 -0.0282  0.1073  0.1714
26325W        W41794  15.171   3.768   0.605  0.1211 -0.0107  0.2381
26326W        W41795   5.102  14.559  15.746 -0.2360  0.0344  0.1096
26327W        W41796   3.837   5.819   2.754  0.0543  0.0763 -0.0286
26328W        W41797   8.731  11.397   1.401  0.1375 -0.3581 -0.1199
26329W        W41798   2.218   3.576   2.350  0.3179  0.1029 -0.0398
26330W        W41799  10.150   2.746  13.676 -0.1936  0.0659 -0.5225
26331W        W41800   1.611   6.126  13.483 -0.0560 -0.0031 -0.0491
26332W        W41801   6.379   7.099   3.538  0.0693 -0.0406  0.2211
26333W        W41802   7.485   2.384  16.288  0.1229  0.0983  0.2203
26334W        W41803   9.374  16.476   3.166 -0.1376  0.2777 -0.1046
26335W        W41804   9.958  11.728  14.865  0.0595  0.0637  0.1451
26336W        W41805  16.615   4.104   0.968 -0.0811  0.2005  0.0139
26337W        W41806  14.495   2.904  11.630  0.2257 -0.2791  0.0267
26338W        W41807   3.440   1.343  11.571 -0.1272 -0.2153  0.1703
26339W        W41808  12.670  17.408  14.361  0.0852  0.2128 -0.1304
26340W        W41809  12.637   4.803   3.081 -0.2013 -0.1786  0.0072
26341W        W41810   5.430  15.815   2.004  0.2819  0.0634 -0.2183
26342W        W41811   3.057  12.205   0.002 -0.0128  0.2242 -0.2865
26343W        W41812  10.569   6.236  13.982  0.4228  0.0867 -0.0147
26344W        W41813   7.081   2.776  12.532  0.1708 -0.0775 -0.0813
26345W        W41814   5.873   7.272  12.313  0.1185  0.1028  0.2644
26346W        W41815   2.263   3.037   0.562 -0.1613  0.0082 -0.1111
26347W        W41816  16.218  17.789  12.498  0.0373 -0.1949 -0.1034
26348W        W41817   7.152   6.348   2.389  0.2561  0.0357 -0.3009
26349W        W41818  15.655   1.926  12.991 -0.1853  0.1195 -0.0271
26350W        W41819   2.377   9.127  10.593  0.2362  0.1391 -0.0941
26351W        W41820  17.581  10.889   2.038  0.0755  0.4380  0.2335
26352W        W41821   1.359   5.950   0.930 -0.1126 -0.0732 -0.1925
26353W        W41822  12.674   5.002  15.291 -0.2688  0.0331  0.2042
26354W        W41823  11.158   7.330   3.190  0.1121 -0.0865 -0.0225
26355W        W41824  13.827   8.976  14.488  0.1589 -0.0062  0.0983
26356W        W41825   0.637   2.408  13.542  0.1598  0.3462 -0.0479
26357W        W41826  12.876   3.436   6.186  0.1696  0.3650  0.2177
26358W        W41827   2.638   1.440   1.127  0.0650 -0.0736  0.0448
26359W        W41828  13.250   1.839   4.576 -0.1110  0.3944  0.5294
26360W        W41829   7.706  17.936  12.075  0.1928 -0.0439 -0.0133
26361W        W41830  16.904  16.144  11.354  0.1174  0.2472 -0.0409
26362W        W41831   4.619  15.555   1.818  0.2023  0.0375 -0.0118
26363W        W41832   8.875   7.809   0.922 -0.2650 -0.0932 -0.2505
26364W        W41833   7.545   5.570  13.937  0.2778 -0.1402  0.2357
26365W        W41834  10.028  13.708   0.896  0.0838 -0.1242 -0.1484
26366W        W41835  15.253   9.084   0.024  0.1768  0.0091 -0.0809
26367W        W41836   9.363   5.032  14.100 -0.1753  0.1179 -0.0833
26368W        W41837  14.566  15.125   1.722  0.0078  0.2660  0.0433
26369W        W41838   3.293   9.790   2.305  0.0012  0.1611  0.0913
26370W        W41839  14.928   9.201   5.222 -0.2728  0.0851  0.0146
26371W        W41840   7.586   9.258  14.140 -0.2291 -0.0379 -0.0211
26372W        W41841   9.408   6.780   0.045 -0.0060  0.0172 -0.0609
26373W        W41842   8.607  15.316  14.886  0.4010  0.4275  0.0970
26374W        W41843   1.050   9.732  11.607 -0.0717 -0.1665 -0.0821
26375W        W41844   8.037   7.495   4.243 -0.2277  0.0747 -0.0091
26376W        W41845   8.415  16.265  14.583  0.2820 -0.0206  0.1081
26377W        W41846  14.263  10.668   0.519  0.2874  0.0228 -0.1341
26378W        W41847   9.710   3.121   5.693 -0.1500  0.0277 -0.1579
26379W        W41848  15.069  11.815   5.030  0.1518 -0.2226  0.2901
26380W        W41849  10.522  17.010   4.283 -0.2498 -0.0910  0.0826
26381W        W41850   3.055  16.526  16.602  0.2168  0.0557  0.0876
26382W        W41851   0.769   1.126   3.867 -0.0807  0.1421 -0.1590
26383W        W41852   1.827   1.411   2.215  0.2113 -0.0317 -0.1597
26384W        W41853  14.232   4.091   1.528 -0.1263  0.1363 -0.0593
26385W        W41854   8.285   5.413   0.367  0.2769 -0.0902  0.0370
26386W        W41855   2.400  16.336   0.553  0.1408 -0.1819  0.1574
26387W        W41856  13.198   8.405   3.959  0.1725  0.0394 -0.3777
26388W        W41857   5.043   9.713   0.998  0.0314  0.1307  0.0011
26389W        W41858  13.825   6.054  14.171  0.2780 -0.2135  0.1173
26390W        W41859  13.974  15.121  15.886 -0.2005 -0.2052 -0.1721
26391W        W41860   7.944   0.339   0.524 -0.0541 -0.0565  0.3238
26392W        W41861  10.055  14.263  11.868  0.1394 -0.2585  0.1001
26393W        W41862   5.751   2.008  11.826  0.0096  0.3676  0.0810
26394W        W41863  12.917  14.504  14.661  0.0284  0.2262  0.0061
26395W        W41864  10.198   6.601  14.796 -0.0592 -0.0026  0.2152
26396W        W41865  12.091  16.210   5.425  0.0761 -0.1125  0.2514
26397W        W41866   2.742   2.135   4.715 -0.2307 -0.3163  0.2216
26398W        W41867   1.785   5.207   2.045 -0.3221  0.1895  0.0218
26399W        W41868   5.799   7.409   0.472  0.0975 -0.0591 -0.0855
26400W        W41869  10.311  17.459  13.557  0.0375  0.1705  0.0350
26401W        W41870   1.753   5.758  12.386 -0.1894  0.0785  0.0287
26402W        W41871  10.814  10.803   2.226 -0.0455  0.1929  0.1193
26403W        W41872  14.163  17.193   4.865  0.0176 -0.0404  0.1543
26404W        W41873   3.979  17.862   1.694  0.1590  0.0557  0.0413
26405W        W41874   6.734  14.777  15.433  0.1445 -0.0762  0.0903
26406W        W41875  17.659   7.465  12.054 -0.1905 -0.4616  0.3371
26407W        W41876   9.690  15.696   0.581 -0.2120  0.2390 -0.1394
26408W        W41877  15.969   9.046  11.587  0.3026  0.0361 -0.2425
26409W        W41878  13.984   8.863  11.336  0.0562 -0.0831  0.0096
26410W        W41879  12.849  12.927   2.285 -0.2310 -0.0980 -0.0836
26411W        W41880   2.638  12.096  16.360  0.1053 -0.2398 -0.0645
26412W        W41881   0.888   8.314   0.155 -0.0688 -0.2667  0.2678
26413W        W41882   0.461   6.603   3.730 -0.3155  0.3797  0.0368
26414W        W41883   3.490   8.464  16.184  0.2117  0.1449 -0.0156
26415W        W41884  17.848  14.088  14.552 -0.0846  0.1546 -0.0104
26416W        W41885  11.393   9.938  15.940  0.3126 -0.0521  0.1633
26417W        W41886  16.823   4.813  13.348 -0.3440  0.0360 -0.1027
26418W        W41887   4.810  13.225   1.244 -0.0652 -0.0020 -0.0245
26419W        W41888   9.463   6.737   5.633  0.2936  0.1387 -0.1627
26420W        W41889   9.894   3.093   6.301  0.0166  0.0678 -0.1231
26421W        W41890  14.175  13.823  16.342  0.2009  0.0905  0.1627
26422W        W41891   7.556   2.773   5.915 -0.0221 -0.3954 -0.4691
26423W        W41892  14.953   5.991   4.681  0.2515 -0.0304  0.1617
26424W        W41893  14.415   8.608   1.633 -0.2264 -0.0439 -0.0899
26425W        W41894  10.503   8.928  13.325  0.1618 -0.0826  0.0071
26426W        W41895   0.774   9.650  14.985 -0.1376 -0.0973  0.0507
26427W        W41896  13.887  10.346   0.420  0.3209  0.2904  0.2013
26428W        W41897  15.587  17.560  16.039  0.1547 -0.0670  0.0096
26429W        W41898   3.520   4.102  14.275 -0.0715  0.1026 -0.1536
26430W        W41899   7.505   6.348   0.065  0.0388 -0.3023 -0.1053
26431W        W41900   6.979  12.992  15.728  0.1502  0.2330  0.0117
26432W        W41901   0.016   1.367   1.857  0.0993 -0.2058 -0.1618
26433W        W41902  10.384   2.214   2.399 -0.1063 -0.2471 -0.2894
26434W        W41903   4.236  16.361  15.843 -0.2943 -0.3318 -0.0475
26435W        W41904   2.896   4.853  15.250 -0.0651 -0.3557 -0.1009
26436W        W41905   8.619   2.625   2.423  0.1632 -0.0656  0.5579
26437W        W41906   7.884   1.777   3.833  0.0473 -0.0213  0.3296
26438W        W41907   5.623   9.203   2.824  0.0342  0.1380  0.0801
26439W        W41908   9.564   3.367   2.789 -0.0378 -0.2520 -0.3940
26440W        W41909   9.494  12.868  14.820  0.2872 -0.0212  0.1517
26441W        W41910   1.942   8.858   4.096  0.1598 -0.0967  0.0125
26442W        W41911   7.879   8.826   4.211  0.0527  0.3059 -0.1276
26443W        W41912   4.286  10.881   5.190  0.1321 -0.2104  0.0973
26444W        W41913  13.645   6.429  11.465 -0.3054  0.1016 -0.3239
26445W        W41914   0.432   9.638   4.378 -0.1653 -0.2241  0.3143
26446W        W41915   2.592  14.602   1.904  0.0732  0.0526  0.2389
26447W        W41916  11.747   9.767   1.695 -0.0306 -0.3860  0.1483
26448W        W41917  16.396  14.493   5.202 -0.1572  0.1582  0.5526
26449W        W41918  14.487   2.899  12.627  0.2316 -0.3394 -0.0060
26450W        W41919  14.488  17.698  11.140  0.2322 -0.0108 -0.2813
26451W        W41920  15.436  15.269  16.365 -0.3055 -0.2176 -0.0560
26452W        W41921  17.877   8.314  14.187 -0.2745 -0.4233  0.3102
26453W        W41922   2.057   5.695  12.786 -0.2175  0.1921  0.2232
26454W        W41923   8.874   7.571   4.257  0.0017  0.1236 -0.0434
26455W        W41924   6.505  14.667   3.797 -0.1922  0.2345  0.0302
26456W        W41925   7.352   1.221  13.869  0.1504 -0.1240  0.0645
26457W        W41926  15.760  16.733  12.241 -0.2776  0.1679  0.0580
26458W        W41927  14.022   7.959   4.207  0.2133  0.0470  0.2920
26459W        W41928  10.376   6.193   1.046 -0.1446  0.3154  0.0570
26460W        W41929   0.238  13.087   2.602 -0.0257 -0.0445  0.3957
26461W        W41930  12.171   0.823  14.121  0.0195  0.1521 -0.2122
26462W        W41931  15.535  10.934   4.163  0.2401  0.1839 -0.3474
26463W        W41932   4.257  12.040  13.920  0.0171  0.0270  0.1460
26464W        W41933  15.386   4.875   4.378 -0.0042  0.1592 -0.0334
26465W        W41934  11.614   1.838   4.470 -0.2618  0.4320 -0.2418
26466W        W41935   6.836   5.973  13.342  0.3380  0.4469 -0.3694
26467W        W41936  11.975   1.895   5.982  0.2653  0.0791  0.2163
26468W        W41937   6.479   6.934  10.257 -0.1849 -0.3102  0.1813
26469W        W41938   5.925   9.220  12.786  0.0896  0.0832  0.2478
26470W        W41939   9.813   8.412  13.466 -0.3441  0.3031 -0.0788
26471W        W41940  13.886   3.398  11.777 -0.0267  0.1004  0.0974
26472W        W41941  16.897  15.135   1.825  0.1501  0.3119  0.2648
26473W        W41942   5.064  11.800   1.205 -0.1818  0.0544  0.1147
26474W        W41943   1.438   4.026  15.529 -0.4854  0.0518 -0.2146
26475W        W41944   9.825   3.572   5.470 -0.0499  0.0020  0.0767
26476W        W41945   8.640   6.362  14.202 -0.1328 -0.1530 -0.0728
26477W        W41946  17.373   8.315  11.594 -0.3956  0.0891 -0.0952
26478W        W41947   5.701  13.916   4.041 -0.3031  0.1485  0.2420
26479W        W41948   9.412   7.479   4.954  0.2025 -0.2354  0.1985
26480W        W41949  10.742  14.945  15.914 -0.2271  0.0348 -0.1275
26481W        W41950  13.652   5.317   0.274  0.5436  0.0514 -0.3134
26482W        W41951   7.656  16.554   3.090  0.4373  0.1655 -0.2196
26483W        W41952   2.095   3.615  16.055  0.0717 -0.1581 -0.0617
26484W        W41953  10.251   8.570   0.779 -0.0121  0.0884  0.2772
26485W        W41954  17.207  17.072   5.511  0.3995 -0.0806  0.3125
26486W        W41955  16.858  11.839   5.082  0.0629  0.0129 -0.3387
26487W        W41956   1.269   9.736  14.228  0.1010  0.1058  0.2395
26488W        W41957  17.906   1.588  15.337  0.1583  0.0799 -0.0615
26489W        W41958  16.874  12.919   2.310  0.0247 -0.1134  0.3966
26490W        W41959   8.688   5.773   2.683  0.1748  0.0620  0.0232
26491W        W41960  17.769   2.352   5.011 -0.1708  0.2940  0.0917
26492W        W41961  15.597   3.408  14.519  0.0995  0.2437 -0.1798
26493W        W41962   5.138   8.494   4.403  0.3733  0.0210 -0.1585
26494W        W41963  16.640  16.385   5.684 -0.1474  0.3380 -0.2689
26495W        W41964  16.460   2.076  14.670 -0.3934  0.0002 -0.3333
26496W        W41965   7.586   7.659   1.826  0.1341  0.1356 -0.0866
26497W        W41966  15.069  14.348   3.606  0.0687  0.0727 -0.2440
26498W        W41967  16.880   2.721  16.614 -0.0559  0.1522  0.0880
26499W        W41968  13.568  14.249  12.448  0.1169  0.1404  0.3586
26500W        W41969  12.405  12.235   5.826  0.0760 -0.0874 -0.1693
26501W        W41970  13.611  10.770   1.377  0.1936 -0.1097 -0.0000
26502W        W41971   3.116  13.182   1.914  0.0585  0.0918  0.1280
26503W        W41972   6.309  16.754  15.362  0.0694 -0.3794 -0.2340
26504W        W41973   7.169   3.000  14.106 -0.2763  0.0790 -0.0955
26505W        W41974   1.157   7.132   4.183  0.2159  0.1133 -0.0407
26506W        W41975  10.049  10.801   4.083  0.0925  0.0227 -0.0932
26507W        W41976   4.612   3.259   4.656 -0.2736 -0.2605  0.2938
26508W        W41977   5.316   5.106  12.177  0.0254  0.0762  0.0184
26509W        W41978  11.963  11.269  16.232 -0.1160 -0.0786  0.2455
26510W        W41979  16.778  15.588   4.603  0.1983  0.1000 -0.0378
26511W        W41980   6.522  12.480   0.838 -0.2875 -0.1188  0.0027
26512W        W41981   4.467   7.863  11.435 -0.0433 -0.0573 -0.2151
26513W        W41982   5.381  17.569  11.354 -0.2486  0.4245  0.1583
26514W        W41983   9.384   6.693  14.448 -0.0213  0.1235  0.2296
26515W        W41984   8.308  17.217  13.127 -0.1356  0.0932 -0.2203
26516W        W41985  14.201   8.705  13.277 -0.2532 -0.0548 -0.1093
26517W        W41986  12.797   1.078   3.861  0.0341 -0.0443 -0.0544
26518W        W41987   6.649   8.069   3.676 -0.0587  0.3273  0.1992
26519W        W41988   8.968  11.232   0.670 -0.0457 -0.0327 -0.0733
26520W        W41989   9.543  16.564  15.950 -0.0288  0.2671 -0.1416
26521W        W41990  15.037  16.179   3.807  0.1940 -0.3792 -0.1137
26522W        W41991  10.103  11.120  16.526 -0.2697  0.0367  0.0912
26523W        W41992  16.225   5.566   0.414 -0.0881 -0.1967  0.0925
26524W        W41993  17.917   5.428  15.489  0.2881 -0.0779  0.0996
26525W        W41994  12.115  16.146  14.866  0.1448  0.0861 -0.3375
26526W        W41995  14.659   4.171  13.101  0.1304 -0.1011 -0.0178
26527W        W41996  11.772   1.956   0.364 -0.2547 -0.2025  0.2034
26528W        W41997   1.713   7.539   2.995  0.2050  0.1267  0.2571
26529W        W41998   6.244  11.176  13.673 -0.0750  0.0041 -0.0812
26530W        W41999   0.551   2.044   1.300  0.0543 -0.0147  0.2922
26531W        W42000  10.045   1.151  15.441  0.1380 -0.0544 -0.0073
26532W        W42001   3.397  16.611  15.339  0.2689 -0.1560  0.1948
26533W        W42002  11.197   1.479  15.163 -0.0898  0.0073  0.1323
26534W        W42003   3.713   8.895   1.786 -0.2661  0.1125 -0.2173
26535W        W42004  14.869  16.604   5.378  0.0224 -0.3974 -0.1267
26536W        W42005   5.033   6.499   4.086 -0.1408  0.0781  0.0739
26537W        W42006  17.364   3.839   3.088 -0.1089  0.1764  0.2140
26538W        W42007  12.798   7.571  16.022 -0.1803  0.0029 -0.0268
26539W        W42008   3.951   2.697  11.359  0.1738  0.3771 -0.2763
26540W        W42009   9.118   4.391   4.324  0.0403 -0.3202  0.0885
26541W        W42010  14.367   1.738   0.908  0.1150 -0.0410  0.0391
26542W        W42011  11.580  13.234  16.614  0.1820 -0.3260 -0.0656
26543W        W42012   0.429  14.860   6.422 -0.1159  0.2107 -0.0210
26544W        W42013   4.038  16.856   1.594 -0.1096 -0.1131 -0.0909
26545W        W42014   3.493  15.416   5.427  0.2470  0.1880  0.2710
26546W        W42015   8.761  10.218   4.254 -0.1005 -0.1609  0.2812
26547W        W42016   8.625  15.042   4.337 -0.0719 -0.2558  0.0614
26548W        W42017   7.703  12.587   1.567 -0.0359 -0.0654  0.0899
26549W        W42018  13.806   1.618  14.884  0.1390 -0.0472  0.3193
26550W        W42019   1.169   6.684  14.019  0.1221 -0.1243  0.3678
26551W        W42020   9.984  14.739   4.356 -0.1412 -0.1256 -0.0722
26552W        W42021   3.749  10.716   5.255  0.3599  0.1079  0.0002
26553W        W42022   6.532  12.560   1.330 -0.4613  0.0019  0.1157
26554W        W42023   3.962   1.517   2.497 -0.0459  0.0030 -0.0483
26555W        W42024   9.252  10.946  16.508 -0.0398 -0.2448  0.0231
26556W        W42025  13.501  14.027  11.183  0.0634  0.1036  0.1758
26557W        W42026   8.998   9.747  16.347 -0.1141  0.0223  0.2383
26558W        W42027   2.596  11.898   1.172 -0.0995 -0.0208  0.1754
26559W        W42028   6.274   9.921   3.130  0.1547  0.3535 -0.4377
26560W        W42029   6.358   5.054   0.787 -0.2701  0.0812 -0.0181
26561W        W42030   7.968   8.421   3.877  0.4044 -0.2786  0.0288
26562W        W42031   0.131  14.377   3.806 -0.2823 -0.0837 -0.3930
26563W        W42032  14.156  16.226  14.291  0.0263  0.2825 -0.1542
26564W        W42033  16.221  17.076   0.499 -0.3769  0.1127 -0.0487
26565W        W42034  10.627  17.736  15.111 -0.2381  0.2235 -0.0559
26566W        W42035   1.726  10.803  16.198 -0.5156  0.1380 -0.0705
26567W        W42036   1.914   9.257  16.305 -0.0531 -0.3218  0.3358
26568W        W42037   8.904  16.464   1.782 -0.1482  0.0253  0.0717
26569W        W42038  17.810   4.614   0.945  0.0963 -0.2323 -0.1816
26570W        W42039   9.096   8.244   2.252 -0.1748  0.1006 -0.0503
26571W        W42040   1.675   6.335   2.293  0.2699  0.1606  0.1126
26572W        W42041   3.757   6.010   1.892  0.0862 -0.0200 -0.1303
26573W        W42042   7.284   8.108   3.511  0.1467 -0.1692  0.1585
26574W        W42043  12.950  15.709  11.825 -0.2042 -0.2865 -0.1915
26575W        W42044  12.619  16.683  12.123  0.0286 -0.0765  0.0547
26576W        W42045  16.627   7.488   4.152  0.1193  0.1821  0.1390
26577W        W42046   7.795  16.809   1.063  0.2063  0.1466 -0.2512
26578W        W42047   5.397  10.943  11.510 -0.1520  0.0145  0.0703
26579W        W42048  13.034   7.870   4.092  0.2101  0.0130 -0.0865
26580W        W42049  12.279  15.290   4.263  0.0465 -0.2724  0.0784
26581W        W42050   2.199   4.853   5.423  0.0387  0.0483  0.1491
26582W        W42051  17.348   6.339  10.199  0.0938  0.2583  0.0093
26583W        W42052   6.517   2.293  16.375 -0.0727 -0.0534 -0.2355
26584W        W42053  16.756   6.977  15.776  0.1248  0.0996 -0.1191
26585W        W42054   2.963   8.023  14.906  0.2980 -0.1137 -0.0357
26586W        W42055  17.769   8.865  13.354 -0.0464 -0.3969  0.1379
26587W        W42056   9.927  10.125  12.757  0.0386 -0.0120 -0.2574
26588W        W42057   3.983  15.397   4.224 -0.0297  0.2953 -0.1670
26589W        W42058   2.624  10.437  12.030  0.1975  0.0196 -0.0932
26590W        W42059  10.946  17.799  15.571 -0.0519  0.3412  0.0142
26591W        W42060  16.160   3.513  14.713  0.2511  0.0680  0.1487
26592W        W42061   7.198  11.760  11.323 -0.1320  0.1577  0.1923
26593W        W42062   1.155  11.065  15.148  0.3882  0.0139 -0.0128
26594W        W42063  12.083   0.495  16.142 -0.5759  0.0958  0.0487
26595W        W42064   2.885   6.291  13.913 -0.3239  0.0279 -0.2065
26596W        W42065  12.461  15.491   5.864  0.0482  0.0349  0.2470
26597W        W42066  17.045   0.959  12.427  0.1452  0.2815  0.1015
26598W        W42067   9.282   8.154   4.124  0.0550  0.0537  0.1448
26599W        W42068   8.782   7.299   2.190  0.0847 -0.0404 -0.1694
26600W        W42069   4.083   3.222   4.845  0.1475  0.1485 -0.0727
26601W        W42070  15.680  17.242   0.348  0.0263  0.0301 -0.0694
26602W        W42071   9.974  16.990   1.533 -0.0395  0.4293  0.2001
26603W        W42072  11.102   7.859   3.737  0.0144 -0.2015 -0.1156
26604W        W42073   7.691   4.837   1.411  0.2092 -0.1473 -0.0214
26605W        W42074  13.113  13.565   1.481 -0.2003  0.1885  0.0375
26606W        W42075  13.872   5.918   2.360  0.0486 -0.0643  0.1317
26607W        W42076  17.139  11.877  13.805 -0.1460  0.1228 -0.3794
26608W        W42077   5.284   0.830   3.356 -0.0398 -0.2006  0.0850
26609W        W42078  17.758  13.793  15.921 -0.1427 -0.2141  0.5529
26610W        W42079  11.111   2.553   2.926 -0.0677 -0.2216 -0.0779
26611W        W42080  11.642   1.650   2.456 -0.0289 -0.3368 -0.2087
26612W        W42081   3.425   2.995  14.289  0.0507 -0.1524  0.0645
26613W        W42082   0.304  13.200  14.144  0.3434  0.0439 -0.0435
26614W        W42083  14.657  15.428  14.031  0.1794  0.1863 -0.0708
26615W        W42084   9.380   9.961   1.568  0.1853  0.1223  0.2596
26616W        W42085   9.842   1.490   2.308  0.2307  0.0623 -0.0989
26617W        W42086  16.124  12.808  11.825  0.2400 -0.2181 -0.0750
26618W        W42087  14.956   6.720   0.806 -0.0549  0.1878  0.0101
26619W        W42088   1.592  11.839   2.580 -0.2759  0.2215  0.0066
26620W        W42089   3.884   6.328   2.950 -0.1985 -0.0768  0.1989
26621W        W42090  17.775  11.106  16.311 -0.4729 -0.3549  0.0909
26622W        W42091   1.797  12.033   3.090  0.1026  0.0138 -0.3632
26623W        W42092   1.946   1.684   4.024  0.0720  0.2705 -0.0906
26624W        W42093  13.076  13.047   4.959 -0.1171  0.1749 -0.1443
26625W        W42094   0.837   7.603  13.269  0.1856 -0.0766  0.0407
26626W        W42095  16.309   6.554  11.278  0.0607 -0.0371  0.1288
26627W        W42096   2.311   7.804  14.862  0.1690  0.0993 -0.1123
26628W        W42097   7.183   5.863   6.309  0.2092 -0.0277  0.1230
26629W        W42098   6.776   8.773   5.686 -0.0460 -0.0563 -0.0500
26630W        W42099  13.140  17.089  15.654  0.2723  0.0378 -0.0499
26631W        W42100  17.387   0.022  15.692  0.0663 -0.0228  0.1480
26632W        W42101   5.598   0.169   3.631  0.1378 -0.0269 -0.0275
26633W        W42102  14.201   9.769   5.359 -0.0505 -0.0123 -0.3562
26634W        W42103  10.924   8.598   0.193  0.1437  0.0215  0.2422
26635W        W42104  13.184  10.241   2.535  0.1830 -0.0509 -0.1010
26636W        W42105  12.569  14.776   1.578 -0.0609  0.1358 -0.1280
26637W        W42106   8.261   6.245   1.419  0.2409  0.0955  0.2255
26638W        W42107  15.570  12.595  16.279  0.2442 -0.1465  0.0390
26639W        W42108   4.925   5.865  15.980  0.1113 -0.3028 -0.2236
26640W        W42109   2.181  11.352  14.104 -0.2457  0.0323 -0.0432
26641W        W42110  16.397  11.420   0.905  0.0908  0.3320  0.3390
26642W        W42111  14.457   4.880   3.289 -0.1586  0.3334 -0.3404
26643W        W42112  17.741  16.054  15.566  0.0375  0.1360 -0.0264
26644W        W42113   3.331  17.756  12.835  0.0879  0.1123 -0.0586
26645W        W42114  11.455  10.553   0.241  0.0857 -0.1075 -0.0751
26646W        W42115   3.593   6.476  16.212 -0.1196 -0.1866  0.2446
26647W        W42116  17.753   6.215  15.075  0.0594 -0.0227 -0.2007
26648W        W42117  14.102   0.544   0.190  0.2108 -0.0968  0.0773
26649W        W42118   9.022   2.384   4.086  0.1533  0.1007  0.0453
26650W        W42119  16.376  11.929   3.832  0.0410  0.3699 -0.3259
26651W        W42120   8.134  12.837   2.611  0.0495  0.0148 -0.0739
26652W        W42121  16.567  17.347  13.043 -0.2576 -0.3072 -0.0620
26653W        W42122   8.510  17.392   1.442 -0.1116  0.3392  0.0572
26654W        W42123   9.129   0.700   3.284 -0.3825 -0.1406 -0.1662
26655W        W42124  13.203   4.758   5.401 -0.0387 -0.0496 -0.0693
26656W        W42125   5.978   3.691  16.328 -0.1299 -0.1392 -0.1075
26657W        W42126  17.257   7.834   3.241 -0.0353 -0.2640  0.1125
26658W        W42127   8.725   9.521   4.752 -0.1252 -0.1176 -0.1199
26659W        W42128  14.632   2.337  15.548  0.1032 -0.3027 -0.0971
26660W        W42129  14.218   4.760   0.876 -0.2572 -0.1255  0.1878
26661W        W42130  16.174  17.535  12.106  0.2112  0.0927  0.2573
26662W        W42131   7.081  16.749  14.723  0.1054 -0.0609  0.0874
26663W        W42132   4.415  12.916   2.810 -0.2188  0.0923  0.2567
26664W        W42133   6.933  12.023   4.284 -0.0539  0.0122  0.0711
26665W        W42134   8.886   6.642  16.613 -0.1278 -0.0527  0.1584
26666W        W42135  11.765  11.858   5.102 -0.0791  0.1447 -0.3308
26667W        W42136   8.333  15.844  15.422 -0.0430  0.0762  0.1554
26668W        W42137  15.968  10.738  14.669 -0.0084 -0.1962  0.2780
26669W        W42138   4.028  16.414   1.858  0.4500  0.1498 -0.3365
26670W        W42139   6.185  14.104  13.678 -0.1307  0.0794  0.0984
26671W        W42140   3.479  16.079  13.533  0.2596 -0.0218 -0.3559
26672W        W42141  14.502   7.175   3.479  0.0677 -0.0764  0.0392
26673W        W42142  15.489  14.241   6.457  0.3962  0.3227 -0.4222
26674W        W42143  17.435  15.731   4.605 -0.2083  0.0231 -0.1643
26675W        W42144   5.212  14.370   3.746 -0.2032  0.1422 -0.2428
26676W        W42145  13.456   1.906   2.845 -0.0916 -0.2768 -0.3392
26677W        W42146   1.678  15.182  15.350  0.0461 -0.3461  0.0685
26678W        W42147   9.827  11.835   3.266  0.1453 -0.1187 -0.0835
26679W        W42148   2.739  11.497   5.899 -0.0166 -0.0261 -0.1257
26680W        W42149   2.191  13.547   4.873 -0.0286  0.4974  0.2441
26681W        W42150  14.167  14.952  14.859 -0.0753 -0.3981  0.1890
26682W        W42151  17.148   4.491  11.389 -0.1804 -0.2756  0.2182
26683W        W42152   8.031  12.870   4.242 -0.0835  0.0223  0.2395
26684W        W42153   4.402  12.460  15.981 -0.1579  0.1926 -0.0346
26685W        W42154  12.144   5.148   3.189 -0.1162 -0.1269 -0.0424
26686W        W42155  11.862  15.269  16.107 -0.2262  0.0776  0.3007
26687W        W42156   8.587   5.319   2.433 -0.0100  0.0853 -0.1867
26688W        W42157  16.236  15.785   1.085 -0.2749 -0.0379 -0.0564
26689W        W42158   1.411   0.745  13.336  0.0846  0.0779 -0.0471
26690W        W42159   9.928  12.902  15.098 -0.2542 -0.1365 -0.2579
26691W        W42160  13.704   6.667   3.703  0.0195  0.2003  0.3592
26692W        W42161  11.035  10.357   3.919 -0.0562 -0.2001  0.1460
26693W        W42162  13.586   8.551  13.910  0.0282  0.0506  0.0726
26694W        W42163  12.904  14.325   2.943 -0.2352 -0.0404 -0.0334
26695W        W42164   8.632  12.698   0.553  0.2761  0.0660 -0.1558
26696W        W42165   8.243   0.462  14.608 -0.1593  0.3788  0.1542
26697W        W42166   5.901  10.996   2.266  0.1766  0.0139 -0.2308
26698W        W42167   8.106   6.046   3.503 -0.2174 -0.1741 -0.0490
26699W        W42168  12.107   6.648   1.424 -0.2480  0.0964 -0.0005
26700W        W42169  12.052  10.518  14.888 -0.0032 -0.1276 -0.2067
26701W        W42170   4.490   9.065   0.060 -0.0089 -0.0457 -0.2017
26702W        W42171  14.515   4.598   0.124 -0.1850 -0.0549  0.0840
26703W        W42172   3.134   6.261   4.740  0.1196 -0.3086 -0.0245
26704W        W42173  11.402   9.491   0.345 -0.2177 -0.0644  0.0403
26705W        W42174  15.894   7.327  14.810 -0.1068 -0.0387  0.0296
26706W        W42175  17.308   8.880   1.498  0.4152  0.0387  0.1312
26707W        W42176  14.168   2.498   3.309 -0.1924  0.1651  0.2429
26708W        W42177  10.051   1.927  13.302  0.1368  0.0852  0.2727
26709W        W42178  14.432   9.542  14.016  0.0983  0.0692  0.0550
26710W        W42179   4.176   4.106  15.797 -0.0278 -0.0957  0.3825
26711W        W42180  15.262   8.020   4.199 -0.0861  0.0101  0.1376
26712W        W42181  15.599   4.390   5.973 -0.2327  0.2335  0.3163
26713W        W42182   4.795  17.942   1.278  0.1048 -0.1323 -0.1506
26714W        W42183   9.171  13.646  10.413  0.3221  0.1553 -0.1875
26715W        W42184   8.344  14.946  15.676 -0.1892 -0.1010  0.2989
26716W        W42185   0.783  10.045   3.517  0.0604 -0.2205  0.3225
26717W        W42186   4.426  10.452   3.079 -0.2749  0.0931 -0.0246
26718W        W42187   0.626  15.418  13.946  0.0207  0.0161 -0.1342
26719W        W42188   7.151  14.948  16.470  0.1212 -0.0320  0.0154
26720W        W42189   1.174   1.052   2.551  0.0325  0.0547  0.1415
26721W        W42190   0.571   3.376  10.747  0.0359  0.1422  0.0851
26722W        W42191   5.222  10.852  16.050 -0.3544  0.3031 -0.0712
26723W        W42192  14.538   2.158  14.329  0.0706 -0.1092 -0.1394
26724W        W42193  13.582   4.703   6.109 -0.0783 -0.2069 -0.1816
26725W        W42194  12.453   5.831  14.882 -0.0429 -0.2376 -0.0744
26726W        W42195   5.281  11.639   3.178 -0.1529 -0.1502 -0.2805
26727W        W42196  17.324   8.559   4.173  0.2098  0.1116 -0.0440
26728W        W42197  17.424   6.031  15.448  0.0293 -0.3369  0.0651
26729W        W42198  15.009   9.450   4.719  0.2681  0.0528 -0.2058
26730W        W42199  14.626   5.320   5.142 -0.0180  0.3245  0.0399
26731W        W42200   8.876   0.157  12.620  0.0119 -0.1096  0.0794
26732W        W42201   5.144  16.756   0.477 -0.0261  0.1874  0.3688
26733W        W42202   1.226  16.484  13.185 -0.0363 -0.0410 -0.0631
26734W        W42203   9.577   4.561   4.456 -0.1532  0.0081 -0.0000
26735W        W42204   2.976   0.626   1.401 -0.1246  0.0225 -0.0666
26736W        W42205  10.365  11.652   2.584  0.4421  0.1612  0.1229
26737W        W42206  10.094   2.542  12.128  0.1057 -0.1315 -0.1739
26738W        W42207   5.423  16.409  11.658  0.1272  0.1607 -0.3843
26739W        W42208  17.021  17.417  13.572  0.2232  0.0147  0.0634
26740W        W42209   1.184   9.455   2.058  0.0955  0.0228  0.2054
26741W        W42210   1.661  15.789   0.655  0.0514  0.2448  0.1814
26742W        W42211  16.880  11.154  14.629  0.1061  0.1069 -0.1894
26743W        W42212   0.516  15.536   3.920  0.0716  0.1202 -0.3479
26744W        W42213   6.652  15.371  12.402 -0.0798 -0.0852 -0.2612
26745W        W42214  17.358  10.124   3.688  0.1421  0.0916  0.0829
26746W        W42215   6.947   7.069  15.623 -0.1916  0.1808  0.0232
26747W        W42216   9.326  16.376   2.347  0.1946  0.0701 -0.2096
26748W        W42217   5.380   2.687   4.900 -0.0962 -0.0987 -0.3689
26749W        W42218   4.694  15.040   5.532 -0.0588 -0.1563  0.3533
26750W        W42219  17.989   2.702   0.645  0.0053  0.3116  0.1435
26751W        W42220  10.616  13.763   1.476  0.0160  0.0226  0.0408
26752W        W42221   0.677   2.620   3.695  0.4399 -0.0133  0.3126
26753W        W42222  13.253   8.732  10.330  0.0018 -0.0966 -0.2051
26754W        W42223  10.574  14.970   6.549 -0.0553  0.0016  0.0872
26755W        W42224   3.345   8.381   1.961 -0.2366 -0.0272 -0.1098
26756W        W42225  13.660   4.112  15.284  0.0216  0.2730 -0.1672
26757W        W42226  16.419  16.088  13.046  0.1667  0.1356  0.0894
26758W        W42227   1.071   7.947  11.163 -0.1574 -0.0069  0.0501
26759W        W42228   5.485  15.538  11.685  0.1127 -0.0944  0.0703
26760W        W42229   0.734   8.332  16.276  0.0136  0.2270  0.1973
26761W        W42230   1.808   1.698   0.947 -0.0928  0.1366 -0.0281
26762W        W42231  10.126   7.507   0.792  0.1744  0.1332 -0.2353
26763W        W42232  12.986  14.427   6.728  0.0438 -0.0415  0.0499
26764W        W42233  11.243   5.344   5.562  0.1244 -0.0546 -0.1912
26765W        W42234  11.196  13.105   0.317 -0.0011  0.0883 -0.0213
26766W        W42235   7.754  13.742  15.481 -0.0074 -0.1588  0.1792
26767W        W42236  15.989  10.491  14.069 -0.3010 -0.0377  0.1362
26768W        W42237   9.221  11.427   3.129 -0.1431  0.1653 -0.1693
26769W        W42238   6.666  14.456   5.732 -0.0549  0.3979 -0.3330
26770W        W42239  12.955  11.036  15.022  0.1801  0.1356 -0.0797
26771W        W42240   5.818  13.657   3.047 -0.0534 -0.0483  0.1335
26772W        W42241  14.736   5.471   3.853  0.1681  0.0556  0.1571
26773W        W42242   0.970  14.265  16.097  0.1320  0.3496  0.0985
26774W        W42243  10.436   0.214  15.210  0.0621 -0.2072 -0.3445
26775W        W42244   7.376  15.878  15.427 -0.0639  0.1068  0.3542
26776W        W42245   1.778   6.056  11.621  0.0208 -0.0849  0.0646
26777W        W42246   1.561   8.897  13.251  0.2487 -0.0544  0.0680
26778W        W42247   0.201  14.198  13.653 -0.0829 -0.0837 -0.0803
26779W        W42248  16.816  13.074   3.179  0.1699 -0.0882  0.1432
26780W        W42249  13.496  13.774   5.232 -0.1643  0.4073 -0.0278
26781W        W42250  10.468   4.545  14.091  0.0162  0.1349 -0.0832
26782W        W42251   9.997   8.377   4.824  0.1305 -0.0245  0.0439
26783W        W42252  14.186  12.657  10.427  0.0679 -0.1120  0.1419
26784W        W42253   0.455  12.667   3.657 -0.1765 -0.1727 -0.2996
26785W        W42254  17.278   5.662  11.402 -0.2372  0.0601 -0.0212
26786W        W42255   7.731   8.431   1.708 -0.0870  0.3127  0.0808
26787W        W42256  13.561   5.663   4.389 -0.0025  0.0327  0.0991
26788W        W42257   0.704   9.418   1.940  0.1599  0.3274  0.0891
26789W        W42258   0.736   8.653  13.443 -0.2692 -0.1976 -0.0244
26790W        W42259  11.327  11.897   2.893 -0.3248  0.1278  0.2479
26791W        W42260   7.644  13.497   2.284 -0.3241  0.0733 -0.2213
26792W        W42261  13.696  17.004   0.766  0.1890  0.1401  0.0292
26793W        W42262  15.042  13.349   6.210  0.1004  0.0783  0.2823
26794W        W42263   0.134  10.991   0.153 -0.1124  0.3382 -0.0549
26795W        W42264   9.273  16.499   0.322  0.0449 -0.2952 -0.0976
26796W        W42265  13.533   8.069   4.160 -0.3375  0.3088 -0.1256
26797W        W42266   2.329   0.509   5.741 -0.3692  0.1808  0.2065
26798W        W42267   9.868   2.909   2.168 -0.1682  0.2456  0.0677
26799W        W42268   6.952  15.114   1.261 -0.2019 -0.1797 -0.1033
26800W        W42269  16.268   2.494  11.524 -0.0267  0.3014 -0.0461
26801W        W42270  17.809   1.205   3.538  0.0481 -0.3100 -0.0729
26802W        W42271   4.564   2.628  13.343  0.1545 -0.2144 -0.0116
26803W        W42272   1.853   5.072  13.994  0.3949 -0.0758  0.1731
26804W        W42273  16.471   4.978   1.010 -0.1269 -0.0042 -0.0325
26805W        W42274  16.100  14.948  13.972 -0.1394 -0.0861  0.3554
26806W        W42275  10.229   1.072   5.148  0.1339 -0.0669 -0.0127
26807W        W42276  17.376   1.854   3.162 -0.0485  0.0414  0.0338
26808W        W42277  15.296   9.564  11.697  0.0227  0.0240 -0.1010
26809W        W42278   6.256   9.497   2.247  0.1295  0.2495  0.1364
26810W        W42279  10.964  10.755  11.204  0.1676  0.0356 -0.1913
26811W        W42280  16.725   1.246   2.127  0.1690  0.3283 -0.1721
26812W        W42281   1.335  14.774  12.423 -0.0520 -0.2010  0.0449
26813W        W42282   8.805   6.580  13.199 -0.0137 -0.1255  0.0463
26814W        W42283  12.934   5.559   1.971 -0.3168  0.1320 -0.1587
26815W        W42284  13.274   2.045  12.333 -0.1456  0.0416  0.0631
26816W        W42285   2.460  10.073  11.025  0.0585  0.2603  0.3174
26817W        W42286   1.997   1.388   4.409  0.0521 -0.1636 -0.1397
26818W        W42287   2.622  15.349  12.763 -0.2869  0.0296 -0.2189
26819W        W42288   7.708  17.206   4.496  0.0824  0.3086  0.0702
26820W        W42289   8.037   0.478  12.714  0.0529 -0.0676 -0.1846
26821W        W42290  13.228  13.048  13.630 -0.3480  0.0711 -0.1842
26822W        W42291  16.857   7.314  12.572  0.0502  0.0512 -0.0239
26823W        W42292   2.455  14.009  12.348  0.1522 -0.0789 -0.1209
26824W        W42293   5.050  10.966  14.223  0.2578 -0.1890 -0.2951
26825W        W42294   0.149  16.703  15.641  0.2644  0.2927 -0.0010
26826W        W42295  17.903  13.562   5.799  0.1534 -0.0122 -0.1089
26827W        W42296   3.528  13.185  15.485  0.3221  0.1916 -0.0224
26828W        W42297   3.368   9.388  12.973  0.0731 -0.1584 -0.0296
26829W        W42298  17.288  13.739   0.969 -0.1502  0.2250 -0.2656
26830W        W42299  11.096   2.824   4.320 -0.2177  0.1686  0.0587
26831W        W42300  16.710  14.820  16.577 -0.0887  0.2099  0.1758
26832W        W42301  11.245  14.582  16.089 -0.1032  0.1352 -0.2767
26833W        W42302   4.182   3.279   0.374 -0.0848  0.1806 -0.0905
26834W        W42303   0.428  10.747  11.143 -0.2324 -0.5127 -0.0599
26835W        W42304   6.169  15.968   5.713  0.2236  0.2970 -0.1353
26836W        W42305  10.222   6.679   0.067 -0.4755 -0.2805 -0.1782
26837W        W42306   9.781   1.468   3.266 -0.0124 -0.3289 -0.0306
26838W        W42307  17.573  14.189  14.999  0.0987 -0.1545 -0.1903
26839W        W42308  13.985   3.422  15.852  0.4362 -0.0648 -0.1575
26840W        W42309  17.093  15.353   1.381  0.0731  0.1898 -0.2456
26841W        W42310   2.914   2.798  11.581 -0.2975  0.0587 -0.0959
26842W        W42311  17.214   3.556  15.252  0.1254  0.2482  0.0546
26843W        W42312  16.850  13.654   4.233 -0.0346 -0.2715 -0.0760
26844W        W42313  11.109   0.868   2.193  0.0816 -0.1544  0.0499
26845W        W42314   1.115   0.372   3.778 -0.3363 -0.1818  0.1970
26846W        W42315  13.762   4.144  14.810 -0.1607 -0.2832 -0.0421
26847W        W42316  16.263   6.338  10.827  0.1215 -0.1704  0.2829
26848W        W42317   3.152   8.137  11.731 -0.0487  0.3145 -0.1990
26849W        W42318   4.615   4.230  12.898  0.0877  0.4299  0.1345
26850W        W42319   5.697  15.965   5.968 -0.1853  0.3239  0.1301
26851W        W42320   4.603   1.020   2.398  0.2333  0.0954 -0.3016
26852W        W42321   7.742   9.810   5.288 -0.0098 -0.1861 -0.0099
26853W        W42322   1.340  12.297   1.561 -0.1243  0.2131  0.0456
26854W        W42323   4.933  10.485   3.052  0.3142  0.0097  0.0439
26855W        W42324   8.047   6.049  13.195 -0.0553 -0.0472 -0.0809
26856W        W42325  13.145  15.994   6.647 -0.1876 -0.2791  0.0147
26857W        W42326  16.744  12.870  14.110  0.2477  0.0648 -0.0854
26858W        W42327  11.979   7.858   0.135 -0.1831 -0.0536  0.2286
26859W        W42328  10.074  13.691   2.692  0.2374  0.0381 -0.0974
26860W        W42329   7.987  13.690  14.499  0.1250 -0.1549  0.1000
26861W        W42330  10.573  17.042   2.655  0.1127  0.0344  0.0077
26862W        W42331  12.979  14.847   3.831 -0.0354  0.0417  0.2515
26863W        W42332  15.557   1.095  15.200 -0.1173  0.2466 -0.0808
26864W        W42333  14.798   6.225  12.251  0.2513 -0.1400 -0.0064
26865W        W42334   7.996   0.327  12.010 -0.1195 -0.3326 -0.3180
26866W        W42335   0.277   8.889  13.332 -0.1114 -0.0093 -0.1546
26867W        W42336   4.930  13.909  14.919 -0.2315  0.0814  0.1480
26868W        W42337  14.665  17.960   4.652 -0.1792 -0.1731  0.0724
26869W        W42338   0.587  10.825  15.864  0.1401 -0.1168 -0.0765
26870W        W42339   2.231  12.079   2.615 -0.0901 -0.1471  0.1464
26871W        W42340   8.080   5.715  12.065 -0.0550  0.2666 -0.1568
26872W        W42341  12.800  14.463   4.269  0.0474  0.0986  0.2889
26873W        W42342   5.655  13.172   0.583 -0.3420 -0.1316 -0.1486
26874W        W42343   0.993   6.133   2.687  0.0308  0.1789  0.0176
26875W        W42344  15.279  15.871  11.942 -0.1348 -0.0724  0.0248
26876W        W42345   5.652   9.585  11.276  0.0206  0.3129  0.0761
26877W        W42346   6.368  15.061  11.477  0.4695  0.4952  0.2180
26878W        W42347   4.542  13.092  14.926 -0.1399  0.0493 -0.0059
26879W        W42348  15.781  16.712  13.283  0.0378  0.1609 -0.0281
26880W        W42349   2.599   7.496  11.234 -0.0289 -0.0873  0.1751
26881W        W42350  10.615  15.231   4.973 -0.0792 -0.2516  0.3032
26882W        W42351   5.684   4.556   0.425 -0.2925 -0.1556 -0.1442
26883W        W42352  12.678  10.550   5.874 -0.0232  0.1537  0.2046
26884W        W42353  15.905   0.403  15.887  0.3032  0.2963  0.2476
26885W        W42354  12.496   9.634   1.140  0.1336 -0.3745  0.0973
26886W        W42355   4.244   1.788  16.295 -0.0636 -0.0594 -0.3318
26887W        W42356   9.200  13.731  11.816 -0.1726 -0.0644 -0.1068
26888W        W42357  16.825   3.791   5.129  0.4069 -0.0535  0.0886
26889W        W42358   5.053  17.551  14.075  0.0287  0.1647  0.4342
26890W        W42359   6.874  13.996   1.368  0.0830 -0.0116 -0.0285
26891W        W42360  15.403   6.252  11.293  0.0801 -0.1994  0.1342
26892W        W42361   3.469   7.339   1.926  0.5299  0.1640 -0.2963
26893W        W42362   1.799   6.081   4.783  0.1257 -0.2045 -0.1625
26894W        W42363   4.334  10.533   0.911 -0.0302 -0.1273  0.0317
26895W        W42364   3.523   6.870   1.806 -0.0376  0.0544 -0.0739
26896W        W42365  16.231  14.559   1.956  0.0646  0.3578 -0.0348
26897W        W42366   2.116   2.006  15.571 -0.1280  0.1709 -0.2080
26898W        W42367  10.201  15.853   3.001  0.1764  0.1148 -0.1017
26899W        W42368   8.368  12.705   2.099 -0.1855  0.0216  0.1501
26900W        W42369  13.964  14.088   0.895  0.3474  0.1026  0.0326
26901W        W42370   8.345   0.374   2.303 -0.4454 -0.0856 -0.0094
26902W        W42371  10.970   4.750   3.394 -0.1256 -0.0084  0.0156
26903W        W42372   4.421   9.989  13.879  0.0777 -0.2086 -0.0806
26904W        W42373  10.416  13.482   1.138 -0.1675 -0.0696  0.2595
26905W        W42374  14.232   8.871  12.795 -0.1946  0.3569 -0.2697
26906W        W42375   8.700  13.039  12.881 -0.2233 -0.0000  0.1895
26907W        W42376  17.495   9.740   2.366 -0.0146 -0.3907 -0.0493
26908W        W42377  11.429   7.664  12.133 -0.2751  0.0492 -0.0006
26909W        W42378   2.629  13.112  11.250  0.0721 -0.3084  0.2536
26910W        W42379   2.247   9.452   3.192 -0.4943 -0.4416 -0.2191
26911W        W42380  10.153  17.865  16.249 -0.2947 -0.2995  0.2242
26912W        W42381  16.413  13.523  12.262 -0.1261 -0.3347 -0.1981
26913W        W42382   4.878   6.999  11.156 -0.0904 -0.1151 -0.0087
26914W        W42383   3.019  12.636   4.395 -0.0167  0.1256  0.1731
26915W        W42384   7.017  12.042  13.106 -0.0036 -0.0589  0.0120
26916W        W42385   0.942  17.812   5.706 -0.0032 -0.0767 -0.0456
26917W        W42386   0.649   1.853  16.503  0.1855 -0.1473  0.0507
26918W        W42387  12.007   2.844   0.992 -0.1276  0.3805  0.1110
26919W        W42388   6.196   1.165   5.416 -0.1561  0.5145  0.1589
26920W        W42389   7.823   7.330   5.746  0.1542  0.3154 -0.2642
26921W        W42390  10.111   5.967   5.354  0.2893 -0.1415  0.3163
26922W        W42391  10.109   1.190   0.611  0.2891  0.2154 -0.1317
26923W        W42392  13.775  10.166   5.091  0.0946  0.0839  0.0806
26924W        W42393  10.115  12.586  12.693 -0.4255  0.1217 -0.0765
26925W        W42394   9.696   5.884   6.234  0.0374 -0.2347  0.1529
26926W        W42395   9.395  13.400   0.052 -0.2248  0.2656 -0.0183
26927W        W42396  14.928  15.393  16.583 -0.1857  0.2558 -0.3030
26928W        W42397   4.718  15.208  14.405  0.1244  0.0445 -0.0040
26929W        W42398  11.968  10.180   0.360 -0.2144  0.2699  0.1172
26930W        W42399  17.003   5.001   5.409  0.2273  0.1311 -0.2527
26931W        W42400   1.085  16.865   5.258  0.1505 -0.6021  0.0991
26932W        W42401  12.537   0.287   4.325 -0.1884  0.2489  0.0369
26933W        W42402  17.685   7.510  11.003 -0.0906  0.2055  0.0858
26934W        W42403   8.414  18.001   5.762  0.1662  0.5769 -0.2884
26935W        W42404   9.709   8.242  16.582 -0.0368 -0.3330 -0.4222
26936W        W42405   0.917   9.570   2.538  0.1152 -0.1095 -0.0179
26937W        W42406  16.715  11.876  14.052  0.1298 -0.1704  0.0552
26938W        W42407   6.770   0.968  14.436 -0.0826 -0.0832 -0.1226
26939W        W42408   6.209   5.410  12.272  0.0912  0.2597 -0.3055
26940W        W42409   4.190   1.811  15.079 -0.0832 -0.2392 -0.1401
26941W        W42410  12.816   6.404  13.543  0.2408  0.0884  0.2037
26942W        W42411   9.426   5.336   3.852  0.3344 -0.0856 -0.2282
26943W        W42412   3.032   8.882  15.023 -0.0366 -0.3208  0.1026
26944W        W42413   6.900   8.845  14.148 -0.0551  0.0625 -0.0887
26945W        W42414   6.479   7.056   3.057  0.1528  0.0645  0.0574
26946W        W42415   1.689  14.714  16.575  0.1249 -0.2123 -0.1462
26947W        W42416   4.785  14.342   3.466  0.1706  0.1658 -0.0130
26948W        W42417   8.566   4.541   5.549 -0.0242  0.0070  0.0401
26949W        W42418   9.501  13.058   5.373  0.1292  0.2871 -0.1793
26950W        W42419   7.984  12.657  12.488  0.0570  0.0204 -0.0683
26951W        W42420  12.316   6.721   1.875  0.1735  0.0312  0.0740
26952W        W42421  15.608   5.563   4.064  0.0209 -0.1812  0.2772
26953W        W42422  16.912   0.676  13.484 -0.0224 -0.0254  0.2297
26954W        W42423   8.887   4.173  15.211  0.0296  0.0372 -0.0932
26955W        W42424  15.970  13.791   0.486  0.0885  0.2163 -0.2064
26956W        W42425  12.922   9.997  10.832 -0.0146 -0.0538 -0.1328
26957W        W42426  12.749  15.097   6.797 -0.1290 -0.2298 -0.4559
26958W        W42427  13.653   1.950  14.315  0.1411 -0.0979 -0.1252
26959W        W42428   7.856   3.917  12.446  0.2739  0.0756 -0.1125
26960W        W42429   9.244   5.955  15.426  0.2126 -0.2385  0.1931
26961W        W42430   7.161   8.318  14.027  0.1709 -0.1080 -0.2261
26962W        W42431   6.797  14.656   4.347  0.2148  0.1318  0.0460
26963W        W42432  12.851   3.180  15.970 -0.1562  0.1206 -0.2051
26964W        W42433  11.067   7.445   4.111  0.0296 -0.1229 -0.0610
26965W        W42434   6.011   5.859   3.327  0.0071  0.0544 -0.1813
26966W        W42435  15.450   6.552  16.212 -0.1200  0.0493 -0.1669
26967W        W42436   0.661  17.081   1.259  0.1584  0.2023 -0.4632
26968W        W42437   1.404   5.009   0.319 -0.1980  0.0888  0.0939
26969W        W42438   9.064   6.098  15.937 -0.1029  0.2053 -0.0912
26970W        W42439  12.454  12.411  14.754 -0.0384  0.1300 -0.0351
26971W        W42440  17.587   3.299  13.697  0.0390  0.0251 -0.4686
26972W        W42441  11.537   2.690  12.233 -0.3038  0.1541 -0.1539
26973W        W42442  11.227   1.955  12.177  0.1115 -0.0035 -0.1777
26974W        W42443   2.488  12.084  11.572  0.2603  0.2499 -0.2475
26975W        W42444  17.384  11.869  11.975 -0.0161 -0.0510 -0.0027
26976W        W42445  10.969  11.358  15.909 -0.1077 -0.3001  0.2772
26977W        W42446  15.192  16.308   4.652  0.1892  0.1143  0.1249
26978W        W42447   1.596   2.961  16.000 -0.1124 -0.0234 -0.1401
26979W        W42448  16.514   1.244   0.417  0.0110  0.0968  0.2755
26980W        W42449   7.087   6.005   1.907 -0.2538  0.0013  0.0024
26981W        W42450   5.227  16.454   0.061  0.0622 -0.0690  0.0532
26982W        W42451   4.852  11.509  15.508 -0.0644 -0.1703 -0.1706
26983W        W42452   4.616  11.158   2.697  0.2279 -0.0049  0.3737
26984W        W42453   8.469   3.113  14.442 -0.1214 -0.1150  0.1322
26985W        W42454   2.610   8.031  13.496  0.1815  0.2891  0.1300
26986W        W42455  14.043  11.458  13.471 -0.0461  0.2587  0.0243
26987W        W42456   8.739  15.111  15.937  0.2648  0.1783 -0.0495
26988W        W42457   9.493  17.881  11.848 -0.0923  0.2131  0.1777
26989W        W42458  17.617  15.569   4.113  0.1089  0.2379  0.1626
26990W        W42459   8.821   3.943  16.078 -0.1878  0.4001 -0.0881
26991W        W42460   3.125  10.957   1.155 -0.1212 -0.2619 -0.1865
26992W        W42461   2.740   8.841  13.850 -0.0594  0.2525 -0.3085
26993W        W42462  14.736  13.360  14.570  0.0529 -0.1477  0.3159
26994W        W42463  10.340  17.443  14.761  0.1522  0.2728 -0.0586
26995W        W42464   9.068   3.045   3.715 -0.1276  0.0987 -0.1690
26996W        W42465   5.040   9.168   1.837 -0.1454 -0.0815  0.0322
26997W        W42466  12.462   2.300   4.186 -0.0876  0.1226  0.1910
26998W        W42467  10.510   9.187   5.333 -0.2537 -0.2086 -0.0882
26999W        W42468   4.853   0.183   5.777  0.1224  0.3030 -0.2049
27000W        W42469  15.141   8.964   2.624  0.1921  0.0524 -0.1455
27001W        W42470   7.965  16.357  11.456  0.1431  0.0805 -0.0734
27002W        W42471  13.403   1.943   1.790 -0.0913  0.2458 -0.0439
27003W        W42472   2.464   8.180   3.076 -0.0533 -0.0481  0.0578
27004W        W42473  16.900  14.297   5.166 -0.3163  0.3234 -0.0241
27005W        W42474   9.413   7.341   3.015 -0.0258  0.1566 -0.4447
27006W        W42475   8.044   5.302  11.670 -0.1178  0.2142  0.0592
27007W        W42476  14.610   3.532  13.869  0.1718  0.0015 -0.3124
27008W        W42477  13.145  10.060   4.126  0.2409 -0.0234  0.2097
27009W        W42478  17.292  13.493   4.066 -0.1404  0.1417 -0.1606
27010W        W42479   2.485   6.951   3.236  0.3277  0.1575  0.2236
27011W        W42480  10.399   6.862   0.870  0.1065  0.0114  0.1315
27012W        W42481  11.947   6.313  12.660 -0.0342  0.2978 -0.1627
27013W        W42482  17.486  10.949  14.065  0.2144 -0.1033  0.0555
27014W        W42483   7.083   9.299  14.297 -0.1983 -0.0814  0.1757
27015W        W42484   0.176  17.850  12.670  0.2471  0.2275  0.2089
27016W        W42485  10.391  11.621  11.976 -0.2007  0.0661  0.1488
27017W        W42486   7.022   2.132  16.411 -0.0916  0.0447 -0.1697
27018W        W42487   1.454  14.347  15.253  0.2190  0.3420  0.0186
27019W        W42488   2.545  12.796   3.483 -0.2039 -0.0727  0.0853
27020W        W42489   1.136  15.255   2.256  0.1464 -0.0456  0.0459
27021W        W42490   1.993  14.312  13.586  0.1701 -0.2351 -0.2770
27022W        W42491   7.028   7.899  13.797  0.0719  0.0481  0.2085
27023W        W42492  14.139   2.861   6.099 -0.0635 -0.1014 -0.1965
27024W        W42493  16.707  17.816   1.448 -0.3362 -0.0221  0.0206
27025W        W42494   1.468   5.305  13.213  0.0401  0.1055 -0.1175
27026W        W42495   0.020  10.437   4.417  0.0468 -0.1464 -0.0982
27027W        W42496  13.461   6.871   2.044 -0.1769  0.1477 -0.1786
27028W        W42497  13.690   9.599   4.260 -0.1585  0.3340  0.0182
27029W        W42498   4.603   8.801  11.453  0.1019  0.2662  0.0051
27030W        W42499   9.855   0.948   6.134  0.0367 -0.0282  0.2635
27031W        W42500   9.276  16.200  11.609 -0.1064  0.0512 -0.0496
27032W        W42501  15.491   2.420  15.994  0.0804  0.4105 -0.0077
27033W        W42502  10.966  13.036  15.975  0.1590  0.2887  0.0838
27034W        W42503   8.406  10.718  12.759 -0.0965  0.0107 -0.3012
27035W        W42504   1.952   4.624  16.323  0.1024  0.1045 -0.0641
27036W        W42505   9.350  10.857  13.426 -0.0690  0.0355 -0.0676
27037W        W42506  15.414   6.231  13.890  0.2483  0.3001 -0.1142
27038W        W42507   3.863   2.464  12.654 -0.3574  0.0418  0.2673
27039W        W42508  12.288   6.302  14.940 -0.0377  0.3710 -0.0581
27040W        W42509  10.117   1.600  15.175  0.2150 -0.1382  0.2726
27041W        W42510  13.977   8.791   2.619 -0.1244  0.0486 -0.6139
27042W        W42511  17.581   0.081   2.586 -0.1953 -0.0686  0.2885
27043W        W42512   5.998  15.464   0.859 -0.0396  0.0931  0.1530
27044W        W42513  12.496   4.746   0.465 -0.3047  0.1355 -0.2100
27045W        W42514   9.455  15.279   4.305 -0.1036 -0.1571  0.3659
27046W        W42515  13.059  10.967  13.546  0.0360 -0.0471 -0.1279
27047W        W42516  14.762   2.044   1.119 -0.0443  0.1361 -0.0358
27048W        W42517   9.960   6.620   3.629 -0.2289 -0.0057 -0.0846
27049W        W42518   1.198   6.448  12.196 -0.0495  0.1360 -0.2604
27050W        W42519   8.731  16.923   1.671 -0.0964  0.0899 -0.3482
27051W        W42520   5.934   9.838   4.022  0.0082  0.0766 -0.0348
27052W        W42521   0.618   5.376   2.473  0.0573 -0.0617  0.2082
27053W        W42522   0.266   6.166  15.080  0.0042  0.1870  0.0077
27054W        W42523  15.285  13.382   3.611 -0.3632  0.3194 -0.0180
27055W        W42524  16.436  12.028  16.571  0.0352  0.1250 -0.0212
27056W        W42525   0.390  15.620   2.005 -0.2435  0.1292  0.0650
27057W        W42526  11.901  13.764   4.289 -0.0406 -0.1646 -0.0563
27058W        W42527  17.294  13.684   5.735  0.0266 -0.2068 -0.1217
27059W        W42528   9.663   4.534  13.805 -0.2100  0.0788 -0.3709
27060W        W42529   9.408   6.849   4.497 -0.3754 -0.1010 -0.1671
27061W        W42530   1.342   1.721   3.768  0.0430 -0.3081 -0.6698
27062W        W42531  11.028   6.306   1.610  0.1236 -0.1075  0.2313
27063W        W42532   3.389   0.371  15.808 -0.0370 -0.2644  0.0410
27064W        W42533   6.812   2.571   2.667 -0.0558 -0.1189 -0.1662
27065W        W42534  12.860   0.839  15.462  0.0037  0.3002 -0.0456
27066W        W42535  14.755  13.517  15.764 -0.0444 -0.0518  0.1499
27067W        W42536   2.588  11.613   3.414  0.2331  0.1200  0.0188
27068W        W42537   7.483   2.756   5.288 -0.0320 -0.3825  0.0080
27069W        W42538  16.725   0.312   2.239  0.2575 -0.1738  0.0247
27070W        W42539  14.546  16.371  12.432  0.3827  0.0912 -0.1787
27071W        W42540   6.465   2.214  12.436 -0.1314 -0.1911  0.0939
27072W        W42541   0.833  17.393  15.614 -0.3885  0.0583  0.0965
27073W        W42542   1.183   5.885  14.785  0.0934  0.1226  0.1650
27074W        W42543  11.594  17.563  12.030  0.2552 -0.2769  0.2594
27075W        W42544  14.147   5.949  12.304  0.1942  0.1745 -0.1097
27076W        W42545  17.785  17.399   0.473 -0.2286  0.1938 -0.0371
27077W        W42546   7.946  14.873   2.951  0.0388  0.1761 -0.2098
27078W        W42547  17.930   3.228   0.925 -0.2346  0.1980 -0.2031
27079W        W42548  12.988   2.122   4.208 -0.0849 -0.0202 -0.3253
27080W        W42549  13.496   9.693   2.943 -0.3562  0.0551 -0.2313
27081W        W42550   6.527  11.885   4.030 -0.1996 -0.0526 -0.0678
27082W        W42551   2.389   7.695  16.134  0.0095 -0.2442  0.0659
27083W        W42552   5.135  11.715  10.318 -0.4441  0.0242 -0.0349
27084W        W42553  16.125   4.276   3.764 -0.1301  0.4512  0.2771
27085W        W42554   1.119  13.704  16.074 -0.1037 -0.1233  0.1768
27086W        W42555   3.413   0.842  12.625  0.4269  0.0483  0.0878
27087W        W42556   8.074  10.508  11.576  0.0202  0.0416  0.5597
27088W        W42557  16.712  12.591  13.589  0.1362  0.2208 -0.2942
27089W        W42558  13.159   9.933  11.249 -0.0521 -0.0977 -0.3529
27090W        W42559  11.549   5.397   1.357 -0.3542  0.0521 -0.2825
27091W        W42560   5.422  10.751  14.627 -0.2546 -0.2338  0.0654
27092W        W42561  15.811   1.653  14.559  0.2167 -0.0354 -0.4656
27093W        W42562   4.947   9.333  16.602  0.0535  0.1513  0.1611
27094W        W42563   3.885  17.377  11.452  0.0543 -0.4696  0.4974
27095W        W42564   0.612   4.671  14.070  0.3364 -0.2915 -0.0721
27096W        W42565  10.084  13.574  11.887  0.0006  0.1698  0.0967
27097W        W42566   7.923  12.591   3.050  0.0170 -0.1052 -0.1667
27098W        W42567  11.262  17.541  13.097  0.0447 -0.2023  0.2893
27099W        W42568  16.659   4.517  12.284 -0.0564  0.0150 -0.1777
27100W        W42569  14.313  16.273   4.385 -0.0667 -0.0508  0.1204
27101W        W42570  17.882   3.219  11.733 -0.0878 -0.1214 -0.4288
27102W        W42571  11.606  13.421   5.285 -0.4143  0.0146 -0.1817
27103W        W42572  14.575   8.098  10.716  0.0470 -0.2449  0.1209
27104W        W42573   6.585   4.206   4.130 -0.1280 -0.1855 -0.0017
27105W        W42574   9.356   0.784   0.338 -0.1744  0.0289  0.0071
27106W        W42575   8.048  13.742   4.240  0.0488  0.1616  0.2399
27107W        W42576   9.046   1.506   1.042  0.1250  0.0734  0.1354
27108W        W42577   9.386   9.513   0.022 -0.1358 -0.2180  0.1372
27109W        W42578   7.104  15.023   3.448 -0.0383 -0.0378 -0.2951
27110W        W42579  10.285   0.680   0.720 -0.1971 -0.1074 -0.0981
27111W        W42580   0.554   8.952   1.341 -0.1519  0.2233  0.0643
27112W        W42581   5.459   5.346   1.153 -0.1993  0.0449 -0.1139
27113W        W42582  16.657   5.056   3.591  0.3659 -0.0992  0.1219
27114W        W42583   8.326   4.298   3.000 -0.0396  0.1091 -0.0407
27115W        W42584   8.403  15.865   2.378  0.0660 -0.2200 -0.0982
27116W        W42585   6.794  12.430   3.292  0.0320 -0.0638  0.3855
27117W        W42586  16.183  15.069  15.332  0.3116  0.1331  0.0215
27118W        W42587   3.946   7.724  15.089  0.1288 -0.0996 -0.3451
27119W        W42588  16.384   2.240  12.709  0.0931 -0.3582  0.3261
27120W        W42589  16.380   6.042  11.242  0.0044 -0.2794 -0.0586
27121W        W42590  10.171   1.977   4.198 -0.1805 -0.2888  0.0567
27122W        W42591  17.836  16.926   6.140  0.3386 -0.2659 -0.0975
27123W        W42592   6.379   2.271   2.348 -0.3556  0.0480  0.0910
27124W        W42593   3.159   0.395   1.817  0.1356 -0.0129  0.4085
27125W        W42594  11.408  11.493   5.190 -0.2078  0.2495 -0.2545
27126W        W42595   6.449   9.463   3.298 -0.2729  0.2269  0.0475
27127W        W42596  12.485  14.200  11.503  0.1899 -0.0276 -0.0528
27128W        W42597   7.689  17.921   2.415 -0.2373 -0.0089 -0.0480
27129W        W42598   1.207  16.691   3.060 -0.2136  0.0706 -0.2660
27130W        W42599   0.926  13.324   3.233  0.1412  0.0262 -0.0606
27131W        W42600   1.774  15.969   5.278 -0.1677  0.2973 -0.1244
27132W        W42601  17.005   9.774  16.384 -0.0562 -0.1075  0.1691
27133W        W42602   1.021  14.139   2.612  0.3864  0.0371 -0.0790
27134W        W42603   4.533  12.009   0.383  0.2048  0.1566  0.2142
27135W        W42604  14.479  14.737   2.484 -0.1999 -0.3221  0.0955
27136W        W42605  15.956   4.973   4.761 -0.1358  0.2356 -0.1472
27137W        W42606  16.660   8.173  16.408  0.2742 -0.3920 -0.1454
27138W        W42607   8.411  17.272   5.194 -0.1354  0.0052 -0.1221
27139W        W42608   8.550   0.738   1.985  0.0194 -0.0984  0.0571
27140W        W42609   2.931  12.666   1.631 -0.1841 -0.1342 -0.1937
27141W        W42610  16.763   5.464   0.287  0.3266 -0.0192  0.0407
27142W        W42611  11.415  16.121  16.212  0.0371 -0.2960 -0.1101
27143W        W42612  16.224   7.852  14.935  0.2579 -0.1495 -0.2786
27144W        W42613   7.218   4.218   5.272  0.0639  0.1991 -0.0680
27145W        W42614   7.044   1.352  14.808 -0.4282  0.0878 -0.0396
27146W        W42615   5.753   4.011   4.277  0.0783 -0.2709 -0.2782
27147W        W42616  13.877   8.780   3.445 -0.0763 -0.2171 -0.1005
27148W        W42617   0.051  16.796   5.187 -0.2906  0.0135 -0.2116
27149W        W42618   7.221  13.955  14.381 -0.0170 -0.1912  0.1523
27150W        W42619   4.217   7.508  16.392  0.3007  0.0386 -0.0235
27151W        W42620   5.081  10.308  14.893 -0.0814 -0.0362  0.0926
27152W        W42621  17.123   4.217  12.269 -0.2564  0.0525  0.2561
27153W        W42622  13.773  12.498  12.306  0.0483  0.0418  0.2289
27154W        W42623  12.529  16.448   5.367 -0.0328  0.1414 -0.0366
27155W        W42624   1.022  17.663   4.373  0.1947  0.1039  0.2464
27156W        W42625  14.279  17.801  11.960  0.2660  0.0579 -0.1498
27157W        W42626   9.339   0.980   6.113  0.1943  0.2175  0.0796
27158W        W42627  15.866   0.533   4.653  0.0052  0.1105 -0.0268
27159W        W42628  15.519   9.648   4.858 -0.1338  0.2130  0.0302
27160W        W42629   9.568  17.098  14.782  0.1046 -0.0702  0.1843
27161W        W42630  17.425   9.242  12.393  0.0314  0.2564  0.1582
27162W        W42631  16.563  11.350   5.474 -0.0680  0.1538 -0.0586
27163W        W42632  17.628  10.045  12.201  0.0788  0.1853  0.0797
27164W        W42633  12.453   6.058  15.396 -0.0238  0.1885  0.0287
27165W        W42634   4.582  13.127  16.312  0.2009  0.0424  0.0763
27166W        W42635   7.703  12.053   4.533 -0.2119 -0.2869 -0.0016
27167W        W42636  14.196   5.676   2.674  0.2324 -0.2352 -0.0527
27168W        W42637   7.291  17.365  13.272 -0.0745 -0.0807 -0.0706
27169W        W42638  13.502  17.924  13.503 -0.0864 -0.0476 -0.2320
27170W        W42639   5.876   9.976   3.492  0.2462 -0.4556 -0.0126
27171W        W42640   3.360   2.792   0.095 -0.2423  0.2422  0.2481
27172W        W42641  12.231   1.209   1.400 -0.2230  0.2324 -0.2872
27173W        W42642   2.483  14.037   6.191 -0.3869 -0.0802 -0.3058
27174W        W42643  15.424  15.753   4.486 -0.2141  0.0236  0.0823
27175W        W42644   1.533   7.203  12.892  0.1868 -0.1506  0.2734
27176W        W42645   7.240   1.915   4.062 -0.0787  0.0943 -0.2101
27177W        W42646   1.132   0.057  11.984  0.3725 -0.1948 -0.0444
27178W        W42647  13.909  16.507   4.128 -0.3448 -0.0712  0.0462
27179W        W42648   8.535   6.433   3.441 -0.0825 -0.2509 -0.0424
27180W        W42649   6.207  14.089   4.121 -0.0515  0.0321 -0.1223
27181W        W42650   1.647  13.871   4.535  0.1846 -0.0814  0.1092
27182W        W42651  13.594   3.615  15.461  0.1823 -0.4408 -0.0369
27183W        W42652   4.178   6.971  11.650 -0.0231  0.1366  0.2513
27184W        W42653   5.621  11.510  14.084  0.2523  0.1759  0.1577
27185W        W42654   7.022   0.111  12.214 -0.0499 -0.0376 -0.0634
27186W        W42655  12.672   2.621  12.938 -0.2899  0.2447 -0.3336
27187W        W42656  10.163  14.786  12.658  0.0096 -0.1040  0.0225
27188W        W42657   6.986  17.013  16.614 -0.0256 -0.3229 -0.0230
27189W        W42658   9.045   9.039  12.532 -0.0252  0.2346  0.2526
27190W        W42659  15.352  16.860   0.541 -0.2604  0.3142 -0.1848
27191W        W42660  16.560  16.954  14.173  0.1977  0.5397  0.1386
27192W        W42661  17.348   8.362  12.480  0.2781  0.1461  0.4454
27193W        W42662   6.154  10.012  13.905  0.0538  0.0145 -0.0921
27194W        W42663  13.858   7.399  11.110  0.0245 -0.1303  0.0607
27195W        W42664  12.441  17.256  15.045  0.0283  0.0037  0.1405
27196W        W42665  11.401   2.470  16.265  0.2997  0.1263 -0.1195
27197W        W42666  14.368   5.974  10.954  0.1842 -0.1958 -0.0054
27198W        W42667   3.976  11.365  13.059 -0.0586  0.0810  0.2042
27199W        W42668   5.419  17.708   1.853  0.0226 -0.1961 -0.0870
27200W        W42669   5.503  12.720  14.947 -0.0206 -0.0286  0.2189
27201W        W42670   3.557   1.536   4.779 -0.3287  0.0475  0.0820
27202W        W42671   9.549  15.623   5.946 -0.0912 -0.1365  0.0982
27203W        W42672  15.300   2.063  13.790  0.1493  0.0742 -0.2223
27204W        W42673  10.997   9.192  13.283  0.1524 -0.0787  0.1665
27205W        W42674  12.297   3.516   0.179 -0.3816  0.0311 -0.0223
27206W        W42675  16.378   8.024  11.698 -0.0731 -0.0254 -0.1297
27207W        W42676  13.471   2.551  12.451  0.1080 -0.0431  0.1603
27208W        W42677   9.315   5.099  11.590  0.0658  0.1775  0.1375
27209W        W42678   8.154  13.949  10.985 -0.2252  0.0727 -0.0166
27210W        W42679   9.847  17.470  13.218 -0.2177  0.3742 -0.2391
27211W        W42680   3.980  14.807  13.067 -0.0409 -0.0634  0.3365
27212W        W42681  13.243   9.466   2.516 -0.0680  0.0196 -0.1774
27213W        W42682  15.225  17.229   0.147 -0.1214 -0.2590 -0.2284
27214W        W42683  10.701  13.106  12.296  0.0613  0.1604  0.0534
27215W        W42684  12.662   0.271   2.800 -0.0907 -0.0151  0.4413
27216W        W42685   1.118  16.439   1.585  0.0275 -0.2650 -0.1021
27217W        W42686   0.083  13.245   4.814 -0.0914  0.0492  0.2872
27218W        W42687  11.910   9.163  14.363  0.4484  0.0273  0.0882
27219W        W42688  10.655   9.999  15.160 -0.0631  0.0405  0.1628
27220W        W42689   6.668   8.063  16.352 -0.1888  0.0330 -0.2113
27221W        W42690   1.405   0.886   6.334 -0.2577  0.0035 -0.1873
27222W        W42691  13.172   3.669  11.004  0.0394  0.0527 -0.0028
27223W        W42692   0.864   6.512  15.523  0.0647  0.0105  0.1924
27224W        W42693   7.245  16.986  11.772  0.1100  0.0367  0.1374
27225W        W42694   2.566   0.864   2.282  0.0530  0.2004  0.1501
27226W        W42695   0.521   0.671   3.026  0.0069 -0.2553 -0.1815
27227W        W42696  10.884  13.591  11.971  0.1081  0.2309  0.3040
27228W        W42697  16.007  12.312  16.452 -0.4057  0.0765 -0.0844
27229W        W42698  15.567   6.587   4.135 -0.2822 -0.1345  0.0761
27230W        W42699   2.721   3.901  14.367  0.0286  0.0563 -0.2756
27231W        W42700  13.230   9.836   3.340  0.0486  0.3235 -0.0082
27232W        W42701   6.324  17.303  13.326 -0.1284 -0.1335 -0.0653
27233W        W42702  14.477   6.929   1.933  0.2519  0.1975 -0.2097
27234W        W42703   5.066   3.880  14.731  0.1019 -0.1460 -0.1888
27235W        W42704   6.873   8.099   1.975  0.1923 -0.1269  0.1441
27236W        W42705   1.968  12.067   1.063 -0.3324  0.1176  0.1893
27237W        W42706  17.461  11.764  14.219  0.2264 -0.4598  0.2538
27238W        W42707  10.756   6.514   0.812  0.0226 -0.0050  0.0509
27239W        W42708   1.927  15.592  12.257  0.0293  0.0690 -0.1311
27240W        W42709  16.943   8.227   2.930  0.0489 -0.0226 -0.0870
27241W        W42710  17.164   1.655   4.174 -0.1135 -0.1914  0.0056
27242W        W42711  16.836   8.739  15.117  0.0460  0.2502  0.0530
27243W        W42712   9.148  13.896   2.483  0.1256 -0.0984  0.1505
27244W        W42713  10.248   9.059   4.843  0.1565 -0.0225  0.0438
27245W        W42714   7.921  13.678   5.900  0.1818 -0.0191 -0.1401
27246W        W42715   1.881  13.567   2.202 -0.3283 -0.0918  0.1187
27247W        W42716   7.586   9.847  13.482 -0.0826 -0.2111  0.0505
27248W        W42717  15.636  13.989   5.262  0.0256 -0.0298  0.1536
27249W        W42718   3.945  11.110   3.217 -0.1728  0.4483  0.1306
27250W        W42719   9.063  17.866  16.387  0.1371 -0.0820 -0.1236
27251W        W42720   9.546   7.402  16.208  0.1088 -0.1696 -0.1675
27252W        W42721   9.823   8.089   1.126 -0.0491 -0.0829 -0.1511
27253W        W42722   1.398  11.577  16.539  0.0579 -0.3218 -0.1090
27254W        W42723   8.446   3.688  14.735 -0.0860 -0.2741 -0.0832
27255W        W42724   3.392  14.321   4.075  0.3586 -0.2212  0.2120
27256W        W42725  17.013  13.183   1.833 -0.2934  0.1553 -0.0685
27257W        W42726  12.027   1.630  12.981  0.0643  0.0387  0.0627
27258W        W42727   4.010   3.092  15.897  0.0646  0.0552 -0.2425
27259W        W42728   3.551  16.448   5.125  0.1076  0.0109 -0.0501
27260W        W42729   4.592  10.527  10.227  0.1820 -0.0681 -0.5590
27261W        W42730  11.527   9.321  12.654  0.0065 -0.1116  0.0333
27262W        W42731   4.443   8.586   0.723  0.0976  0.0860  0.1640
27263W        W42732  15.746  11.497   0.108  0.2401  0.2867 -0.3750
27264W        W42733   0.831  11.914  11.348  0.1502  0.3135  0.1357
27265W        W42734  10.301  11.936   3.677  0.0628  0.2207 -0.1477
27266W        W42735   1.527   5.475  14.070 -0.1026  0.3962  0.0896
27267W        W42736  17.018   2.556  13.304 -0.1635  0.1168  0.2518
27268W        W42737  16.650   7.104  15.266  0.2949 -0.0486 -0.4277
27269W        W42738   8.022  15.629  13.854  0.0389  0.1614  0.3436
27270W        W42739   6.239   4.833  15.536 -0.1698  0.1117  0.1896
27271W        W42740  15.176   8.013  15.452  0.1306  0.1170 -0.0162
27272W        W42741  17.954   3.434  14.626  0.3751  0.1028 -0.0446
27273W        W42742  16.935  11.942   1.307  0.3328  0.0813 -0.1082
27274W        W42743  10.407  11.706  13.767 -0.2546  0.1840  0.2200
27275W        W42744  15.942  13.351   1.185  0.0155 -0.0421 -0.1731
27276W        W42745   6.255  12.615   3.223 -0.2279  0.2012 -0.2663
27277W        W42746  11.915  16.601   1.738 -0.0253 -0.1873  0.0778
27278W        W42747  13.511   9.839  11.649 -0.1478  0.1302 -0.0447
27279W        W42748  13.576  16.440  13.654 -0.0238 -0.2682  0.0583
27280W        W42749   7.160  14.260   0.208  0.0120 -0.0506  0.1343
27281W        W42750  10.666  15.358  13.969  0.0926 -0.1276 -0.2336
27282W        W42751  11.014   0.981  16.544 -0.0069 -0.0510  0.0053
27283W        W42752   9.591   6.284  12.784  0.1005 -0.2281 -0.1464
27284W        W42753  15.270  16.364   3.060  0.0834 -0.2780 -0.0562
27285W        W42754   4.487  15.961   5.626 -0.0343 -0.0424 -0.0811
27286W        W42755  14.814  15.847  13.628 -0.1220 -0.0691  0.0065
27287W        W42756  14.918   9.399  10.806  0.0625 -0.1379 -0.3191
27288W        W42757   3.589   7.980   0.610 -0.1882 -0.0239  0.2542
27289W        W42758   7.295  13.500   4.577  0.0609  0.2005 -0.0859
27290W        W42759  17.679  12.598  11.402 -0.1219 -0.1173 -0.1688
27291W        W42760   9.948  11.986   2.772 -0.0646 -0.2657  0.1189
27292W        W42761   4.587   6.203  11.607 -0.2029  0.0499 -0.2494
27293W        W42762  10.306  14.438   2.232 -0.0300  0.0188 -0.2139
27294W        W42763   0.268   4.145   2.267  0.1358  0.0961 -0.1275
27295W        W42764  13.201   7.361  15.121 -0.0133  0.2572 -0.3492
27296W        W42765  11.489   7.631  10.823  0.2982  0.2818  0.1497
27297W        W42766   9.542   0.545   3.573  0.0994  0.2340 -0.1471
27298W        W42767   5.485   8.844  12.620  0.0752 -0.0633 -0.0652
27299W        W42768  16.501   9.797  11.126 -0.2487 -0.0196 -0.1272
27300W        W42769   9.240   2.370   6.553  0.0354  0.0813  0.1733
27301W        W42770  15.825   0.228   4.134 -0.1020  0.0524  0.1904
27302W        W42771  14.130   9.002   1.787 -0.2251 -0.3337  0.0462
27303W        W42772  17.244   4.237  16.081 -0.0930 -0.2057 -0.1810
27304W        W42773  10.028  16.006   4.564  0.1939  0.1960  0.1859
27305W        W42774   0.955   7.698  12.296  0.1583  0.0048  0.1248
27306W        W42775   0.177  10.690  12.814 -0.0578 -0.0517  0.1874
27307W        W42776   0.034  14.744   5.538  0.1847 -0.0299  0.0226
27308W        W42777   6.437   7.958  11.291 -0.2473 -0.1471  0.1275
27309W        W42778   7.605  12.130   2.890  0.1856  0.0135  0.4187
27310W        W42779  17.073   1.465   1.315  0.1716 -0.1454  0.2096
27311W        W42780  16.384  11.533   1.464 -0.2010  0.2232  0.0460
27312W        W42781  12.592   7.537  12.614 -0.1997  0.0656  0.0782
27313W        W42782   4.878   3.326   2.351  0.1161  0.2183  0.0807
27314W        W42783  17.130  15.472   4.254 -0.0989 -0.0524 -0.3667
27315W        W42784  17.659  11.856   0.104 -0.2772  0.0679  0.0810
27316W        W42785  16.283  11.873  12.816  0.1271  0.2719 -0.0986
27317W        W42786   5.788   8.423  12.536  0.2183 -0.0520  0.2653
27318W        W42787   4.612   4.654  10.984  0.0695 -0.0875 -0.0564
27319W        W42788  10.497  11.696  14.260  0.0423 -0.2262 -0.1313
27320W        W42789  10.506   6.876   3.449 -0.0801  0.0830 -0.0350
27321W        W42790  13.912   5.951  12.899 -0.3213  0.1381  0.0932
27322W        W42791   6.146   3.969   4.809 -0.1536 -0.3037 -0.0389
27323W        W42792  11.504   8.176   3.070  0.2765 -0.4232 -0.1247
27324W        W42793  16.923   8.125   0.247 -0.1254 -0.3570  0.4028
27325W        W42794   0.529  13.546  15.323  0.3312 -0.2493 -0.1435
27326W        W42795  15.697   1.036   3.999  0.0408 -0.2080  0.0110
27327W        W42796   5.755   3.560   1.554 -0.3442 -0.0718  0.1751
27328W        W42797  17.671   1.783  16.175 -0.2101 -0.0132 -0.0757
27329W        W42798  15.268   9.895   3.836  0.0663  0.0215 -0.2157
27330W        W42799   8.438  16.267  15.072 -0.1152  0.0763  0.0346
27331W        W42800  14.776   2.353  15.058 -0.2705 -0.1818  0.2177
27332W        W42801  15.611   2.669  12.537  0.2537 -0.0217  0.2095
27333W        W42802  15.137   3.889  16.555  0.1172  0.2027  0.1176
27334W        W42803   0.825   5.529   5.918  0.0372 -0.2392 -0.2824
27335W        W42804   3.287  17.221   2.393  0.2533 -0.1069 -0.0918
27336W        W42805   8.143   7.730  11.720  0.2982  0.0144  0.2525
27337W        W42806  16.837   1.148   3.294  0.0065  0.1737 -0.2050
27338W        W42807  15.907  15.825   4.140 -0.0423 -0.0669  0.0864
27339W        W42808  14.653   9.925  14.905 -0.1781 -0.0105 -0.0601
27340W        W42809  11.647   3.357   3.581  0.2141 -0.1529 -0.0009
27341W        W42810  17.007   6.279  12.945 -0.2871  0.3676  0.0449
27342W        W42811   9.465  11.627  15.477 -0.0035 -0.0584  0.0623
27343W        W42812   3.075   8.801   0.594 -0.1785 -0.2290 -0.0562
27344W        W42813   0.719   4.483  11.782 -0.0270  0.0099  0.0228
27345W        W42814   4.723   4.790  13.099 -0.3031 -0.3523 -0.1004
27346W        W42815   7.195   4.251   1.721  0.0774  0.2875 -0.1483
27347W        W42816   9.469   7.293   1.539 -0.0117  0.1207  0.1471
27348W        W42817   0.355   8.112  15.544  0.0069  0.3340  0.0923
27349W        W42818   1.313   4.409  12.990  0.1455  0.1552  0.0335
27350W        W42819   4.217  13.786  12.347 -0.1212 -0.2170 -0.0617
27351W        W42820   3.773   1.923   5.588  0.0398 -0.0179  0.1560
27352W        W42821   7.757  13.634   4.721  0.2993 -0.1031 -0.2366
27353W        W42822   0.714   7.970   1.439  0.1459 -0.0938  0.0252
27354W        W42823  12.347   3.168   1.688  0.0231  0.0092  0.2643
27355W        W42824  10.614  12.368  15.407 -0.1191  0.1313 -0.1545
27356W        W42825   6.034  11.146  14.151  0.1633  0.1067 -0.3534
27357W        W42826  15.782  10.005   3.002  0.1792  0.0665 -0.1028
27358W        W42827   0.260   6.096   3.923  0.0637  0.1215 -0.1293
27359W        W42828  13.365  13.483  15.309 -0.0235 -0.2490  0.2317
27360W        W42829  12.095   1.183  11.789 -0.0934  0.4081 -0.0841
27361W        W42830   5.910   7.614   2.796  0.2904  0.0913  0.2720
27362W        W42831   2.036   2.511   1.560 -0.2900 -0.1587  0.2356
27363W        W42832   2.301  17.046  12.337  0.2242  0.1610 -0.3396
27364W        W42833   3.560  10.642   1.354  0.1398  0.0456  0.0830
27365W        W42834  10.066  15.248  13.467 -0.2931 -0.0750  0.1080
27366W        W42835  16.608   2.862   1.338  0.1723 -0.0257 -0.1684
27367W        W42836   9.555   9.879  13.569  0.0307  0.3467  0.1613
27368W        W42837  12.776   4.968   1.877 -0.0053 -0.2102 -0.1363
27369W        W42838   0.425   2.454  14.202 -0.0105 -0.0872  0.0039
27370W        W42839   2.625  13.744  15.785 -0.2240  0.1269 -0.1892
27371W        W42840   0.407   9.231   0.938 -0.4253 -0.0083  0.2401
27372W        W42841  15.913   8.701   1.088 -0.2465 -0.0456 -0.1796
27373W        W42842  17.268  13.554  11.963  0.3168  0.0816 -0.0773
27374W        W42843  17.731  14.135   6.604  0.0553  0.0508  0.0497
27375W        W42844   6.204  11.700  12.638 -0.1518 -0.0897  0.1620
27376W        W42845  17.053   4.557   3.043 -0.1703  0.0324  0.0558
27377W        W42846  17.422   6.238   3.353  0.0184 -0.2457  0.1747
27378W        W42847   1.354   4.251  10.941 -0.1182 -0.2608 -0.4170
27379W        W42848   3.284   5.084  13.096  0.2040  0.3683  0.0585
27380W        W42849   3.308  14.419   4.945 -0.0686 -0.1010 -0.0348
27381W        W42850   4.911   5.000   5.609 -0.0016  0.0164 -0.1944
27382W        W42851  13.103  11.964  13.524  0.0595 -0.1774 -0.2227
27383W        W42852  14.684   7.358   0.205  0.0626 -0.3286 -0.2563
27384W        W42853  12.477  10.535   5.392 -0.0321 -0.0063  0.1505
27385W        W42854  13.361   9.053  13.005  0.0352 -0.0334 -0.0924
27386W        W42855  14.669  17.870   1.825 -0.1416  0.0445  0.2638
27387W        W42856  16.384   5.935   5.323  0.0831  0.1589 -0.2538
27388W        W42857   8.798  10.817  16.371 -0.0582  0.1227 -0.2844
27389W        W42858  14.706   9.371   4.333  0.3310  0.0336  0.0731
27390W        W42859  14.588   2.782  13.436  0.0333 -0.1875  0.0603
27391W        W42860   0.359   1.002   1.987 -0.1454 -0.0499  0.1217
27392W        W42861  11.555   7.811   5.095 -0.0084 -0.2397 -0.3411
27393W        W42862  15.374  17.118  12.542 -0.2483 -0.0145  0.3390
27394W        W42863   0.567   1.897  14.247  0.1569 -0.2996 -0.2148
27395W        W42864   6.295   4.801   4.391 -0.0144 -0.1739 -0.3534
27396W        W42865   4.071   2.645  14.399  0.1073 -0.0688  0.0719
27397W        W42866   1.623  16.948  15.791 -0.0278 -0.0770  0.0313
27398W        W42867   1.348   5.636   5.723 -0.1912  0.1824 -0.0213
27399W        W42868   2.817   5.948  10.901  0.0453 -0.0964  0.0594
27400W        W42869   8.964   8.612  12.147  0.2651  0.1742  0.2725
27401W        W42870  16.867  17.012   5.876 -0.1587 -0.2844 -0.0918
27402W        W42871  16.379  11.052  13.242  0.1134  0.0631 -0.2707
27403W        W42872   8.929   6.392   5.815 -0.1916  0.3350 -0.1268
27404W        W42873  11.378  10.744  12.562 -0.1071  0.1291 -0.1407
27405W        W42874   1.477  14.438   0.384  0.1005  0.3359  0.1892
27406W        W42875   6.484  15.097  15.118 -0.0348 -0.1196 -0.0232
27407W        W42876   3.765  13.108   5.278  0.0475  0.0364 -0.2833
27408W        W42877  12.671   8.356  14.067 -0.4226 -0.2143 -0.1769
27409W        W42878  14.988   5.348  13.682  0.1499  0.1362  0.0216
27410W        W42879   2.138  14.202   2.858 -0.3852 -0.1763  0.2585
27411W        W42880   8.640  15.531   1.345  0.0849  0.1458 -0.3719
27412W        W42881   2.963   4.599  15.745  0.0559  0.4468  0.0087
27413W        W42882   7.133   7.119  12.973 -0.2250  0.0544  0.1238
27414W        W42883   8.859  15.214  16.433 -0.3246 -0.0096 -0.4807
27415W        W42884   0.922   8.841   0.205  0.0067 -0.1457 -0.2254
27416W        W42885   8.385   5.150  14.112 -0.1628  0.2100  0.0482
27417W        W42886   0.627  15.925   1.199  0.0653  0.1789 -0.2060
27418W        W42887   2.039  10.385  12.206  0.0635 -0.1866 -0.3085
27419W        W42888  11.427  16.098  14.324  0.1814  0.2323  0.0446
27420W        W42889  10.968  15.911   3.511 -0.4404 -0.2947  0.0067
27421W        W42890  16.373  16.713  14.571 -0.0619 -0.0304 -0.1142
27422W        W42891  16.289  12.289  14.993  0.0148  0.1815 -0.0345
27423W        W42892   2.678   5.793   0.437  0.0745  0.2221 -0.1701
27424W        W42893  11.724   6.694   3.114  0.3977 -0.2286 -0.2012
27425W        W42894  10.691  13.367   2.933  0.1338  0.0751 -0.0730
27426W        W42895   4.003  15.598   0.318  0.1363 -0.2471  0.0879
27427W        W42896   9.629   7.193   5.342  0.1520  0.3989 -0.0730
27428W        W42897   5.008   7.851  11.549  0.1596 -0.1835  0.0714
27429W        W42898  15.031   7.256   4.698 -0.1207 -0.2988 -0.3595
27430W        W42899  12.912   0.480   0.150 -0.3743  0.1044  0.2328
27431W        W42900   6.510  16.666  13.500  0.2599 -0.0711 -0.0656
27432W        W42901   3.928   5.288  12.183 -0.1309 -0.0207  0.0460
27433W        W42902   1.545   8.143  14.852  0.3040 -0.0893 -0.2256
27434W        W42903   8.064  16.247   2.821 -0.0906 -0.0527  0.0519
27435W        W42904   1.460  10.969   4.218 -0.2050  0.5195  0.0607
27436W        W42905   0.772   1.675  15.562 -0.1224 -0.2212  0.0342
27437W        W42906   1.699  17.637   2.083 -0.0941 -0.1519  0.0216
27438W        W42907  11.663   5.128   3.042  0.0096  0.1705 -0.4303
27439W        W42908   9.781   7.870   0.620  0.1329  0.0089  0.1487
27440W        W42909   0.667  15.471   3.396  0.0575 -0.0357 -0.0231
27441W        W42910   3.373   1.851  13.105  0.4220  0.0263  0.0227
27442W        W42911   4.027   8.051  11.483  0.2011  0.1108  0.1021
27443W        W42912  13.437   8.980  15.040 -0.0535 -0.3347  0.2236
27444W        W42913  13.108   9.391  11.056  0.0047 -0.3327  0.0033
27445W        W42914   5.085   0.669  15.756  0.0703  0.2059  0.3246
27446W        W42915  14.171  16.778   2.077  0.0884  0.2145 -0.0566
27447W        W42916  16.102  16.482   1.830 -0.0795 -0.1021 -0.2440
27448W        W42917  13.656   7.650   1.524 -0.0548 -0.6011 -0.1371
27449W        W42918  12.222   9.803  12.353 -0.0221  0.0258 -0.1231
27450W        W42919   6.084   5.843  14.571  0.1987  0.1143 -0.1057
27451W        W42920  12.450   8.271   5.849 -0.1484  0.1598  0.0899
27452W        W42921  17.333  12.495   0.152 -0.2633 -0.0575 -0.1061
27453W        W42922  14.300  17.495   4.066  0.1681  0.2347  0.0103
27454W        W42923  12.455   8.424  11.201  0.0403 -0.1228 -0.3436
27455W        W42924   0.206  10.340   6.123 -0.0543  0.1011 -0.1140
27456W        W42925  10.141   3.366  14.478  0.0116  0.1368 -0.2231
27457W        W42926   5.641   0.311   4.535 -0.2311  0.0691 -0.0540
27458W        W42927   5.262  16.211   6.020 -0.1401 -0.3309  0.3369
27459W        W42928   3.402  17.955  11.981  0.0113  0.1904 -0.2759
27460W        W42929  12.620  10.873  12.977 -0.2625  0.1829  0.1644
27461W        W42930   6.643  17.836   3.932  0.0282 -0.1882 -0.2808
27462W        W42931  12.215  15.906  12.233 -0.3103  0.1816  0.0968
27463W        W42932  10.916  13.899   6.302 -0.1621 -0.1757 -0.3295
27464W        W42933  10.737   3.407  12.478 -0.0820  0.1053  0.1428
27465W        W42934   4.319   8.305  14.720  0.1899  0.0528  0.2038
27466W        W42935  17.614   9.098  14.441 -0.1801 -0.0674  0.0001
27467W        W42936   9.382   9.986  11.898 -0.2686 -0.2234  0.0446
27468W        W42937  17.358  16.766   1.537  0.0803  0.0639  0.2466
27469W        W42938   3.157   0.511   4.891 -0.0506  0.0205 -0.0736
27470W        W42939   6.374  11.022  16.248 -0.1140 -0.3643  0.1406
27471W        W42940  17.572   0.519  14.818  0.1517 -0.0590  0.0870
27472W        W42941  11.764   2.327  16.538  0.0230 -0.3321  0.0544
27473W        W42942  11.580  16.153   3.003 -0.0944  0.0229  0.0070
27474W        W42943  15.925   3.672   0.371  0.0736 -0.0038 -0.0854
27475W        W42944   7.508  11.682   2.089 -0.1533 -0.0232 -0.2248
27476W        W42945   9.782   3.219   4.179  0.1292 -0.2244 -0.2061
27477W        W42946  13.901   2.176  13.623 -0.0893 -0.0123  0.1055
27478W        W42947   9.875  10.157  13.877  0.2955  0.2694 -0.0255
27479W        W42948   3.524   8.692   5.158  0.1285 -0.2291 -0.1180
27480W        W42949   6.626   3.689   4.148 -0.0873  0.0300  0.0608
27481W        W42950   9.666  10.424  14.209 -0.1311  0.0244 -0.2294
27482W        W42951   5.134   9.599  14.261 -0.2323  0.2730 -0.2577
27483W        W42952  16.324   1.072   1.829  0.1771 -0.0387 -0.0590
27484W        W42953  12.177   5.360   2.183  0.0045  0.0813 -0.0010
27485W        W42954   7.126   0.265  12.715  0.2352  0.2465  0.0699
27486W        W42955  15.059   6.623  12.672  0.1950 -0.0627 -0.1488
27487W        W42956  10.097   6.232   1.473  0.1018 -0.0237 -0.0035
27488W        W42957  15.490  10.841  14.678 -0.1742  0.0792  0.1893
27489W        W42958   1.528  11.784  13.396 -0.2185 -0.0683 -0.0229
27490W        W42959   5.306   8.967   1.419 -0.2328  0.1125 -0.0161
27491W        W42960   1.127   8.332   2.958  0.2865  0.2861  0.2114
27492W        W42961   6.631   6.213   1.880  0.0268  0.2111  0.1086
27493W        W42962   6.470   9.583   4.715  0.1935 -0.3382 -0.1294
27494W        W42963   4.273   2.598  16.095 -0.0399 -0.2723 -0.1864
27495W        W42964  17.121   3.671  16.311  0.0673 -0.1039  0.3939
27496W        W42965   3.797   9.992   3.691  0.1504  0.5167  0.1490
27497W        W42966   3.821   2.302   5.163 -0.2089 -0.0559  0.0534
27498W        W42967   6.922   9.993  14.055  0.2371 -0.3358 -0.1243
27499W        W42968   1.012   2.612  15.670 -0.1646 -0.1090 -0.2718
27500W        W42969   9.908   8.799  12.536  0.1057  0.1908  0.2704
27501W        W42970   1.060  12.248  12.191  0.0434  0.0310 -0.0336
27502W        W42971  10.078   9.804   0.258 -0.1541  0.1267 -0.1735
27503W        W42972   3.681  14.036   2.879  0.1731  0.1698 -0.0395
27504W        W42973   7.230  10.158   5.954  0.0823 -0.5026  0.0393
27505W        W42974   8.813   0.619  13.231 -0.0341  0.1205  0.5637
27506W        W42975  14.656  15.041   4.503 -0.2523  0.0338  0.1920
27507W        W42976   2.992   3.948   1.481 -0.1602 -0.3160 -0.1768
27508W        W42977   6.005  15.115   4.909  0.1271  0.1594  0.1246
27509W        W42978   4.849  14.143   3.932  0.3260  0.0364  0.1227
27510W        W42979   4.288   1.702   1.229  0.0314  0.0394  0.1578
27511W        W42980   4.386  12.738   4.625 -0.1336  0.0329 -0.0192
27512W        W42981  17.061   5.659  11.891 -0.3281  0.1185 -0.1384
27513W        W42982   8.784   2.371   1.187  0.0647 -0.1104 -0.2919
27514W        W42983  12.947  12.774  14.603 -0.0926  0.4306 -0.1759
27515W        W42984   4.993   2.309   3.152 -0.0791 -0.0875  0.0731
27516W        W42985  11.039   5.580   5.174  0.0100  0.0118  0.2821
27517W        W42986   1.855  16.298   5.653 -0.0687  0.0957 -0.2907
27518W        W42987   4.692   9.872   4.765  0.0890 -0.2202  0.2354
27519W        W42988   2.557   5.679  15.619  0.4575 -0.2129  0.0617
27520W        W42989   8.652   4.146   0.047 -0.1981 -0.0219  0.3817
27521W        W42990   3.994  14.406   4.165 -0.0362 -0.0589 -0.0003
27522W        W42991   0.418  12.640   0.314 -0.0663 -0.1009  0.4160
27523W        W42992   3.451   7.746   0.162  0.1470 -0.2892 -0.0039
27524W        W42993   0.292   0.740   2.569 -0.0529 -0.1949 -0.1442
27525W        W42994  10.199  10.604   1.393  0.3280 -0.1465 -0.0334
27526W        W42995   1.861   6.166   5.643  0.1527 -0.2236 -0.1464
27527W        W42996   3.700  16.023   0.570 -0.2760 -0.1680  0.1670
27528W        W42997   7.966   0.277   2.672 -0.3188  0.2006  0.1042
27529W        W42998  16.089   2.666   4.266  0.0460 -0.0529 -0.0835
27530W        W42999   6.461   2.048   4.353  0.3376  0.2332  0.3828
27531W        W43000  15.362  17.727  12.059  0.2423  0.0168  0.1242
27532W        W43001  12.914   0.154  14.745  0.2173  0.2284  0.0204
27533W        W43002   7.901   8.790  16.361  0.3635 -0.0262 -0.0976
27534W        W43003   2.985  12.815  14.234  0.1219  0.2785 -0.0294
27535W        W43004  12.423   0.970   5.188 -0.0060  0.1034 -0.0892
27536W        W43005   4.872  10.565   0.694  0.1155 -0.1412 -0.1555
27537W        W43006   2.767   3.754  13.274  0.0247  0.1313  0.0650
27538W        W43007  12.401  13.590   3.544  0.0730  0.0797 -0.0991
27539W        W43008  10.367  12.123   4.135 -0.1304 -0.0553 -0.1259
27540W        W43009   2.894  15.183  11.976 -0.1202 -0.0579 -0.0033
27541W        W43010   9.045  10.050  15.056 -0.1842  0.0924 -0.0441
27542W        W43011   3.724   9.297   0.604  0.0816 -0.2020 -0.1574
27543W        W43012   2.614   9.700  12.738  0.1032 -0.0212 -0.3891
27544W        W43013  14.256   9.998   2.167 -0.1220 -0.2863  0.1886
27545W        W43014   8.955  16.832  12.319  0.0611 -0.1989 -0.1358
27546W        W43015   4.308   6.361  10.097  0.2954  0.0231 -0.1777
27547W        W43016   7.229  12.750   3.550  0.3997  0.0125  0.2496
27548W        W43017  11.428  14.691   0.902 -0.1969  0.0866 -0.1415
27549W        W43018   9.529   3.417  13.426 -0.2518 -0.1107 -0.0891
27550W        W43019   6.774   7.098   4.026  0.1082 -0.2531 -0.4019
27551W        W43020   0.208   9.807   3.603  0.1226  0.1549  0.1243
27552W        W43021   2.272   2.045   4.058  0.1123 -0.0331  0.1095
27553W        W43022  10.386   5.548   2.868 -0.0751  0.1123  0.2407
27554W        W43023  15.994   5.445  13.663 -0.3864 -0.1191 -0.1458
27555W        W43024   5.539   9.490  15.889 -0.1721 -0.2982 -0.1916
27556W        W43025   2.400  16.252  12.530  0.2388 -0.0970  0.5383
27557W        W43026  11.389  11.104  16.016 -0.2069 -0.0318  0.0793
27558W        W43027   5.170   9.242  14.974 -0.3538 -0.1502  0.2937
27559W        W43028  12.106  15.390  12.429 -0.2793 -0.1424 -0.1838
27560W        W43029  10.680   1.116  16.178 -0.2112  0.1378  0.0650
27561W        W43030   4.534  16.148   4.891  0.0837 -0.5068 -0.1166
27562W        W43031   5.407  17.319  15.772 -0.0763  0.1946  0.0121
27563W        W43032  16.131   3.716   3.775 -0.1566  0.0049  0.1716
27564W        W43033   3.186   2.565   2.063 -0.2949 -0.0833  0.2980
27565W        W43034  14.572  12.693   1.617 -0.0826  0.1443  0.5220
27566W        W43035   9.366  14.845   2.398 -0.0625  0.2237  0.2075
27567W        W43036   7.324   2.284  12.712 -0.0136 -0.1049  0.0391
27568W        W43037  12.290   2.996  16.383  0.0653  0.0030 -0.3438
27569W        W43038  11.910   9.567  11.982 -0.3026  0.1697 -0.0302
27570W        W43039  13.004   1.297  11.760  0.0213  0.1346 -0.0907
27571W        W43040  10.614  14.439   0.127 -0.1740  0.2347 -0.0586
27572W        W43041   9.702  17.031  16.228  0.2432  0.3217 -0.0324
27573W        W43042  10.649   4.563  15.412 -0.0086  0.3021 -0.1674
27574W        W43043  12.179  10.952  14.620 -0.0804 -0.0047  0.1619
27575W        W43044  17.859  16.721  16.347  0.1446 -0.2554  0.2891
27576W        W43045   6.299   4.935  16.024  0.0090  0.1793 -0.0127
27577W        W43046   7.459   3.052   2.671  0.2232 -0.0364  0.4642
27578W        W43047   8.705   9.205  13.267  0.2663 -0.2178 -0.1067
27579W        W43048  17.723  12.943   3.362 -0.0953 -0.2229 -0.0685
27580W        W43049  15.206   7.034   1.769 -0.0277  0.1282 -0.2289
27581W        W43050  11.367   4.306   5.624 -0.2512 -0.2455  0.2950
27582W        W43051   3.853  17.129   3.899 -0.1743  0.1342  0.0995
27583W        W43052  12.508   0.984   2.323 -0.2099  0.2619  0.0133
27584W        W43053   7.208  17.167  13.857  0.0463 -0.0009  0.0920
27585W        W43054  16.635  16.501   1.846  0.0823  0.1811  0.0991
27586W        W43055   5.746   5.228  14.029 -0.1256  0.0171 -0.0801
27587W        W43056  15.949   8.022   0.519  0.1034  0.6025  0.2118
27588W        W43057  15.685  14.942   1.102 -0.0548 -0.2193  0.1523
27589W        W43058   3.148  11.859  12.327 -0.1513  0.1801  0.1886
27590W        W43059   0.129  11.654  14.999  0.0971  0.1578 -0.0079
27591W        W43060  16.235  14.268  13.273  0.0208 -0.0393 -0.1630
27592W        W43061  14.505  12.829  14.963  0.0330  0.3790 -0.1826
27593W        W43062   1.804   2.347   6.172  0.1531 -0.0069 -0.0776
27594W        W43063   5.082   8.768  11.804 -0.0518  0.1317 -0.1235
27595W        W43064  14.486   4.350  16.134  0.1762 -0.3326 -0.1861
27596W        W43065  12.576   1.140   5.620 -0.0027  0.0669 -0.0978
27597W        W43066   1.568  10.347  11.094  0.0350 -0.2068 -0.2447
27598W        W43067   6.535  14.927  12.293 -0.2692 -0.1032 -0.1111
27599W        W43068   7.254  16.361  12.355  0.1937  0.0716 -0.1366
27600W        W43069  11.711   6.497  16.326  0.1234  0.1098 -0.3987
27601W        W43070   8.909   8.076  12.368  0.0117  0.1718 -0.0805
27602W        W43071  14.198   4.742  12.785 -0.0957 -0.1076 -0.1471
27603W        W43072   8.363   7.341  11.504  0.0598  0.0823 -0.1401
27604W        W43073  15.784  13.881   3.066 -0.3362 -0.1007 -0.1788
27605W        W43074  16.051   1.726   4.667 -0.0439  0.0541 -0.1245
27606W        W43075   2.200  17.349  11.903 -0.0362 -0.2018  0.0239
27607W        W43076   3.028   6.246   3.713 -0.4349 -0.1851  0.0868
27608W        W43077  10.553  11.288  12.308  0.0591  0.0451 -0.0465
27609W        W43078  15.867   5.568   0.847  0.4230  0.3732  0.0544
27610W        W43079  13.638   6.890   5.189  0.2935 -0.0206 -0.2399
27611W        W43080   4.024  14.655  16.061 -0.0835 -0.2661  0.0023
27612W        W43081  11.597  14.028  15.312  0.0925  0.1306  0.0440
27613W        W43082   4.153  14.120   0.515 -0.2075  0.0412  0.0136
27614W        W43083  13.557   8.302  11.209  0.2334 -0.1200  0.1993
27615W        W43084  17.108   6.352  16.364  0.4138 -0.2450  0.0584
27616W        W43085  12.785  12.540   1.508 -0.1026  0.0891 -0.2246
27617W        W43086   9.362   7.325  13.474 -0.2697 -0.0891 -0.1369
27618W        W43087   7.344   0.295  15.984 -0.1384 -0.2628 -0.0605
27619W        W43088   9.353  11.866   3.544  0.2348  0.0098 -0.1392
27620W        W43089   4.536  17.476  14.205 -0.2651  0.1550 -0.2287
27621W        W43090  14.696   7.718   0.579 -0.0429  0.1501 -0.1923
27622W        W43091  14.726  11.890   6.192 -0.2554  0.2877 -0.0904
27623W        W43092   8.141  15.876  14.261  0.2401  0.1223 -0.0101
27624W        W43093   7.657  12.072  15.159 -0.0479  0.1378  0.0943
27625W        W43094   8.354   8.471   5.786 -0.2295 -0.0998 -0.2279
27626W        W43095  14.048   2.637  13.548 -0.1602 -0.2174 -0.1773
27627W        W43096  17.069   0.670   4.281 -0.1069 -0.1970 -0.0281
27628W        W43097   6.819   0.800   4.098  0.0290 -0.1506 -0.0770
27629W        W43098   8.693  14.907  11.758  0.0364  0.0133  0.1388
27630W        W43099  17.155   0.189   1.479 -0.0012  0.2986  0.1988
27631W        W43100  13.140  15.332   4.309 -0.1738 -0.1969  0.1007
27632W        W43101   3.513   2.862   1.031 -0.0880  0.3920 -0.1362
27633W        W43102   9.904  17.375  12.734  0.0354 -0.0819 -0.0598
27634W        W43103  10.052   8.761   4.493 -0.1603  0.1914  0.1010
27635W        W43104  17.471   4.338   2.917 -0.0881 -0.1561 -0.1497
27636W        W43105  15.648   4.611  15.402  0.0441 -0.2634  0.1002
27637W        W43106   2.028  10.239   0.581  0.2556  0.0231 -0.0943
27638W        W43107  13.700   6.053  10.508  0.2586 -0.1976 -0.0683
27639W        W43108  11.424  11.347  11.655  0.0108  0.0978  0.2761
27640W        W43109  13.140  12.930   5.493  0.0327  0.4046  0.4019
27641W        W43110  14.937   2.227  14.609 -0.1823  0.0026 -0.2601
27642W        W43111   7.959  17.678   1.117  0.0212 -0.1717 -0.0205
27643W        W43112  11.221  15.653   3.875 -0.1409 -0.1159  0.2588
27644W        W43113   7.446   2.225  13.601 -0.3026  0.2020  0.2498
27645W        W43114  17.837   5.983   1.236  0.1295 -0.3341  0.4107
27646W        W43115  11.176   4.059   1.728  0.2417 -0.0720 -0.2730
27647W        W43116  17.083  16.617   4.233 -0.0320  0.0051 -0.0014
27648W        W43117  11.052   9.881   3.742  0.1473  0.2335  0.1721
27649W        W43118  12.721  17.451   5.219 -0.1182  0.0558  0.0656
27650W        W43119   3.456  14.057  12.597  0.5731 -0.2952  0.4267
27651W        W43120   7.232  17.298   4.709  0.0254  0.4447 -0.2427
27652W        W43121  11.358   1.974  13.888  0.0016 -0.2512 -0.3617
27653W        W43122  13.199   6.905  12.111 -0.2674 -0.0208  0.2404
27654W        W43123   3.867  11.757  11.461 -0.1563 -0.1228  0.1400
27655W        W43124   6.030  10.170   5.795  0.0504 -0.1037 -0.0169
27656W        W43125   2.657   8.022   5.412  0.2545  0.1167  0.1965
27657W        W43126  11.494  14.384   5.553  0.0471  0.1816 -0.4332
27658W        W43127  10.825   2.433   1.477 -0.0002  0.0396 -0.0536
27659W        W43128  13.661   2.159   1.403  0.1784  0.2023 -0.2094
27660W        W43129   0.162   9.012  11.616 -0.2314 -0.4387 -0.0499
27661W        W43130  17.455  12.712   4.422  0.0378 -0.3220 -0.3024
27662W        W43131   0.393  11.476   0.090  0.2302  0.0699  0.0781
27663W        W43132   0.731   8.230  10.256  0.2771 -0.0089  0.0425
27664W        W43133   7.582  12.116   2.397  0.2646  0.1934 -0.3167
27665W        W43134   0.818  17.211  14.231 -0.0887  0.1508 -0.1618
27666W        W43135   3.149   3.573   4.427  0.3127 -0.0466 -0.2354
27667W        W43136  17.519   2.831   1.258  0.0184  0.1581  0.0208
27668W        W43137  15.249  17.464   5.150  0.2033 -0.0930  0.1982
27669W        W43138   8.709   3.408   3.618  0.1627 -0.5663  0.1528
27670W        W43139   2.044   7.363  11.250  0.0069  0.1370 -0.1237
27671W        W43140   3.627   6.856  15.234 -0.3389 -0.3988  0.0451
27672W        W43141   0.705  15.683  14.351  0.0189  0.0408 -0.1598
27673W        W43142   0.805   3.237  14.688  0.0807  0.3360  0.0487
27674W        W43143   8.164  16.048   3.300  0.0166  0.0394  0.1189
27675W        W43144   5.146  14.929  14.342  0.2125 -0.2438  0.0061
27676W        W43145   9.160   5.385  13.724  0.0571  0.1269  0.0386
27677W        W43146   9.713  12.892  11.640 -0.0397  0.2179 -0.0331
27678W        W43147  16.488  10.104   5.578  0.1290  0.0748  0.1371
27679W        W43148  13.024   5.209  12.323  0.2726 -0.1146 -0.0618
27680W        W43149   2.493   0.043  13.851 -0.0154 -0.2227 -0.3064
27681W        W43150   5.236   9.087  16.170 -0.2832  0.1152  0.0287
27682W        W43151   7.956   2.090   5.091 -0.2794  0.1192 -0.0711
27683W        W43152   1.211   2.445   5.148  0.1576  0.1006  0.0053
27684W        W43153   4.374   3.307  15.697  0.0075 -0.0427  0.1810
27685W        W43154  12.555  14.305   1.794  0.0106  0.0265  0.0710
27686W        W43155  16.480  14.016   4.224 -0.0365 -0.1887 -0.2542
27687W        W43156   0.423  11.574  14.613 -0.0093  0.0294 -0.4031
27688W        W43157   7.809   6.215  12.763 -0.1239  0.4934  0.0638
27689W        W43158  11.232   2.428  12.951  0.1107  0.0348 -0.1328
27690W        W43159   5.403  16.809  15.911 -0.1694  0.0687  0.3311
27691W        W43160  14.003  10.191   3.803 -0.0554 -0.0131  0.2421
27692W        W43161  13.740  12.953  14.663  0.0117 -0.1129  0.0833
27693W        W43162   2.738  16.323  12.168  0.0053  0.0474  0.2440
27694W        W43163  15.768   9.690  14.644  0.0904  0.0039  0.2128
27695W        W43164   4.574  17.887  12.492  0.0885  0.0988 -0.0946
27696W        W43165   4.136   1.483  12.713  0.0940  0.0407  0.4006
27697W        W43166   9.445   8.683   2.314  0.1462  0.3598 -0.1466
27698W        W43167  15.394  12.614   3.021  0.0497  0.0954 -0.3726
27699W        W43168   5.020  13.045   3.581  0.0590  0.0809  0.4006
27700W        W43169   2.262   9.762   5.225  0.0989  0.1860  0.1429
27701W        W43170   1.321  16.513  11.433  0.1932  0.0783  0.0857
27702W        W43171   4.393   0.929   1.960  0.3370  0.2668  0.1497
27703W        W43172  13.338   3.718  14.865 -0.1071  0.2959 -0.1810
27704W        W43173   0.335  12.236   1.226 -0.0536  0.0939  0.1345
27705W        W43174   7.421   3.511   2.390 -0.3067 -0.0810  0.1658
27706W        W43175   6.118   1.551  14.685  0.1449 -0.0185 -0.1464
27707W        W43176  10.283  13.529  16.493 -0.1810  0.2223 -0.3122
27708W        W43177   9.874  14.935  13.095 -0.5037  0.1543  0.0758
27709W        W43178   3.754   0.909   5.121 -0.2471  0.1297 -0.0810
27710W        W43179  10.706   8.446  11.436 -0.2753  0.1789  0.0774
27711W        W43180   2.744  16.382   5.395 -0.1990 -0.1099 -0.3189
27712W        W43181  15.765  11.967   3.309 -0.1995 -0.0966 -0.1558
27713W        W43182  10.596   1.373  15.437  0.1344  0.2046  0.2422
27714W        W43183  12.577  14.086   5.729  0.0571 -0.0334 -0.1824
27715W        W43184   5.386  10.739   0.302 -0.1054 -0.0027  0.0718
27716W        W43185   5.596   9.550  12.710  0.3307 -0.1131  0.1849
27717W        W43186   1.826   9.739   3.617  0.0441 -0.0561  0.1425
27718W        W43187  16.208   1.443  13.434  0.2212  0.0217 -0.3324
27719W        W43188  12.218   1.642   3.210 -0.2565  0.3258 -0.1775
27720W        W43189  11.609  17.506   2.871 -0.0904 -0.0289  0.0600
27721W        W43190   2.545   6.851   5.244 -0.0945  0.2203 -0.2023
27722W        W43191   7.860  13.947   2.369  0.1253 -0.2096  0.2705
27723W        W43192  10.231  12.612   1.572 -0.0826  0.1177  0.1789
27724W        W43193   3.815   6.298   3.880 -0.0644  0.0640 -0.1711
27725W        W43194  15.858  11.917   1.884  0.1555  0.1357 -0.2493
27726W        W43195   5.556  15.746   2.874  0.0992 -0.0690 -0.1772
27727W        W43196   4.318   1.864   0.316  0.0599 -0.1979 -0.0311
27728W        W43197  10.816   7.989   1.379 -0.0976  0.0005 -0.1772
27729W        W43198   3.291  17.409  15.534  0.0705 -0.0333 -0.1295
27730W        W43199   7.825   7.032  15.900 -0.1630 -0.0688 -0.1518
27731W        W43200  15.666  12.067  14.228 -0.1787 -0.0960 -0.1991
27732W        W43201  17.681   8.834   1.172  0.1072 -0.1228 -0.0367
27733W        W43202   9.976   8.931  11.963 -0.0068 -0.0218 -0.2166
27734W        W43203   5.461   6.594   3.460  0.0218  0.2331 -0.0321
27735W        W43204   8.456   5.224  12.796 -0.1233 -0.3266  0.0651
27736W        W43205  17.939   5.388  10.556 -0.0943 -0.0988  0.3368
27737W        W43206  15.602   0.643   1.231 -0.1700 -0.0065 -0.0806
27738W        W43207   3.200  11.856  13.249  0.0092  0.1916  0.1046
27739W        W43208  10.011   9.795   1.637 -0.1563  0.1127 -0.1292
27740W        W43209  13.368  11.312  12.653 -0.5569 -0.4627 -0.0753
27741W        W43210   3.863   0.557  12.186 -0.0449  0.0443  0.0166
27742W        W43211   8.845  14.988   1.327 -0.3044 -0.3339 -0.0049
27743W        W43212  17.025   4.512  15.018 -0.0752  0.1306  0.1111
27744W        W43213   9.721  16.222  13.656 -0.0213 -0.0748  0.3774
27745W        W43214   7.309   7.370   3.088 -0.1119 -0.0755 -0.1190
27746W        W43215  12.218   8.539   4.212 -0.2093 -0.1318  0.0923
27747W        W43216  17.644  11.141  11.405 -0.2595  0.2524  0.1933
27748W        W43217   4.379   7.009  11.176  0.0955  0.0703  0.0344
27749W        W43218  13.687   4.133   2.289  0.3764  0.2011 -0.1844
27750W        W43219  10.282  10.519  15.242 -0.0714  0.0358 -0.0550
27751W        W43220   5.341   2.161   1.200 -0.2765 -0.3240 -0.4728
27752W        W43221  16.473   8.967   2.174 -0.0853 -0.0747  0.2214
27753W        W43222   1.727  17.721  12.756 -0.1178 -0.1250  0.3096
27754W        W43223   5.396   2.347   1.627 -0.2309 -0.3838 -0.2280
27755W        W43224   5.598   7.944  15.169 -0.2853 -0.0278  0.0127
27756W        W43225  12.220   3.504   2.917 -0.0351  0.1075  0.0380
27757W        W43226  10.860  15.540   6.536 -0.4065 -0.1688 -0.0239
27758W        W43227  11.423   9.193   1.282 -0.1712 -0.1138  0.1720
27759W        W43228  12.486  12.670   1.959 -0.4737  0.0893 -0.2996
27760W        W43229  14.051  13.196   5.226  0.0866  0.3788 -0.2595
27761W        W43230   8.923   2.221  14.985  0.0399  0.1786 -0.0064
27762W        W43231   5.644  17.889  14.744  0.3183  0.2228  0.2009
27763W        W43232  13.464   5.470  12.451  0.0482  0.2331  0.0132
27764W        W43233   9.877  15.232  12.198  0.0092  0.2777  0.0756
27765W        W43234  14.568   6.313   4.464  0.1767 -0.1244 -0.0893
27766W        W43235   4.441  17.115   2.940 -0.3784  0.0388  0.1592
27767W        W43236  17.643   9.393   5.116  0.5531 -0.1345 -0.0529
27768W        W43237   8.697   5.834  11.922 -0.1633  0.0580 -0.0756
27769W        W43238   1.758   6.598  14.635  0.1069 -0.0803 -0.2016
27770W        W43239   4.126   8.774   0.326  0.0896 -0.0851 -0.0756
27771W        W43240   8.630   2.158   2.713 -0.0847 -0.1612  0.0637
27772W        W43241   2.519  15.913   2.458 -0.1772  0.2241  0.0536
27773W        W43242  10.613   2.479   3.054 -0.0681  0.1075 -0.2468
27774W        W43243   9.587  10.581   0.749 -0.2866 -0.0839  0.0715
27775W        W43244   8.574  17.530  12.075 -0.1671 -0.2691  0.1099
27776W        W43245  14.781  10.287  15.783 -0.0300  0.0729 -0.0189
27777W        W43246   4.435  11.684  14.222 -0.0836  0.2494 -0.1187
27778W        W43247   1.364   7.652  10.757  0.1055  0.0120  0.0165
27779W        W43248   8.230   6.768  13.638 -0.1842 -0.0845  0.3523
27780W        W43249   7.967  16.683  11.850  0.2301 -0.0950 -0.1531
27781W        W43250   2.264   5.230  15.830  0.0409  0.0008  0.0463
27782W        W43251  14.772   2.352  11.955 -0.1496 -0.1235  0.0458
27783W        W43252   7.372   8.572  16.086 -0.1858 -0.1102 -0.0491
27784W        W43253   5.587  17.257   4.632  0.2400  0.1074 -0.0006
27785W        W43254   0.018   8.663  10.836 -0.0450  0.1634 -0.0354
27786W        W43255  12.737   2.808  16.328 -0.0539 -0.2023 -0.0616
27787W        W43256   9.583   1.652   3.720  0.1735  0.3318  0.0481
27788W        W43257  15.132   0.269   2.220 -0.2823 -0.3107 -0.0912
27789W        W43258   7.638   8.963   0.207 -0.0673 -0.0432 -0.0442
27790W        W43259   1.169   0.923   4.110  0.0194 -0.1023  0.2087
27791W        W43260   3.021   1.659  15.873 -0.3204 -0.1273  0.1812
27792W        W43261   3.393  10.574   4.973  0.2207 -0.5220  0.0392
27793W        W43262  16.433   5.541  15.892 -0.1628 -0.0002 -0.2248
27794W        W43263   3.266  14.982   3.115  0.4133 -0.1958 -0.3069
27795W        W43264   7.104  13.595  13.515  0.1105  0.0060 -0.3208
27796W        W43265   7.531  14.794  14.197 -0.1683 -0.1313 -0.1031
27797W        W43266  13.184  17.291   1.385 -0.1693  0.2171 -0.1115
27798W        W43267   8.346  15.472   6.701  0.1887  0.1015  0.1188
27799W        W43268  10.787   2.550   5.247 -0.0567  0.2374 -0.1059
27800W        W43269   1.427  15.004  14.533 -0.0485  0.1082 -0.0015
27801W        W43270   0.048   9.755  12.134  0.1838 -0.1478  0.2050
27802W        W43271   5.625   4.324  11.238  0.1208  0.4282 -0.0382
27803W        W43272   9.583  14.278   1.610  0.0249 -0.0886  0.1758
27804W        W43273  15.910  14.615  15.331 -0.0548 -0.1873  0.0182
27805W        W43274   6.369   7.155  15.598  0.1392 -0.0073  0.3895
27806W        W43275  12.650  10.787   2.697 -0.4298 -0.0986  0.2466
27807W        W43276   7.143   3.446   2.814 -0.1937  0.1836 -0.0792
27808W        W43277  16.408   7.414  14.813 -0.0442 -0.1045 -0.0128
27809W        W43278   6.936   1.769   0.123 -0.1419  0.0852 -0.4459
27810W        W43279  16.425   1.016  13.252  0.0891 -0.1417 -0.2335
27811W        W43280   1.646   6.403   4.465  0.1833  0.2878 -0.1853
27812W        W43281  15.411   6.441   0.862 -0.1617 -0.1929  0.1528
27813W        W43282  14.516  13.820  13.863 -0.0445 -0.0781  0.0668
27814W        W43283  11.028  11.386   5.711 -0.1423 -0.0015 -0.0128
27815W        W43284   3.934   7.239  12.530  0.1608 -0.1143  0.1272
27816W        W43285  14.190   8.575   3.019  0.2057 -0.3410 -0.4108
27817W        W43286   3.738   1.850   4.290 -0.1035  0.2232  0.0857
27818W        W43287  16.741   7.099  10.613 -0.1457  0.0831 -0.0885
27819W        W43288   6.319   7.033  12.025  0.0747  0.0363 -0.0160
27820W        W43289  10.305   9.780   3.947  0.1567 -0.0817  0.0771
27821W        W43290   9.315  11.791   1.607 -0.0048 -0.3112 -0.1056
27822W        W43291  17.257   5.721  13.691 -0.4502 -0.0107 -0.1618
27823W        W43292   1.071   0.234  16.024  0.1351 -0.2790  0.0417
27824W        W43293  10.456   7.222  14.172 -0.3146  0.1318 -0.4016
27825W        W43294   9.899  17.467  14.009 -0.1851  0.1714  0.0341
27826W        W43295   5.568  10.443  15.240 -0.1306 -0.1654  0.2084
27827W        W43296  10.481  10.671  16.274  0.0518  0.0726  0.2803
27828W        W43297   9.515   0.355  12.879 -0.1446 -0.2306 -0.0578
27829W        W43298   7.332  12.271   4.128  0.0988  0.2764  0.1363
27830W        W43299  11.223   8.816   3.766  0.0932  0.0644  0.0230
27831W        W43300  17.741  13.008  16.211  0.4644 -0.2321 -0.1302
27832W        W43301  13.217   6.418  13.162 -0.1831  0.0425 -0.2753
27833W        W43302  14.018  13.027   2.905  0.0586  0.2144 -0.3943
27834W        W43303  14.836  15.274  15.980 -0.2119  0.2311 -0.0682
27835W        W43304   2.647   2.172   0.441  0.0168  0.0423  0.1583
27836W        W43305   8.572   5.900   3.612  0.0359 -0.0909  0.2877
27837W        W43306  11.744  17.957  15.221  0.1003 -0.0900  0.0163
27838W        W43307  13.266   6.966   1.010  0.0805  0.2012 -0.4054
27839W        W43308   7.023  15.294  14.512 -0.0041  0.3765 -0.3331
27840W        W43309  10.339  10.756   4.534 -0.1949  0.1865 -0.2003
27841W        W43310  15.586   7.735  14.791  0.1902 -0.2406  0.2767
27842W        W43311  15.991   6.051   3.759  0.1374 -0.1860  0.1129
27843W        W43312  10.773   1.005  13.312 -0.2172 -0.0477 -0.0054
27844W        W43313  13.327   5.740   1.656  0.0122 -0.0190  0.0546
27845W        W43314   5.093  15.296   6.394  0.0376  0.0557 -0.2750
27846W        W43315  14.014   9.578   2.914 -0.3186 -0.2595 -0.1797
27847W        W43316   5.610   3.586  16.043 -0.1579  0.0741  0.5629
27848W        W43317  10.936   3.184   4.640  0.2296  0.1584 -0.0383
27849W        W43318  16.087   3.148   4.017  0.2031  0.0402 -0.2480
27850W        W43319  10.041   9.865  14.436  0.0418 -0.0133  0.1495
27851W        W43320   0.412  10.380  11.468  0.0834  0.0923  0.0181
27852W        W43321   7.680   6.797   3.827 -0.0738  0.2752  0.4451
27853W        W43322   1.413  15.577  15.238 -0.0190 -0.0020  0.0127
27854W        W43323   0.297   3.688  14.966  0.1576  0.1394 -0.0024
27855W        W43324  14.387  13.068  12.166  0.1632 -0.1771 -0.2478
27856W        W43325   2.338  11.141   6.083 -0.2803 -0.0383 -0.0239
27857W        W43326   9.686  16.126   5.338  0.2439  0.3118  0.1182
27858W        W43327  10.406   7.598  11.749  0.2192  0.0548 -0.1337
27859W        W43328  17.132   4.669   2.556 -0.0313 -0.0968  0.1544
27860W        W43329  13.901   1.481   3.473 -0.0511 -0.0973 -0.2466
27861W        W43330   2.866  15.872   2.801  0.0937 -0.0792 -0.0287
27862W        W43331  10.774  11.239  14.725  0.1296  0.0149  0.2249
27863W        W43332   7.024   5.374  14.384 -0.0211  0.2562 -0.0044
27864W        W43333  12.419  16.153   4.951  0.2659 -0.1622  0.1468
27865W        W43334   4.989  17.040  12.678 -0.2124 -0.2398  0.1540
27866W        W43335  15.394  14.713   4.741  0.0945 -0.2424 -0.0356
27867W        W43336  14.781  11.841   3.686 -0.1325 -0.1142  0.1295
27868W        W43337  16.100   9.444  11.224  0.2066 -0.3665  0.2244
27869W        W43338   6.962   3.322   2.015 -0.0269  0.1709 -0.3563
27870W        W43339  16.383   4.543  13.519 -0.2662  0.0019  0.0974
27871W        W43340  13.910  11.371   1.990 -0.2477 -0.0194  0.0674
27872W        W43341   0.111  12.538   2.799 -0.0225  0.0002 -0.0166
27873W        W43342   8.312  14.551  12.724  0.1693 -0.0610  0.0738
27874W        W43343   0.568  12.644  10.866  0.0792  0.2889  0.5138
27875W        W43344   9.786  15.256   5.193 -0.0181 -0.3773  0.0623
27876W        W43345  12.745   9.123  15.386  0.2256 -0.0618  0.1242
27877W        W43346   5.377  12.457  12.713 -0.0308  0.0707  0.0583
27878W        W43347  12.762   1.021  14.945 -0.0471 -0.0269  0.1180
27879W        W43348   1.987   7.876  12.012  0.2469  0.1797  0.0141
27880W        W43349  12.331  11.162  12.649 -0.5022 -0.1490  0.2131
27881W        W43350   8.820   1.790   3.183 -0.2653 -0.0839  0.0016
27882W        W43351   5.303  10.125  14.220  0.1218 -0.1905 -0.2619
27883W        W43352   0.672  17.710   1.962  0.0963 -0.1048 -0.1649
27884W        W43353   2.606   2.816  13.713 -0.0186  0.0537 -0.1345
27885W        W43354  10.846   0.258   1.217  0.1081  0.0464  0.4894
27886W        W43355  16.171  10.267  10.949 -0.0141 -0.0725  0.1531
27887W        W43356   7.873  10.191  14.645 -0.2007  0.1023  0.2459
27888W        W43357  14.184   4.073  13.391  0.3435  0.1058  0.1201
27889W        W43358   5.686   7.910  13.918  0.2223  0.4594  0.1622
27890W        W43359   1.319   9.046  14.679  0.1692  0.3192  0.2106
27891W        W43360  17.772  10.388   2.802  0.2516 -0.0145  0.0307
27892W        W43361  16.695  13.519  11.838  0.0301  0.0255 -0.0118
27893W        W43362  14.248   9.139   2.239  0.0455  0.0612 -0.0818
27894W        W43363   3.997   7.044  16.174  0.0637 -0.0525 -0.0672
27895W        W43364  14.083   5.252  11.915  0.0585 -0.3153 -0.2431
27896W        W43365  12.477   7.054   2.711  0.2214  0.1963 -0.0381
27897W        W43366  16.445  15.082   3.115 -0.1396 -0.0753 -0.1229
27898W        W43367  10.051   5.855   3.161 -0.1882  0.3212  0.1050
27899W        W43368   5.724  15.872  15.889 -0.0537 -0.0999 -0.0883
27900W        W43369   8.772  15.399  11.750  0.0248  0.3877 -0.0735
27901W        W43370  10.440   8.711  15.230 -0.3400 -0.1737 -0.1220
27902W        W43371   9.830  12.435  14.961  0.4336 -0.3770 -0.0165
27903W        W43372   5.344   0.642   4.843  0.3652  0.0424 -0.0237
27904W        W43373   3.693   8.879  15.943 -0.1181  0.3257 -0.1944
27905W        W43374   3.179  16.187  12.437  0.0146  0.3755 -0.1846
27906W        W43375   7.613  10.510   4.641 -0.2291 -0.3776 -0.3079
27907W        W43376   3.014   8.545  14.173  0.2020  0.2886  0.0972
27908W        W43377  10.629   7.790   0.967  0.6056  0.3028  0.2277
27909W        W43378   2.055  12.157  14.307 -0.0444  0.2148  0.0244
27910W        W43379   5.493   1.577  15.509 -0.0971  0.0248 -0.0228
27911W        W43380   9.769  10.915   5.333 -0.1634  0.3666 -0.0669
27912W        W43381   8.173   2.288  11.606 -0.0046  0.2550 -0.0061
27913W        W43382   2.526   9.117  11.565  0.3016  0.1640 -0.0850
27914W        W43383  13.055  12.987   3.232  0.1586 -0.1806 -0.1380
27915W        W43384  14.197   4.910  13.645  0.1191  0.1973 -0.0088
27916W        W43385   0.780   6.431   2.272  0.1410  0.2480 -0.2109
27917W        W43386  13.933   8.131  13.989 -0.0304  0.1700 -0.0838
27918W        W43387   9.692  17.186   3.661  0.2724  0.1774  0.1656
27919W        W43388  14.583  14.623   2.006 -0.4184  0.1250  0.0109
27920W        W43389   3.783  14.872   3.317 -0.2733 -0.0318 -0.1063
27921W        W43390   9.056  15.703   0.041  0.3256 -0.2097 -0.0393
27922W        W43391  13.145  13.761   0.922 -0.1521  0.2128 -0.0427
27923W        W43392   3.869  15.436  12.992 -0.0274 -0.2154  0.0418
27924W        W43393   8.793   3.789   0.408  0.1549  0.3714 -0.1775
27925W        W43394   6.645  13.509  15.585 -0.0326  0.0385  0.1182
27926W        W43395  15.924  14.026   1.005  0.3214  0.0947  0.1185
27927W        W43396   6.684   4.124  16.429 -0.0698  0.1921  0.3021
27928W        W43397  10.691  10.828   2.742 -0.0713 -0.1980  0.2840
27929W        W43398  10.009   7.953  11.804  0.0088 -0.4739 -0.1420
27930W        W43399   8.680  12.237   0.265 -0.1815  0.0581 -0.0311
27931W        W43400  13.874   1.983   5.188 -0.0934  0.1166  0.0991
27932W        W43401   7.724   1.185  12.178  0.0123 -0.0302  0.4337
27933W        W43402   3.409  17.406   1.651  0.1436 -0.0553  0.2099
27934W        W43403   0.555   1.703  11.650  0.0973 -0.1797  0.1247
27935W        W43404   9.897   3.380   1.336 -0.0785  0.1231 -0.2291
27936W        W43405  16.335   7.700   1.351 -0.1134 -0.1010  0.0993
27937W        W43406   8.904   3.791  14.845 -0.2676  0.1647 -0.1687
27938W        W43407   2.371  11.118   3.248 -0.3529 -0.0349 -0.0361
27939W        W43408  12.698  13.455   2.079  0.1295 -0.1626 -0.0198
27940W        W43409   8.025  12.925   1.749 -0.2912  0.0456  0.0313
27941W        W43410  16.541   4.332  15.079  0.0679 -0.1338 -0.0588
27942W        W43411  12.774   6.687  10.923 -0.2127  0.0957  0.2814
27943W        W43412  11.578   5.424   0.764  0.0001  0.1340 -0.1905
27944W        W43413   1.409  13.785   5.663  0.2143  0.0873  0.0998
27945W        W43414   9.112  10.643  13.017  0.0115  0.0754  0.0620
27946W        W43415   7.960   4.993  11.138 -0.0718 -0.0553  0.2021
27947W        W43416  17.705   6.617   9.618 -0.1161  0.0608  0.4689
27948W        W43417  13.283  15.050  11.912 -0.1760  0.1282  0.2358
27949W        W43418   7.134  15.596   1.365  0.2679  0.1789  0.2979
27950W        W43419  14.200   4.169  15.074 -0.3276 -0.1051 -0.0427
27951W        W43420  12.536   2.070   1.007 -0.1167  0.0462  0.0233
27952W        W43421  16.533   6.892   0.158  0.1336 -0.3842  0.0586
27953W        W43422   4.405   9.832  14.467 -0.2694  0.1049 -0.0318
27954W        W43423  10.137   8.280  13.083  0.5697 -0.0998  0.0147
27955W        W43424   0.479  13.990   2.854 -0.1727 -0.1282  0.1305
27956W        W43425  10.369  12.248   2.566  0.6255 -0.1319  0.1719
27957W        W43426   3.114  16.437  16.084 -0.0704 -0.0024  0.0351
27958W        W43427   4.212   5.017  16.511 -0.0007  0.0930  0.2917
27959W        W43428   2.871   1.091  14.033  0.0058  0.1236  0.1040
27960W        W43429   5.577  16.698  13.184  0.0260 -0.1286  0.2300
27961W        W43430   8.730   3.292  12.624  0.2871 -0.0374  0.1125
27962W        W43431   3.891   1.125  15.891 -0.0244 -0.4145  0.0972
27963W        W43432  14.582   3.706  14.328 -0.0233  0.2425 -0.2415
27964W        W43433   4.051   0.944  11.891  0.0244  0.0438  0.0278
27965W        W43434   9.471  11.830   0.063 -0.0706  0.0651 -0.0881
27966W        W43435  11.897   8.226   3.392  0.1239 -0.0891 -0.2126
27967W        W43436   8.773  12.255  16.354  0.1186  0.1869 -0.1072
27968W        W43437  10.951  15.873   1.009 -0.0617  0.2551  0.0746
27969W        W43438  16.474  13.531  13.172  0.0797  0.0177  0.1151
27970W        W43439   6.863   3.644  12.983  0.0466  0.3313 -0.1440
27971W        W43440   2.518   5.693   2.482  0.0446  0.0828 -0.1043
27972W        W43441   0.768   0.205  13.170  0.4199  0.0962  0.1077
27973W        W43442   4.614  11.221   5.409  0.3072 -0.0359  0.2369
27974W        W43443  11.256   6.700  15.096  0.0137  0.4582  0.3177
27975W        W43444   6.217   2.072   1.018 -0.0914 -0.0092 -0.1100
27976W        W43445  13.235   8.023  10.825  0.1979 -0.1349 -0.0510
27977W        W43446   0.098   7.253  10.700  0.1302  0.1956 -0.0076
27978W        W43447   8.886   5.008  14.021 -0.0690 -0.2345  0.1898
27979W        W43448   8.418   3.170   4.206  0.1338 -0.1893  0.1556
27980W        W43449   3.158   4.777  11.857 -0.1141  0.0156  0.3710
27981W        W43450  14.194  11.014  14.926  0.1536  0.3002 -0.0396
27982W        W43451  10.695  17.385   0.968  0.2696 -0.0640 -0.2247
27983W        W43452  12.930  14.408  15.353 -0.0880 -0.0472 -0.2757
27984W        W43453  15.349  13.136  11.277 -0.0571 -0.0007  0.0899
27985W        W43454   8.888  15.361   4.863  0.0703 -0.0512 -0.2610
27986W        W43455   1.207   9.668   3.775  0.0110  0.1273 -0.2297
27987W        W43456   6.926  16.906   2.375  0.2731 -0.1082  0.1109
27988W        W43457  16.706   3.425  15.017  0.1808 -0.2412 -0.0256
27989W        W43458   8.450  11.670  12.786 -0.1596 -0.1947  0.1148
27990W        W43459  15.342   0.343  15.959 -0.0946  0.3538  0.0483
27991W        W43460  15.174   5.685   1.851 -0.1837 -0.0356 -0.0386
27992W        W43461   8.730   4.634  15.040 -0.2364  0.2558 -0.1476
27993W        W43462  12.368  17.031  14.578  0.2098 -0.0767  0.2536
27994W        W43463   2.986   6.205   2.106  0.1140  0.1543  0.1680
27995W        W43464   6.094  11.081   4.895  0.3257 -0.0848  0.0952
27996W        W43465  12.030  11.437  10.424 -0.0033 -0.1812  0.1570
27997W        W43466  15.857  14.835   4.561  0.2294  0.0731  0.1659
27998W        W43467  17.228  17.176  15.088 -0.2804 -0.0736  0.1148
27999W        W43468   3.534   3.158   4.432  0.3514 -0.2114  0.2385
28000W        W43469   9.012   7.531   1.610 -0.1145  0.0306 -0.1768
28001W        W43470   3.346   2.975  13.016  0.1723  0.0207 -0.0163
28002W        W43471   1.023   2.460  12.759 -0.0022  0.0982 -0.2559
28003W        W43472  17.317  12.679   4.897  0.0760 -0.2038  0.1859
28004W        W43473  14.841   0.363   4.949  0.2618  0.1134  0.0537
28005W        W43474  11.510  14.074   1.924  0.1250  0.0403  0.1248
28006W        W43475   0.839   7.951  15.436  0.0892  0.5571  0.0842
28007W        W43476  13.139  15.655  15.943 -0.2140 -0.1059 -0.2662
28008W        W43477   8.631  15.709   0.504 -0.2182  0.3173 -0.2192
28009W        W43478  11.785  16.250  15.634  0.2885 -0.1292  0.1028
28010W        W43479   1.377  17.087  11.378  0.2881 -0.0760 -0.1137
28011W        W43480   3.525   3.194  14.759 -0.0502  0.0541 -0.0161
28012W        W43481  15.531  11.688   4.574 -0.1413 -0.0151 -0.2640
28013W        W43482  10.485  13.463  15.058  0.0466  0.0855 -0.3873
28014W        W43483  16.090   9.428   0.387  0.1663 -0.1336 -0.1223
28015W        W43484  13.948  15.855  13.084 -0.0726  0.1851 -0.1238
28016W        W43485   2.121  14.059   4.770  0.2260  0.1524  0.0720
28017W        W43486   1.791  17.217   1.655 -0.0480  0.0860  0.1319
28018W        W43487   8.570   6.919  15.551  0.0428  0.0921  0.1221
28019W        W43488   1.641  13.367   4.127 -0.1199  0.2318  0.1286
28020W        W43489  12.681  17.001  15.443  0.1114  0.5807  0.2227
28021W        W43490   6.675   6.637  11.708  0.1459  0.3566 -0.0029
28022W        W43491   0.330   9.600   0.325 -0.0916  0.3887 -0.2584
28023W        W43492   3.656  11.598   4.766  0.0431 -0.0241 -0.0924
28024W        W43493   3.835   9.273   2.562 -0.1187  0.2748 -0.2561
28025W        W43494  13.287   1.443  16.115  0.1462 -0.0507 -0.2009
28026W        W43495   2.800  13.958   0.709 -0.3333 -0.0230 -0.0176
28027W        W43496  10.006   6.529   5.441  0.1181  0.0179  0.3630
28028W        W43497   2.661  15.492  15.622 -0.1935 -0.1024 -0.2974
28029W        W43498  13.710  14.745  15.442 -0.0645  0.1429 -0.3725
28030W        W43499   3.128   1.881  10.384  0.0195  0.2190  0.1439
28031W        W43500   5.669   0.442  11.939 -0.2050 -0.0364 -0.0040
28032W        W43501  14.142   5.514   2.196 -0.6490  0.2024 -0.1499
28033W        W43502   9.489  12.023  15.803  0.1959 -0.3131 -0.0491
28034W        W43503   7.667   5.369   1.567  0.1268 -0.3782  0.3978
28035W        W43504  13.348   6.284  14.330 -0.2014  0.1757  0.0384
28036W        W43505   8.861   4.142   5.696  0.2954  0.2663  0.1371
28037W        W43506   4.711  12.679   3.444  0.1749 -0.0107  0.1502
28038W        W43507  17.111  15.566   5.438 -0.0348 -0.1425  0.2649
28039W        W43508  11.522  12.930   2.100  0.1371  0.2971 -0.1903
28040W        W43509   3.487   9.773  13.816  0.1236  0.0753  0.4732
28041W        W43510   2.284  11.581   1.369  0.2139  0.1862 -0.2946
28042W        W43511  10.104   1.356  12.383 -0.1188  0.3183 -0.0897
28043W        W43512  16.672  12.737   4.197  0.2084  0.3149 -0.0959
28044W        W43513  11.456   6.195  15.062  0.0721  0.0555  0.0481
28045W        W43514   2.146  13.686   6.147 -0.1341 -0.2305  0.0344
28046W        W43515  13.600   9.029  11.051 -0.0140  0.1155  0.1469
28047W        W43516   2.527   8.843  14.956  0.0276 -0.2657  0.1774
28048W        W43517   9.530  15.829  13.339  0.3583  0.0235  0.1554
28049W        W43518  16.647   4.621  16.353  0.0352  0.1688  0.1430
28050W        W43519  15.199  12.041   3.360 -0.2109 -0.2741 -0.0886
28051W        W43520  13.357  15.526   0.890  0.0921  0.0387  0.0153
28052W        W43521   6.419  12.258   5.245 -0.0094  0.2557  0.0300
28053W        W43522  14.292  17.147  14.214 -0.3011 -0.0463 -0.0657
28054W        W43523   7.125  17.033  15.976 -0.0501  0.0768 -0.0623
28055W        W43524   9.844   5.766   0.196 -0.2400  0.0338 -0.1326
28056W        W43525   4.455   4.562   0.535  0.1073  0.2220  0.0202
28057W        W43526   0.609   4.991   3.564 -0.1954  0.3510 -0.0009
28058W        W43527   5.964  12.376  11.310  0.0951 -0.3667 -0.2418
28059W        W43528   4.245   2.415   4.936 -0.0282 -0.3166  0.3439
28060W        W43529  13.667  11.562   2.851 -0.2965  0.0187 -0.1466
28061W        W43530  17.154   0.237   1.966 -0.2956  0.0623  0.1841
28062W        W43531  11.537  14.518   2.759  0.2922  0.4080  0.0467
28063W        W43532  17.602   7.107  15.742 -0.0550  0.1626 -0.0977
28064W        W43533  17.868  17.836   0.842 -0.0980  0.1017 -0.0219
28065W        W43534  11.764  16.524   2.682 -0.1037  0.0426 -0.1838
28066W        W43535   4.972  17.643   5.987  0.2926 -0.2674  0.0123
28067W        W43536  14.176   4.249   4.050 -0.1455  0.1824  0.3680
28068W        W43537   0.736  10.611  14.391  0.0541 -0.2615  0.0675
28069W        W43538  10.350   2.730   2.599  0.4933  0.2222  0.0864
28070W        W43539  14.244   3.132  16.174 -0.1842  0.0226  0.0483
28071W        W43540   2.159  15.912   0.786 -0.1364 -0.1023  0.1878
28072W        W43541   8.653   7.078   1.755 -0.0812  0.0651 -0.4056
28073W        W43542  13.246  17.215   0.926  0.1426 -0.0872 -0.1159
28074W        W43543  17.910   1.349  12.171 -0.2241  0.0445  0.1137
28075W        W43544   8.175  10.806   3.209 -0.0024 -0.0344  0.1722
28076W        W43545  10.637   9.274  15.866 -0.0096  0.0226 -0.1286
28077W        W43546  16.999   2.082   4.458 -0.1903 -0.2552  0.0926
28078W        W43547  10.580   3.122  15.891  0.1217 -0.0910  0.0014
28079W        W43548   7.011   4.533  13.254  0.1232 -0.2214  0.3857
28080W        W43549   3.238   9.627   0.612 -0.1242 -0.0757 -0.2884
28081W        W43550   7.801   0.884  15.204 -0.0205  0.1498  0.0377
28082W        W43551   3.123   4.441   1.355  0.0516  0.2446  0.0559
28083W        W43552   1.228   4.506  14.933 -0.0183 -0.0954 -0.0153
28084W        W43553  11.117  14.495   1.793  0.2575 -0.3420 -0.0103
28085W        W43554  16.556  15.413   2.760  0.1030  0.0412  0.0374
28086W        W43555   7.689  15.134   5.324  0.0305  0.0698  0.1377
28087W        W43556   6.194   2.839  14.888 -0.1630 -0.0251  0.2108
28088W        W43557   0.679  16.829  14.950  0.2198 -0.1187  0.1300
28089W        W43558   1.646   3.856  15.998  0.0201 -0.1094 -0.1720
28090W        W43559  15.219   5.032  13.313 -0.0819 -0.0864 -0.2932
28091W        W43560  17.847   3.455   4.409  0.0347  0.0415 -0.1062
28092W        W43561  15.594  11.726   5.747  0.0423 -0.1371 -0.1850
28093W        W43562   0.564   6.094   5.184  0.0943 -0.0620 -0.1132
28094W        W43563  17.059   2.374  12.059  0.1746 -0.2067  0.2784
28095W        W43564  16.143  16.505   5.461  0.0601 -0.1641  0.1254
28096W        W43565   2.212   3.620   0.800  0.0861  0.0708 -0.1526
28097W        W43566   6.110   8.430   0.408  0.0298  0.3772 -0.0752
28098W        W43567   1.806  10.969  13.456  0.0847 -0.1680  0.0950
28099W        W43568   4.852   7.573  13.815 -0.1657 -0.2153 -0.4235
28100W        W43569  12.494  15.479   3.801 -0.0038  0.1200  0.3180
28101W        W43570   0.314  14.867   0.648  0.2448 -0.2055  0.1145
28102W        W43571  11.280  16.494  11.305 -0.0389  0.3349  0.1965
28103W        W43572   8.992  16.164  16.424  0.0125  0.1244  0.1557
28104W        W43573  15.229  10.115   4.817 -0.2166  0.1090 -0.0201
28105W        W43574   9.333  14.060  11.427 -0.0628  0.0408 -0.0399
28106W        W43575  16.715   1.078   5.668  0.0196 -0.1145 -0.1238
28107W        W43576   2.071   5.889  10.596  0.3388  0.0140 -0.1873
28108W        W43577   4.670   8.724   4.535 -0.1011  0.1550 -0.1413
28109W        W43578   6.232  17.635  15.380 -0.1418 -0.1025 -0.1944
28110W        W43579   0.407   9.631  16.454 -0.1664 -0.2874  0.0804
28111W        W43580   7.708  12.825  13.977  0.1087 -0.1247 -0.0317
28112W        W43581   1.916   2.691   2.535 -0.1640 -0.0195  0.0358
28113W        W43582   6.736   5.047   4.339 -0.1871  0.0305 -0.2328
28114W        W43583  12.752  15.225   2.662  0.1175  0.0579 -0.1582
28115W        W43584   2.528   0.844   1.624  0.0598  0.0166  0.1075
28116W        W43585  14.051   4.428   2.098 -0.0081 -0.0770 -0.2685
28117W        W43586   5.703   0.601  12.604  0.1680  0.0124 -0.0342
28118W        W43587   2.912   5.429   0.137 -0.1730 -0.1092 -0.0790
28119W        W43588  17.639   8.455  11.192 -0.1994  0.1849 -0.2724
28120W        W43589   6.532   6.327   5.598 -0.0739 -0.0107 -0.1326
28121W        W43590  13.264  10.152   2.010  0.1461 -0.1539  0.2241
28122W        W43591  12.155   1.037   4.475  0.1047  0.0729 -0.0679
28123W        W43592   1.311  17.684  12.355 -0.1225 -0.3396 -0.1023
28124W        W43593   0.379   7.804  13.382  0.0655 -0.0109  0.4151
28125W        W43594  10.093  14.708  12.154  0.2013 -0.3346  0.1991
28126W        W43595   7.934   9.964  15.462  0.2174 -0.1336 -0.0772
28127W        W43596  15.850  16.383   2.928  0.0476  0.4543  0.1273
28128W        W43597   9.285   2.156  16.524  0.1229  0.3260 -0.0341
28129W        W43598   2.772   7.371   1.670 -0.0748 -0.0415 -0.0552
28130W        W43599   4.138   4.639  11.053  0.2819 -0.1545 -0.0074
28131W        W43600   2.742   3.239  11.830 -0.2304  0.1341 -0.1754
28132W        W43601   9.506  17.241   4.644  0.1145 -0.2092  0.0556
28133W        W43602  12.067   1.749  15.609 -0.1347  0.1142  0.2809
28134W        W43603  10.230   9.788  15.047 -0.0400 -0.3051  0.0040
28135W        W43604  16.273  17.333  14.163  0.0242  0.2625  0.1085
28136W        W43605  16.210  16.108   3.356 -0.1194 -0.1440  0.0933
28137W        W43606   5.638   0.609   1.782  0.0340 -0.4281 -0.3290
28138W        W43607  16.832  17.204   5.048  0.0214 -0.2001  0.1037
28139W        W43608   9.930   6.796   4.255 -0.0428 -0.0471  0.1379
28140W        W43609  15.368  14.044   1.082 -0.0974 -0.2261  0.1757
28141W        W43610   5.824  12.390  13.008  0.2658 -0.1720 -0.2515
28142W        W43611  16.144  14.332   4.611 -0.0452  0.0066 -0.2430
28143W        W43612  12.601  10.259  15.365 -0.0075  0.0037 -0.1862
28144W        W43613  14.669  10.829  12.388  0.1417 -0.0883 -0.1232
28145W        W43614  13.400  16.913  13.554  0.0468 -0.0356 -0.3051
28146W        W43615   7.563  10.446  12.815 -0.0790  0.1598 -0.1417
28147W        W43616   4.639   3.812  14.369 -0.0140 -0.2946 -0.0679
28148W        W43617  10.160   5.988   1.945 -0.2984 -0.0634 -0.1039
28149W        W43618   3.080   7.963   0.422  0.2352 -0.0862 -0.0418
28150W        W43619  11.463   4.050   1.170  0.0432  0.0018 -0.0640
28151W        W43620  11.403   1.421   0.633  0.0759  0.3755 -0.1510
28152W        W43621  15.269   9.191   3.467  0.2680 -0.0313 -0.0423
28153W        W43622   2.062   2.321  12.367  0.0746  0.1289 -0.0553
28154W        W43623   6.185   3.810   1.710  0.2187 -0.1995 -0.0968
28155W        W43624   9.640   0.900  12.050 -0.2848 -0.1542  0.0122
28156W        W43625  16.424   5.692   2.045  0.2371  0.1723 -0.1260
28157W        W43626  11.863   4.378  15.750 -0.0251  0.0759 -0.0813
28158W        W43627  17.610   3.815  11.663 -0.4348  0.3962  0.2211
28159W        W43628   3.676   8.767  14.015  0.1761 -0.1441 -0.4169
28160W        W43629  12.807   9.155   4.513  0.0332 -0.1072  0.3573
28161W        W43630   3.370   5.194  14.382 -0.1129  0.1852  0.1735
28162W        W43631   3.446   8.353  12.218  0.1658  0.3044 -0.2106
28163W        W43632  11.303  13.837  12.547 -0.0628 -0.0367 -0.0825
28164W        W43633   0.003  14.035   1.477  0.0169  0.0260 -0.0505
28165W        W43634  17.963   5.125   5.804 -0.1892 -0.1028 -0.0174
28166W        W43635  13.863  12.366  14.538  0.2275 -0.0573  0.0730
28167W        W43636  17.437  16.368   3.525 -0.1863 -0.0449  0.0701
28168W        W43637   8.253  13.113  12.608 -0.2192 -0.0594 -0.1507
28169W        W43638   3.123  11.056  13.352  0.0637 -0.1766 -0.0388
28170W        W43639   4.606   7.269   5.872  0.2166  0.0248  0.1405
28171W        W43640  14.172  17.956  10.744 -0.0315  0.2083  0.3415
28172W        W43641  12.896   2.122   5.975  0.0110  0.1092  0.1462
28173W        W43642  11.293   5.755  13.033 -0.0153 -0.0599  0.2448
28174W        W43643   7.480   2.717  11.061  0.2566 -0.1651 -0.0725
28175W        W43644   1.275   9.576  14.747  0.1862 -0.1160 -0.0723
28176W        W43645  14.275  12.183  16.012 -0.1596  0.0376  0.1699
28177W        W43646   2.440  16.406  13.765 -0.0831 -0.0020  0.2413
28178W        W43647   8.920   0.354  12.184  0.2701  0.0084 -0.1960
28179W        W43648   4.086   5.424   0.708  0.2757  0.0085  0.1096
28180W        W43649   1.496   5.017  16.392 -0.2664 -0.2489 -0.0337
28181W        W43650   4.068  16.349   1.397  0.0329  0.1905 -0.3205
28182W        W43651   1.081   2.623   4.076 -0.0648  0.0310  0.0615
28183W        W43652   5.124  12.893  16.435 -0.1824  0.0574 -0.2019
28184W        W43653  14.204   8.689  11.746  0.1251 -0.0091 -0.1441
28185W        W43654   8.841  10.120  12.065 -0.0251 -0.1275  0.2370
28186W        W43655  12.009   0.809   1.591  0.1856 -0.0857 -0.0649
28187W        W43656  16.652  15.119  16.163 -0.0009 -0.0893 -0.1788
28188W        W43657   6.286  16.803   2.703 -0.2226 -0.0281  0.2878
28189W        W43658   3.637   6.095  14.779  0.0520 -0.0743  0.1867
28190W        W43659  13.756  13.556   4.819  0.1777 -0.1139 -0.3320
28191W        W43660   8.867   8.183  13.786 -0.2787 -0.3680  0.0546
28192W        W43661   2.961   9.097  11.363  0.0159 -0.2708  0.0426
28193W        W43662  13.531   4.475  11.234  0.1143 -0.0682  0.1171
28194W        W43663  14.379  13.171   2.136  0.2458  0.2604 -0.1967
28195W        W43664   8.801  10.593  13.386 -0.0340 -0.1906 -0.1566
28196W        W43665   4.907  16.874   5.368 -0.1884 -0.2816  0.0929
28197W        W43666   3.560  10.676  13.970  0.1033 -0.2500 -0.1412
28198W        W43667  17.133  14.143   1.666  0.6234 -0.0963 -0.2168
28199W        W43668  17.850   7.040  16.187 -0.0546  0.0134  0.2561
28200W        W43669   9.159  12.114  14.395 -0.2555  0.2261 -0.1764
28201W        W43670   8.234  12.712  16.465  0.1551 -0.2215 -0.1395
28202W        W43671   7.020   2.638   4.598 -0.1099 -0.0558 -0.1148
28203W        W43672   1.438   6.078  11.990 -0.0267  0.2094 -0.0113
28204W        W43673  15.812   6.882   5.553  0.1507  0.2199 -0.2604
28205W        W43674  15.232  16.970   5.355 -0.1286 -0.0036  0.1808
28206W        W43675  10.723   5.944  14.389 -0.1567  0.0629  0.1072
28207W        W43676   5.051   1.145  16.377 -0.0438 -0.2627  0.1386
28208W        W43677   2.887  13.830   5.826 -0.3442 -0.3518 -0.1118
28209W        W43678  13.133  12.238  15.173  0.2010  0.1620 -0.0042
28210W        W43679   8.136   9.036   3.783 -0.2925  0.1142 -0.0102
28211W        W43680   3.914   9.190   4.863  0.1906 -0.4632  0.2291
28212W        W43681   8.675  10.809   3.663  0.0738 -0.0117 -0.1028
28213W        W43682   6.466   0.897  16.542 -0.0320 -0.1310  0.1193
28214W        W43683   5.991  15.143  13.484  0.1554  0.2254  0.0703
28215W        W43684  13.415  17.235   0.421  0.0272 -0.1517  0.2248
28216W        W43685   0.768  10.874   5.368  0.1556 -0.0955  0.1243
28217W        W43686  15.611  16.547  15.733  0.0067  0.2376 -0.1830
28218W        W43687   4.801  14.410   2.095  0.2359  0.1387 -0.1908
28219W        W43688   8.344   2.028  13.077  0.3188 -0.1359 -0.0213
28220W        W43689  15.357  10.979  15.168  0.3659 -0.3171  0.0889
28221W        W43690  15.459   4.198   2.053  0.1381 -0.0286  0.1059
28222W        W43691  14.745  17.149  13.444 -0.0773 -0.1389  0.2847
28223W        W43692  15.197   6.049  14.498 -0.1835 -0.0857 -0.1510
28224W        W43693   8.093   0.866   4.942 -0.0686 -0.0317  0.1025
28225W        W43694   0.030   2.027  16.021  0.1412 -0.0443  0.0199
28226W        W43695   4.004   8.582  15.035 -0.1029 -0.0922 -0.4164
28227W        W43696  12.731  10.808  14.638  0.1118  0.0236  0.2094
28228W        W43697   5.977  13.363   2.171  0.2271  0.0417  0.2222
28229W        W43698   0.868   1.492   4.589 -0.0929  0.0420  0.1690
28230W        W43699   8.266   4.239   3.489  0.0479  0.0733 -0.4344
28231W        W43700   7.512  11.452   3.799  0.0221 -0.0515 -0.1476
28232W        W43701   3.557  12.422   1.350  0.2202 -0.1405  0.0220
28233W        W43702  11.779   8.265  14.111 -0.0022  0.1310 -0.1317
28234W        W43703  11.338   0.632   4.693 -0.2273  0.0765 -0.2690
28235W        W43704  16.585   9.328  11.304  0.2873  0.2528  0.1596
28236W        W43705  17.471   6.030   1.998  0.2863 -0.0963  0.0043
28237W        W43706  11.155   4.226   2.209  0.4030 -0.0260  0.1089
28238W        W43707  10.828   3.790   5.840 -0.2124 -0.0383 -0.1579
28239W        W43708   8.377  12.559   3.935  0.1268  0.0822  0.1969
28240W        W43709   0.104  14.865   3.711 -0.2292  0.0355  0.0554
28241W        W43710   5.582   1.644  13.133 -0.2406  0.2430  0.2372
28242W        W43711   1.301  16.008   0.389  0.2212  0.2002  0.3404
28243W        W43712   1.883   3.259  13.873  0.0999  0.0157  0.2871
28244W        W43713   4.198   4.244   3.922  0.2612 -0.2075  0.1494
28245W        W43714  11.037  12.185   3.222 -0.0543  0.0899 -0.0448
28246W        W43715   7.496  14.335   3.951  0.3528 -0.2659  0.2729
28247W        W43716   0.772   5.760  15.557  0.0053  0.0305 -0.1182
28248W        W43717   6.688   9.494  15.286  0.2110 -0.2705  0.0011
28249W        W43718  13.232  15.708  15.347  0.0235  0.0947  0.2946
28250W        W43719   3.755   9.403  16.182  0.0606  0.1085 -0.0782
28251W        W43720  15.651   1.434   0.975 -0.1819  0.3111 -0.2594
28252W        W43721   3.803  13.203   1.070 -0.0523  0.0164 -0.2308
28253W        W43722   6.956   2.269  12.369 -0.0722  0.1545  0.0293
28254W        W43723  13.479  16.579   1.749  0.1574 -0.0704 -0.1697
28255W        W43724  16.319  12.411   4.704  0.0274 -0.1663  0.0758
28256W        W43725   9.420   9.371   3.195  0.0427  0.2705  0.0188
28257W        W43726   7.793   5.187   5.906  0.2044  0.2111  0.0466
28258W        W43727  10.740   0.501   2.121 -0.0689 -0.0178  0.1673
28259W        W43728  11.074  12.077   1.548  0.0142 -0.1050 -0.4024
28260W        W43729   0.050  14.477   1.834  0.1594  0.0006  0.2699
28261W        W43730   9.528  16.181  12.483  0.3346 -0.0624  0.0008
28262W        W43731  10.451   8.156   3.071  0.0325  0.0414  0.2136
28263W        W43732   7.924  15.824   2.511 -0.1317  0.3937 -0.3038
28264W        W43733   7.722  16.199  13.118 -0.1420  0.0109  0.2227
28265W        W43734   2.032  10.058  15.799 -0.3761  0.0389  0.0699
28266W        W43735   8.930   0.458  13.770  0.0255 -0.2593 -0.2419
28267W        W43736  17.941  14.961  12.450  0.1302 -0.0061 -0.0229
28268W        W43737  11.866   9.196   1.647  0.3302 -0.1676  0.1120
28269W        W43738   6.077  17.674  12.470 -0.1546  0.1694 -0.1106
28270W        W43739   5.801   9.021   3.301  0.1285  0.1056 -0.1013
28271W        W43740   5.822   5.624   1.431  0.3724 -0.1282  0.0218
28272W        W43741   2.575   4.405  15.048 -0.1463  0.0251 -0.0183
28273W        W43742   9.344  10.654  11.707 -0.2551  0.0054 -0.0751
28274W        W43743   4.774  12.656  16.207  0.2570  0.2123  0.2139
28275W        W43744  14.475   7.957  13.265  0.1053 -0.0930 -0.0835
28276W        W43745   1.848  17.145  14.014  0.0916 -0.3398 -0.2827
28277W        W43746   4.727  12.013   1.548  0.2314  0.0039  0.0166
28278W        W43747   8.696   2.427   0.616  0.1539 -0.0676 -0.2259
28279W        W43748  11.267   7.511  14.258 -0.2754  0.1499  0.1265
28280W        W43749  13.623  16.378   0.587  0.2420  0.1480  0.4765
28281W        W43750  11.920  14.386   1.108  0.0708  0.0223  0.0002
28282W        W43751  12.610  17.670   3.014  0.2524  0.1024  0.0064
28283W        W43752   0.557   7.107   0.471 -0.0525 -0.0082 -0.1240
28284W        W43753   2.876  11.944  14.640 -0.1606 -0.0715 -0.1731
28285W        W43754  14.138   0.911  16.114  0.6619  0.0904  0.2613
28286W        W43755   1.184  10.869   2.639 -0.1872 -0.2203  0.1073
28287W        W43756  11.229  14.082  16.033  0.1682  0.5088 -0.0205
28288W        W43757   6.232  15.467   3.424  0.0317  0.0646 -0.1018
28289W        W43758  14.176  10.080  10.632  0.1357  0.5412 -0.2730
28290W        W43759  13.735   4.987   5.531 -0.2450 -0.1450  0.0896
28291W        W43760  10.341   1.474   0.287 -0.1054  0.1608  0.0338
28292W        W43761  16.463   9.600  13.038  0.0564 -0.0462  0.1820
28293W        W43762   6.535  14.046  14.143 -0.0739 -0.1729  0.0784
28294W        W43763   6.277  11.898   4.632 -0.0366  0.1042 -0.1277
28295W        W43764   9.035   4.584  11.445  0.0420  0.1001 -0.0245
28296W        W43765  11.340  10.064  13.750  0.0374  0.0749  0.2628
28297W        W43766  16.996  14.633  16.129  0.0698 -0.1370 -0.2353
28298W        W43767  16.802   3.588  12.141 -0.3004  0.0230 -0.0470
28299W        W43768  16.690  15.010  15.689  0.3596  0.1067  0.1857
28300W        W43769   1.014   0.291   5.487 -0.1455 -0.3882  0.0141
28301W        W43770   7.316   5.468   4.145  0.0134 -0.3448 -0.1218
28302W        W43771   2.734   9.571  15.448  0.2260 -0.4413 -0.2754
28303W        W43772   0.026   7.387   3.382 -0.1142  0.0779  0.0209
28304W        W43773  17.974   5.212  16.580  0.0378  0.3400 -0.0902
28305W        W43774   0.924  11.209   2.356  0.1340  0.0121 -0.0716
28306W        W43775  11.299   8.404  14.410 -0.1139  0.1205 -0.0843
28307W        W43776   3.105   4.555   0.854 -0.2274  0.1375  0.0452
28308W        W43777   1.697   9.206  11.907  0.2406  0.1564 -0.0525
28309W        W43778  15.777   2.539   0.430  0.0665 -0.1081 -0.2119
28310W        W43779   7.484  12.318   1.954  0.0629  0.1941 -0.1278
28311W        W43780   1.404  12.784   1.318  0.0380  0.1698 -0.0435
28312W        W43781   2.006  11.167   9.943  0.0490  0.0265  0.1439
28313W        W43782  10.568  17.021  14.307  0.0024 -0.3117  0.0124
28314W        W43783  16.677   3.283  13.880  0.0544  0.1022  0.0942
28315W        W43784  13.046  11.545   0.255  0.3841  0.2910  0.1156
28316W        W43785   0.999  12.020  14.622 -0.1634  0.1202 -0.3097
28317W        W43786  16.076  13.594   3.559 -0.2185 -0.1246  0.2479
28318W        W43787  11.054  11.255  11.274 -0.0691 -0.0518 -0.1857
28319W        W43788   6.175   9.261   5.089  0.3804 -0.1870 -0.1101
28320W        W43789  17.390  12.991  15.780 -0.2620 -0.2147  0.3117
28321W        W43790   5.833   5.069   5.226 -0.0152  0.0031 -0.3420
28322W        W43791  11.574   3.759   3.081  0.2523  0.0333  0.1392
28323W        W43792  14.447  17.862  13.595 -0.0358  0.1146 -0.0634
28324W        W43793  14.811  12.643   3.244 -0.1097 -0.0653 -0.0245
28325W        W43794   5.246  14.085  14.449 -0.1967 -0.0888  0.2727
28326W        W43795  15.080  15.698  14.096 -0.0145 -0.3517 -0.0045
28327W        W43796  16.728  13.761   0.712  0.0665 -0.0985 -0.1201
28328W        W43797   7.403  11.646  10.611  0.1044 -0.0792 -0.0779
28329W        W43798  15.313  17.020  14.589  0.0383 -0.0549  0.0069
28330W        W43799   8.532   0.315   2.777  0.1516  0.0464  0.0651
28331W        W43800   3.924  11.701  14.237  0.0736 -0.1997 -0.3564
28332W        W43801  13.281   1.756  11.898  0.0277 -0.3192 -0.1300
28333W        W43802   1.617  15.273  13.164 -0.0291 -0.1141 -0.3030
28334W        W43803   2.954  13.636   2.600  0.1431  0.2581 -0.0761
28335W        W43804  10.054   6.637   4.868  0.0908 -0.0215 -0.0214
28336W        W43805   2.350   9.324   0.155 -0.0662 -0.0163  0.1360
28337W        W43806  15.482   0.701   2.210  0.1467  0.1428  0.1345
28338W        W43807   9.210  12.585   5.638 -0.0249 -0.0103  0.0452
28339W        W43808   3.429   8.314   3.845  0.0706  0.2072 -0.0163
28340W        W43809   7.843   2.840   4.493 -0.0079 -0.3135 -0.1274
28341W        W43810  11.676  10.802  14.706 -0.0381  0.1646 -0.2170
28342W        W43811   9.822   0.147   5.088 -0.0874 -0.1478  0.0524
28343W        W43812  17.360  16.240  14.426 -0.0574  0.1605 -0.1056
28344W        W43813  17.325  16.738  14.615  0.0692 -0.1820 -0.0889
28345W        W43814  16.831   3.967  10.912  0.2428  0.3188 -0.1488
28346W        W43815  15.484   5.680  14.789 -0.4118  0.0471  0.2209
28347W        W43816   9.344  11.956  11.801 -0.3035 -0.1341  0.0779
28348W        W43817   1.971  11.536   1.803  0.0156  0.0948  0.2938
28349W        W43818   4.885  12.369   0.561  0.0487  0.2637 -0.2058
28350W        W43819   4.016  16.477  12.147  0.2146 -0.0441  0.4082
28351W        W43820   2.713  15.044   4.398  0.4027 -0.1659 -0.1540
28352W        W43821   8.091   1.101   0.043 -0.1267  0.1748  0.1610
28353W        W43822  13.489  16.472  14.948  0.1194 -0.0628  0.2423
28354W        W43823   7.854  11.725  13.988 -0.1802  0.0296 -0.0844
28355W        W43824  15.883  15.336   4.420  0.0784  0.2892  0.0322
28356W        W43825  16.273   7.198  10.523  0.0043 -0.1990  0.1176
28357W        W43826  14.566   0.533   1.429 -0.2780 -0.1441 -0.0468
28358W        W43827   4.424   1.447   2.326 -0.0892  0.0305  0.2314
28359W        W43828   3.015  13.480  13.687  0.1054  0.1009  0.0257
28360W        W43829  10.324  13.377   5.084  0.0424  0.0796 -0.0457
28361W        W43830  12.064  12.454  13.763 -0.0544 -0.2496  0.0383
28362W        W43831  10.477  16.182  14.007  0.1031 -0.2714 -0.0499
28363W        W43832  12.495   1.784   1.906 -0.1531  0.2423  0.1358
28364W        W43833  10.738  12.988   0.998 -0.0580  0.2665  0.1689
28365W        W43834  15.962   0.468  16.391 -0.0826 -0.3584 -0.4495
28366W        W43835   6.751  13.646   0.293 -0.0966 -0.2058 -0.0714
28367W        W43836   8.637  13.669   2.336 -0.1523 -0.2110  0.0705
28368W        W43837  11.157   9.617  14.029 -0.0656 -0.1738  0.2833
28369W        W43838   0.272  11.256   2.762 -0.1106  0.2144  0.3898
28370W        W43839   7.429  13.237   3.560 -0.1049  0.1847  0.2814
28371W        W43840   9.702   0.797  16.525 -0.0161  0.3665  0.1919
28372W        W43841   9.789  11.280  13.137  0.1990 -0.0253 -0.1399
28373W        W43842  13.278   2.359   3.812  0.4420 -0.0787  0.1642
28374W        W43843   6.553   6.004   3.580  0.2465 -0.0947  0.3500
28375W        W43844  15.543   0.138  11.884 -0.0365 -0.2471 -0.2008
28376W        W43845  13.714  17.948  14.781 -0.0244  0.2494 -0.0203
28377W        W43846   7.801   0.524  11.604  0.0805  0.3497 -0.5007
28378W        W43847  11.062   9.093  12.803  0.2283  0.1388 -0.0156
28379W        W43848   1.180   5.727  13.198  0.3004 -0.1442 -0.0547
28380W        W43849   6.403   4.346   1.002 -0.2264 -0.3182  0.1921
28381W        W43850   2.107  15.422  14.532 -0.0891  0.0904  0.2084
28382W        W43851  12.307  12.456  12.172  0.1302  0.0836 -0.0716
28383W        W43852  10.920   3.155   0.693 -0.0440 -0.1170  0.2130
28384W        W43853   6.771   2.793  14.844 -0.2058 -0.1759  0.3759
28385W        W43854   0.129  13.744   4.622 -0.1533  0.2105 -0.0547
28386W        W43855  17.850   8.595  11.616 -0.0370  0.0523 -0.3428
28387W        W43856   7.449   1.420   5.073  0.3148  0.1584  0.2005
28388W        W43857   1.261   3.994   0.545  0.1055  0.1042 -0.2294
28389W        W43858   5.621  14.345   4.919 -0.1717 -0.0675 -0.1114
28390W        W43859   6.196  17.182  16.390 -0.2647 -0.1583  0.1638
28391W        W43860  12.487   6.535  15.359 -0.0701 -0.2671  0.0079
28392W        W43861   3.380   6.557  11.922 -0.3441 -0.1456  0.3445
28393W        W43862   0.265  10.422  15.231  0.0562 -0.1482  0.0884
28394W        W43863  16.432   3.005  11.450 -0.1266  0.1372  0.3412
28395W        W43864  12.626   3.141   0.148 -0.1833  0.0939 -0.0312
28396W        W43865  17.871   0.813   3.924 -0.1869 -0.0508 -0.0526
28397W        W43866  13.924   5.208  16.429  0.0080 -0.2577  0.0902
28398W        W43867  13.552   1.865   0.372  0.0544  0.0911 -0.0132
28399W        W43868  12.112  16.291   3.140 -0.0622 -0.0015  0.1587
28400W        W43869  11.020   3.425  15.300  0.0374 -0.0080  0.0704
28401W        W43870   4.620  13.953  11.881 -0.0277 -0.2434  0.0112
28402W        W43871   9.412  14.717  14.299  0.0509  0.0614 -0.0308
28403W        W43872   6.319  17.461   0.610  0.1987  0.1095  0.1630
28404W        W43873  12.267  11.238   1.278 -0.0976  0.5147  0.0433
28405W        W43874   4.944   3.571  14.001  0.0753  0.0302 -0.0813
28406W        W43875  16.555   2.615  13.233  0.0628  0.0177 -0.0283
28407W        W43876   7.152   6.358   4.552 -0.2944 -0.2098 -0.2496
28408W        W43877   6.069  11.367   2.043  0.0920  0.1040 -0.1017
28409W        W43878  15.233  11.365   4.903  0.4349 -0.4172 -0.0953
28410W        W43879   4.168   4.851  14.033  0.1696  0.0988 -0.0798
28411W        W43880   3.203   8.595  11.250  0.0127  0.1480 -0.1405
28412W        W43881   0.239   2.382  15.125 -0.1485 -0.2175 -0.0473
28413W        W43882   3.174  15.849   3.555 -0.1544  0.1478  0.1397
28414W        W43883  12.395  15.840  13.788  0.1303  0.2970  0.1428
28415W        W43884  10.711  14.981  12.048 -0.0000  0.1266 -0.0774
28416W        W43885   8.868   3.579  11.516  0.0017  0.1421  0.1017
28417W        W43886   9.770   1.725  12.256  0.2208  0.1708  0.4524
28418W        W43887  15.622   0.285   1.961 -0.1331 -0.0923 -0.0735
28419W        W43888  14.924   2.968  15.418 -0.3413 -0.1164 -0.2885
28420W        W43889  12.346  16.322  13.616  0.2188 -0.2863 -0.2400
28421W        W43890   0.995  17.841   1.544  0.0654 -0.0618 -0.0477
28422W        W43891  10.686   1.373   3.462  0.1000  0.0034 -0.1254
28423W        W43892  12.479   6.190   0.767  0.1868  0.0483  0.2841
28424W        W43893  15.181   8.691  11.320  0.0640  0.1455  0.0133
28425W        W43894   8.048  16.245  16.489 -0.2378  0.1887  0.1550
28426W        W43895  15.161   3.116   1.878  0.0951 -0.2322  0.0270
28427W        W43896   1.276  13.518  12.740 -0.0518  0.2181 -0.0100
28428W        W43897   7.211   2.426   2.274 -0.0733  0.0230  0.1217
28429W        W43898  17.768  14.457  14.207 -0.0403 -0.1570 -0.0604
28430W        W43899   0.915  15.221   3.886 -0.0728  0.1576 -0.0062
28431W        W43900  14.367   7.346   1.631  0.0762  0.0905 -0.1717
28432W        W43901   2.081  13.904   3.726  0.1587 -0.0525 -0.0787
28433W        W43902   1.131   7.861   4.005  0.1617 -0.1734  0.4818
28434W        W43903  12.946  12.158  15.991 -0.0068  0.0615  0.1111
28435W        W43904  17.347   0.076   0.980 -0.0201 -0.1681 -0.0553
28436W        W43905  10.183  16.051   2.123  0.0458 -0.1978 -0.1053
28437W        W43906   4.153   3.970  16.326 -0.0681 -0.2044 -0.0721
28438W        W43907   2.183  11.090   3.707 -0.1890  0.1056 -0.0408
28439W        W43908   9.498  15.795   4.449  0.0692 -0.1944 -0.0400
28440W        W43909   7.720  10.145  16.437  0.0708  0.0388 -0.2109
28441W        W43910  11.368  11.892   3.857  0.2058  0.0758 -0.0873
28442W        W43911   0.826  13.533  12.511  0.0225  0.2101  0.1487
28443W        W43912   0.734  11.030   1.315 -0.1855 -0.1879 -0.2551
28444W        W43913  11.797  10.665   4.936 -0.1645  0.1021  0.1015
28445W        W43914  15.071   2.379   1.270  0.0870  0.0523 -0.0257
28446W        W43915  14.714   1.082   0.257 -0.1090  0.0571 -0.0095
28447W        W43916   6.760  16.492  15.702  0.0331 -0.0669 -0.0188
28448W        W43917   2.763  15.828   5.476  0.1921  0.1227 -0.2063
28449W        W43918  16.374   5.726  10.864  0.1098  0.1821  0.1322
28450W        W43919   1.211   8.500  10.512 -0.2000 -0.0699 -0.2292
28451W        W43920  13.491   6.904  15.337 -0.2744 -0.0923  0.2193
28452W        W43921  15.207  11.895  12.188 -0.2046  0.0993 -0.0319
28453W        W43922  13.728   0.942   4.092  0.0928 -0.1510  0.1764
28454W        W43923   6.130   4.283   1.530 -0.0642 -0.0560  0.0817
28455W        W43924   5.982   1.623  16.275  0.1534 -0.1392 -0.0886
28456W        W43925  17.510  16.124   2.186  0.2347 -0.1260  0.0706
28457W        W43926  12.649  16.507   4.150 -0.0128 -0.0177 -0.0106
28458W        W43927   5.724  17.209   5.773 -0.4845  0.1730  0.0397
28459W        W43928   8.428  17.743   1.006 -0.0591  0.0865 -0.1813
28460W        W43929   7.060  14.027   1.931  0.0492  0.2055 -0.1751
28461W        W43930   6.234   9.157  16.451 -0.2015 -0.1383 -0.1420
28462W        W43931  14.643  10.741   0.131  0.4034 -0.0849 -0.2386
28463W        W43932  17.079  12.973  13.695  0.0852 -0.3686 -0.0771
28464W        W43933  16.858  11.366   0.702  0.0550  0.2511 -0.0157
28465W        W43934  15.922  14.550  13.510  0.0765 -0.0832  0.2819
28466W        W43935   8.077  10.245   2.361  0.1242  0.0095 -0.0222
28467W        W43936  17.116   0.069  12.056 -0.1031  0.3169 -0.1197
28468W        W43937   1.210   6.153   2.259  0.0785  0.0319  0.0146
28469W        W43938   8.587   0.082  14.474  0.3086  0.2215 -0.1355
28470W        W43939   2.249   9.915  16.234  0.3199 -0.3041  0.0393
28471W        W43940   1.437   9.876   5.148 -0.2582 -0.0151 -0.2563
28472W        W43941   6.462   4.571  16.416 -0.2899 -0.4618  0.1605
28473W        W43942   4.292   6.513  10.604 -0.0264  0.1018 -0.2080
28474W        W43943   3.636   3.403   1.853  0.3863 -0.2517 -0.2206
28475W        W43944   0.975   4.148   0.187 -0.2508  0.1976 -0.0599
28476W        W43945   0.107  14.613   6.065  0.2184 -0.1037 -0.1861
28477W        W43946   8.927  15.040   5.649 -0.3652 -0.0215 -0.0916
28478W        W43947  11.479  12.530  13.721 -0.1305  0.0699  0.1984
28479W        W43948  11.100  16.754   3.493 -0.2576 -0.1501  0.0336
28480W        W43949  10.700   9.667   5.583 -0.0187  0.1385  0.1647
28481W        W43950  14.687  17.034   2.751  0.3095 -0.0496 -0.1024
28482W        W43951  10.853   8.190   4.485  0.1115 -0.2272  0.0723
28483W        W43952   9.995   2.774   3.503  0.0451 -0.0820  0.2871
28484W        W43953  16.656   3.746   3.780  0.0463  0.0139  0.1867
28485W        W43954   6.817   7.388   0.487 -0.0099  0.2191 -0.0354
28486W        W43955   4.534  13.429  12.518  0.1271  0.4228 -0.0614
28487W        W43956  14.778   6.057  13.931 -0.1865 -0.2554 -0.3298
28488W        W43957   2.703   2.542   5.909 -0.1196  0.1056  0.2114
28489W        W43958  17.730  16.766   5.673 -0.1968  0.2887  0.2889
28490W        W43959   2.435   7.398  13.042 -0.0525  0.1468 -0.1541
28491W        W43960  11.796  16.537   0.484 -0.0897 -0.0321 -0.0603
28492W        W43961   5.804  17.396  14.858  0.0838  0.1091 -0.0022
28493W        W43962   7.834  13.375  14.134 -0.0976  0.0163  0.1520
28494W        W43963   0.098   4.696   0.013  0.0311 -0.1768  0.0322
28495W        W43964   8.024  14.263  13.641 -0.2936  0.1224  0.1728
28496W        W43965   7.896   1.913  11.448  0.0949 -0.2626  0.1400
28497W        W43966  14.369   5.472   3.465 -0.1716  0.0657 -0.2470
28498W        W43967   4.276  16.534  12.740 -0.2809  0.3292 -0.0661
28499W        W43968   7.173   5.514  11.183 -0.0080 -0.0010 -0.0616
28500W        W43969   7.265  14.829   4.525 -0.2561 -0.1828 -0.1303
28501W        W43970  11.989   6.440  14.513 -0.0880 -0.0732 -0.0889
28502W        W43971   3.295   6.379   1.291  0.2548 -0.0551  0.0603
28503W        W43972  12.760  15.783  14.994 -0.1578  0.0791  0.0038
28504W        W43973   3.853   0.160   5.769  0.1823 -0.3556  0.2417
28505W        W43974  11.161  14.067  15.052  0.0494  0.0287  0.0152
28506W        W43975  17.395  17.919   4.917 -0.3050 -0.4626  0.3393
28507W        W43976   8.408   9.881   4.055 -0.2190 -0.1167  0.0135
28508W        W43977  16.951   1.261  16.198  0.2185  0.2845 -0.0639
28509W        W43978   8.775  11.023  14.632 -0.1488 -0.0563  0.0972
28510W        W43979  11.515   8.245   0.061  0.1422 -0.0644  0.0441
28511W        W43980   9.821   5.828  14.239 -0.1708 -0.1058  0.1764
28512W        W43981  15.626  14.114   0.004 -0.0193  0.4415  0.1852
28513W        W43982  10.616  16.399   5.401  0.0335  0.1945 -0.2027
28514W        W43983  14.796   4.457  14.105  0.0430 -0.3241 -0.1526
28515W        W43984  16.037  11.783  16.462  0.2590 -0.3036  0.1452
28516W        W43985  14.819  11.423   1.363 -0.0645  0.1419 -0.1805
28517W        W43986   8.808  14.107  16.499 -0.2075 -0.1157 -0.4234
28518W        W43987   6.610   6.180   0.068 -0.1755 -0.1559 -0.3987
28519W        W43988   8.032  10.174  13.889 -0.0470  0.1752 -0.0834
28520W        W43989   0.550   4.537  16.541 -0.0099  0.2830 -0.0006
28521W        W43990   3.623  15.065   0.898 -0.3294 -0.1553 -0.3083
28522W        W43991   9.994   2.640   2.975  0.0367  0.2395 -0.1100
28523W        W43992   6.235  11.645  14.841  0.0790  0.0327 -0.0258
28524W        W43993  11.464   9.807  11.461  0.2262  0.1158 -0.0973
28525W        W43994   7.653   9.291  15.064  0.2070  0.1598  0.2525
28526W        W43995   6.016   5.444   2.433  0.1423 -0.1714  0.0918
28527W        W43996  11.587   3.701   2.570 -0.0403 -0.1622 -0.2282
28528W        W43997  10.515  13.960   0.945 -0.2321 -0.0392 -0.2546
28529W        W43998   0.896  13.923   1.867 -0.1934  0.0027  0.2110
28530W        W43999  15.959   4.111  12.680 -0.3300 -0.0052 -0.3387
28531W        W44000   6.015   1.048  15.000 -0.3646  0.1436  0.0092
28532W        W44001  12.311   3.010   4.627 -0.1602  0.1263  0.1429
28533W        W44002  17.072   2.687   1.578 -0.0290  0.0873 -0.0337
28534W        W44003  10.938  13.345   1.317  0.2329  0.0055  0.1982
28535W        W44004   6.235   6.369  12.171 -0.1504 -0.1889 -0.0147
28536W        W44005  16.413   2.484   2.443 -0.1251  0.1945  0.1891
28537W        W44006  10.198  16.416  16.508 -0.2995 -0.3032  0.2957
28538W        W44007  11.230   5.905  15.815  0.1817 -0.0396  0.3362
28539W        W44008  15.335   2.998  15.776 -0.3150  0.0824 -0.0276
28540W        W44009  10.749  11.411  11.632  0.3302 -0.0380 -0.0461
28541W        W44010   3.985   3.662   4.980  0.1733 -0.0321  0.0221
28542W        W44011  10.213  10.647  14.779  0.0705 -0.0213  0.2492
28543W        W44012   4.088  14.995  13.759 -0.2388 -0.1279 -0.1422
28544W        W44013  11.175   5.055   0.931  0.1553  0.0986  0.1578
28545W        W44014   9.053   1.705   5.952 -0.0127 -0.2917 -0.1527
28546W        W44015  14.616  10.388   3.339  0.1090  0.1250  0.0995
28547W        W44016  10.797  15.884  13.135 -0.2196 -0.2214 -0.0935
28548W        W44017  17.888  12.167  11.339  0.0911  0.1441  0.0987
28549W        W44018   1.529  10.006   0.931 -0.0442  0.1660 -0.0300
28550W        W44019   7.957   4.205   4.827  0.0030  0.1328  0.1032
28551W        W44020   7.309   2.132  15.432 -0.2381  0.0810 -0.0138
28552W        W44021  17.036   3.443   3.870 -0.0658  0.0453  0.1292
28553W        W44022  10.177   1.459  16.255 -0.0724  0.2807  0.0544
28554W        W44023  12.658  15.115  14.457 -0.0060 -0.1093 -0.1069
28555W        W44024   9.671   6.492  14.752  0.0497 -0.0727 -0.1698
28556W        W44025  10.391   1.383   2.150  0.1577  0.2459  0.1377
28557W        W44026  16.679   4.297  11.579  0.2906 -0.1253 -0.0844
28558W        W44027  13.555  13.991   3.130  0.2316  0.3314  0.1415
28559W        W44028  17.646   9.193   4.623 -0.2150 -0.2091  0.0175
28560W        W44029  13.039  11.608   1.558 -0.0656 -0.0474 -0.0278
28561W        W44030   0.052  16.745   4.380  0.4525  0.0827 -0.1508
28562W        W44031  17.822  14.168  16.235 -0.3489 -0.0889 -0.0224
28563W        W44032   0.101  11.843   3.978 -0.0211 -0.0214 -0.1105
28564W        W44033   4.423  16.166  12.277 -0.1646 -0.2531 -0.0597
28565W        W44034   8.693   4.478   0.510  0.0756 -0.1364 -0.0602
28566W        W44035   3.363   6.898  11.058 -0.2423  0.0884 -0.2222
28567W        W44036  14.419  12.143  12.433  0.1941  0.1222  0.1213
28568W        W44037  16.933   9.438  15.514  0.1521 -0.0232  0.1130
28569W        W44038   0.423  17.370  13.943  0.1504  0.1529  0.0552
28570W        W44039  12.186   7.124   2.281 -0.0032  0.0327  0.0660
28571W        W44040  10.372   2.286  13.814 -0.0921 -0.1673  0.0066
28572W        W44041   9.156   5.543   1.824 -0.1010 -0.3783 -0.0215
28573W        W44042  16.533   5.124   3.116  0.2634  0.0654 -0.0352
28574W        W44043   6.769   0.550  16.404 -0.0768  0.0725  0.0978
28575W        W44044  12.387   5.829  16.347  0.2053  0.1309 -0.1555
28576W        W44045   8.082   7.439  14.816 -0.2067 -0.1238  0.0146
28577W        W44046   5.084   6.857   4.896 -0.1562 -0.0465  0.4094
28578W        W44047   4.104  16.566   0.433  0.1325  0.4719 -0.1210
28579W        W44048   0.294  10.067   2.709 -0.1567 -0.1719 -0.0422
28580W        W44049   5.375   5.479   0.584 -0.0642 -0.0299  0.0748
28581W        W44050   6.830  11.167   3.152  0.0688  0.1342 -0.0047
28582W        W44051   5.480   2.232  13.494  0.1063 -0.1462  0.0363
28583W        W44052   2.928   2.958  16.449 -0.2207 -0.0367 -0.4568
28584W        W44053   7.994  11.496  16.429 -0.0393  0.2074  0.1403
28585W        W44054  12.891   5.726   4.248  0.0220 -0.1720 -0.1276
28586W        W44055  12.279   2.017  13.763 -0.0915  0.0220  0.1966
28587W        W44056  13.640  14.774  15.989  0.0792  0.4933 -0.0221
28588W        W44057   5.858   7.940   0.420  0.0593  0.1690  0.0433
28589W        W44058  12.439  16.506  15.750 -0.1313 -0.0685 -0.1194
28590W        W44059  16.881   1.898   4.934 -0.1021 -0.0102  0.0104
28591W        W44060   2.482  16.336   1.190  0.3529  0.2608 -0.0840
28592W        W44061   7.647  16.167   2.134 -0.1024  0.0980  0.1916
28593W        W44062   8.768  14.713  15.007 -0.0314  0.0019 -0.1997
28594W        W44063   9.043  10.195  13.541  0.1589  0.1178  0.1623
28595W        W44064  10.806  13.572   0.862 -0.1482  0.1096  0.1560
28596W        W44065   4.423  12.333  16.480 -0.0394 -0.0001  0.1647
28597W        W44066   6.972   8.693   2.457 -0.1530 -0.0355  0.0604
28598W        W44067  17.119   1.919  13.820  0.0865  0.4205 -0.1840
28599W        W44068   4.290  12.750  13.436 -0.2991 -0.0236  0.1196
28600W        W44069  13.664  16.088  15.773 -0.0261 -0.1429 -0.0966
28601W        W44070  15.630  17.276  12.152  0.0456 -0.0088  0.1643
28602W        W44071   7.750   8.602   2.169 -0.0297  0.4473  0.0673
28603W        W44072  11.698   9.735  13.550  0.0172 -0.2754  0.0715
28604W        W44073   4.417  16.197  14.659  0.0718  0.2410  0.1436
28605W        W44074   3.842   0.263  16.202 -0.0330  0.0235 -0.0607
28606W        W44075   7.603   3.454  13.215  0.0817 -0.1192 -0.2469
28607W        W44076  14.727   9.003  14.775 -0.1279 -0.0300 -0.0125
28608W        W44077  11.091   4.437   0.712 -0.2182 -0.2120  0.0813
28609W        W44078  14.503   6.632  16.318  0.0112  0.0456 -0.1925
28610W        W44079  11.162   0.610  14.975 -0.2112  0.0992  0.1207
28611W        W44080  10.484   7.905  13.152  0.0176  0.0236 -0.0522
28612W        W44081  12.482   3.836  11.493  0.0118  0.2913  0.0458
28613W        W44082   2.540  14.651  16.057 -0.1298 -0.0884  0.0806
28614W        W44083   0.222   2.861   5.508  0.2343 -0.2653 -0.1057
28615W        W44084   8.905  17.844  15.748 -0.1501  0.1765  0.1978
28616W        W44085  13.967   9.403  14.130 -0.2537  0.2558 -0.2270
28617W        W44086   9.074   4.252   0.409  0.1253  0.0877  0.0956
28618W        W44087   5.614   5.576   3.050  0.1133 -0.1786 -0.2543
28619W        W44088   8.569  12.952  14.751 -0.2293 -0.1182  0.1502
28620W        W44089   7.336   2.886  14.568 -0.2002  0.1603  0.0603
28621W        W44090   7.924  13.781   0.122 -0.0593  0.0106  0.2266
28622W        W44091   5.460  16.363  12.198  0.2257 -0.0324 -0.2096
28623W        W44092   9.266  15.489   3.904  0.0267 -0.2332 -0.1133
28624W        W44093  11.254   1.194   6.804 -0.0534 -0.2877  0.1582
28625W        W44094  16.594  15.911  14.978 -0.2800 -0.1457  0.0108
28626W        W44095  11.495  11.396  16.421 -0.0900 -0.0719 -0.1537
28627W        W44096   8.670   4.952  15.952  0.0233  0.0828  0.1707
28628W        W44097  17.724  15.180  13.950  0.1563  0.0528  0.0964
28629W        W44098   0.923   0.697  13.063  0.1321  0.1111 -0.1317
28630W        W44099  11.997   2.601  16.182  0.0473 -0.3720  0.3144
28631W        W44100   3.387   7.282  11.412 -0.3925  0.2202  0.0546
28632W        W44101  17.157   5.727   4.191 -0.0206 -0.0849 -0.0859
28633W        W44102   5.863   9.504  16.550  0.0338  0.2163  0.0649
28634W        W44103   4.933   0.533  13.627 -0.0965  0.1688  0.0910
28635W        W44104  17.521   3.587   4.857  0.0797  0.1309  0.0488
28636W        W44105  13.778   4.121   5.136  0.1387  0.1560  0.0993
28637W        W44106  10.402   0.321   1.797 -0.0048  0.1935 -0.0660
28638W        W44107   6.686   2.582  12.861 -0.0796  0.1504  0.2473
28639W        W44108   2.960  13.725   5.308  0.2772  0.3329  0.2280
28640W        W44109  18.002  13.327   6.265 -0.0014 -0.1289 -0.0384
28641W        W44110  15.367  16.018   0.608  0.0793 -0.0233 -0.0898
28642W        W44111   3.820  16.675   4.746 -0.1050  0.0484 -0.2577
28643W        W44112   9.288   0.357  14.889  0.0469 -0.1864  0.1182
28644W        W44113   9.540   4.464  16.132  0.0776  0.1693 -0.0542
28645W        W44114  14.628   0.726   5.260  0.1050 -0.3915 -0.1858
28646W        W44115  14.481   3.694  13.272 -0.1443 -0.1333  0.0542
28647W        W44116   8.879  13.225   1.067 -0.1258 -0.0355  0.1627
28648W        W44117  10.246  15.778  12.989  0.0229  0.1855  0.1048
28649W        W44118   2.880  11.690  11.362 -0.1291  0.0333 -0.0417
28650W        W44119   1.429  17.883  15.185  0.1539 -0.2971  0.1012
28651W        W44120   9.752  13.239  14.672  0.3991 -0.1443  0.0156
28652W        W44121   4.863   1.307  14.624 -0.0014 -0.1175 -0.0674
28653W        W44122  15.930  10.003  16.273 -0.0659  0.3162  0.1567
28654W        W44123   5.438   7.053   3.131 -0.2197 -0.3915  0.2558
28655W        W44124   3.993  13.719   0.839 -0.2626  0.1783 -0.1628
28656W        W44125   9.353   1.289  15.936 -0.0178 -0.3000 -0.2234
28657W        W44126  13.497   9.047   2.111 -0.1173  0.1992  0.0450
28658W        W44127   5.136  14.992   2.659 -0.1416 -0.1042  0.0682
28659W        W44128   6.670  13.216  13.654  0.0405  0.2925 -0.2272
28660W        W44129   0.498   6.949  12.121  0.3594 -0.1084 -0.4257
28661W        W44130   4.625  15.371   6.217 -0.0622  0.0728 -0.0066
28662W        W44131   0.719   0.966  12.155 -0.1764 -0.0773 -0.0446
28663W        W44132   7.986   8.446   0.129  0.0381 -0.0957  0.0086
28664W        W44133   9.923   6.598  11.647  0.0445  0.1459 -0.1105
28665W        W44134  12.413  15.041  13.391  0.0349  0.1204  0.0780
28666W        W44135  14.418   1.511   2.252  0.0134 -0.1755 -0.3062
28667W        W44136   4.500  16.596  11.984 -0.0966  0.3378  0.3422
28668W        W44137   8.766   4.787   2.425  0.1399 -0.0260  0.1312
28669W        W44138   2.982   9.907  14.445 -0.0433  0.1328  0.0498
28670W        W44139   7.262   3.034  15.227  0.0729  0.2177  0.2885
28671W        W44140  13.388   4.656  14.130 -0.0370 -0.1337 -0.2151
28672W        W44141   2.688   8.026  15.344  0.3816 -0.0964 -0.1542
28673W        W44142   1.673  12.729  14.838 -0.1996  0.1579  0.0076
28674W        W44143  11.379   8.586  13.108 -0.2136  0.0039 -0.4052
28675W        W44144  15.598  15.387   3.161 -0.1335  0.0601 -0.2447
28676W        W44145   7.851   3.543  16.605 -0.0443  0.2144  0.1317
28677W        W44146   4.792  12.643  13.477  0.3470  0.2327 -0.1148
28678W        W44147   9.726   9.911   3.273  0.0615 -0.2861 -0.1472
28679W        W44148   8.276  12.400  16.093  0.1453  0.0019 -0.1277
28680W        W44149   5.227   4.579  11.431 -0.0358  0.0391 -0.1187
28681W        W44150   6.800   6.534  14.459 -0.0653  0.1621  0.0465
28682W        W44151  16.759   4.165  15.952  0.2508 -0.2430 -0.0333
28683W        W44152  10.940   9.476  15.422  0.1045  0.0004  0.2912
28684W        W44153   7.909  13.467   2.784  0.0997 -0.2176  0.1402
28685W        W44154   6.184  12.662  15.277  0.1806 -0.4243 -0.4137
28686W        W44155   8.133   9.071   1.614 -0.2317 -0.0587  0.1561
28687W        W44156   0.005   5.157   2.141  0.1740  0.0579  0.0047
28688W        W44157   0.487   2.056   3.594 -0.1854 -0.3052 -0.0834
28689W        W44158  16.188  13.137  13.386  0.2316 -0.0210  0.2598
28690W        W44159  17.840   6.580  16.228  0.1041 -0.0601  0.0039
28691W        W44160   9.932  11.109  14.933  0.0867  0.0294  0.2779
28692W        W44161  15.929  15.958  14.467  0.1511  0.0335 -0.1596
28693W        W44162  10.112  11.475  16.138  0.3209 -0.0725  0.2506
28694W        W44163  17.947  10.330  14.525 -0.1006 -0.0891 -0.2816
28695W        W44164  12.921   9.016   2.673 -0.1741  0.0728 -0.1488
28696W        W44165  13.453   4.150   0.010  0.2073 -0.2269 -0.1188
28697W        W44166  13.325   3.520  13.810 -0.1022  0.1320 -0.0886
28698W        W44167  15.445  15.779  14.501 -0.0034 -0.2087  0.2089
28699W        W44168  10.117   7.302  13.794 -0.0149 -0.1828 -0.0501
28700W        W44169  16.487   9.659  15.225 -0.0010 -0.0806  0.0194
28701W        W44170  11.934   6.013  16.232  0.0055 -0.0274  0.1548
28702W        W44171   8.258   8.562  12.682  0.2676 -0.0200 -0.0019
28703W        W44172   4.783   6.005   4.438 -0.1023 -0.3860  0.0516
28704W        W44173  14.361  15.486   2.676  0.2398  0.2317 -0.2226
28705W        W44174  12.521   3.282   4.079 -0.0222  0.0575 -0.1002
28706W        W44175  11.654  13.385   1.871  0.0072 -0.1425 -0.3325
28707W        W44176   9.884   2.871  14.086 -0.1643  0.1031 -0.0056
28708W        W44177   1.147   8.137   2.479 -0.0851 -0.3157 -0.0059
28709W        W44178   3.712  16.255  15.284  0.1093  0.0528 -0.1683
28710W        W44179   3.173  16.956  11.998  0.1686 -0.1189 -0.0007
28711W        W44180  10.277  12.751  14.186 -0.0722 -0.1595 -0.0683
28712W        W44181   9.978  17.587   1.345  0.3674  0.2139  0.0815
28713W        W44182   2.124  15.061   0.985  0.0499 -0.0952  0.2414
28714W        W44183  11.244   6.528   3.808 -0.0124  0.3611  0.0412
28715W        W44184   9.117  11.509   4.353  0.0735 -0.2185 -0.0004
28716W        W44185  12.863   9.040   4.018  0.2500 -0.1962  0.1133
28717W        W44186   1.055   9.043  13.087 -0.1520 -0.2232 -0.0303
28718W        W44187  13.299   3.820  11.852  0.0461  0.1282  0.1248
28719W        W44188   8.901   6.766   2.055 -0.0475  0.1439 -0.2256
28720W        W44189  16.511  12.471   1.938  0.2494 -0.1675 -0.1247
28721W        W44190  14.788   4.934  15.718  0.1782  0.0409 -0.1055
28722W        W44191   2.447   8.095   1.076  0.1776 -0.3424  0.2849
28723W        W44192  11.319  15.421  12.561 -0.0543 -0.0766 -0.1317
28724W        W44193   7.621   5.660  16.491 -0.0426  0.0444  0.0114
28725W        W44194  12.606   9.854  16.119  0.0838  0.3538  0.1715
28726W        W44195   5.975  14.704   6.617  0.0487 -0.3363  0.0724
28727W        W44196  17.320  16.367  13.066  0.2185 -0.1056  0.0706
28728W        W44197   3.892   8.508   4.843 -0.2365 -0.0037 -0.1872
28729W        W44198  17.836   8.184  12.521 -0.0537  0.0853  0.2407
28730W        W44199   4.508   3.304   1.994 -0.3128  0.2048 -0.1750
28731W        W44200  17.110  15.554  13.249  0.2833 -0.1005  0.5530
28732W        W44201  11.161  14.461   0.468 -0.0012  0.1420  0.0689
28733W        W44202  13.410  12.925   2.222 -0.0070  0.0018 -0.1000
28734W        W44203  12.064   0.865   2.107  0.1712 -0.0685  0.1293
28735W        W44204   7.078  16.068   5.778  0.3345 -0.2632 -0.1952
28736W        W44205  17.626   1.046  14.887 -0.1382 -0.1263  0.0478
28737W        W44206   5.258  12.627   0.285 -0.1841  0.3948 -0.1373
28738W        W44207   3.997   0.227   2.215  0.1136  0.0996  0.0401
28739W        W44208   0.790   7.781  13.794 -0.0667 -0.0709  0.2670
28740W        W44209  12.809   2.177  15.819  0.0740  0.0849 -0.1208
28741W        W44210  16.022   9.475  16.006  0.0135  0.0609  0.1498
28742W        W44211   1.591  17.280  14.950 -0.0617  0.0222 -0.0580
28743W        W44212   6.558  11.509   3.728  0.5235  0.1552 -0.2421
28744W        W44213  16.426   2.560  14.680 -0.2975  0.0127  0.0865
28745W        W44214   7.101   4.109   1.138  0.1226  0.1102  0.0213
28746W        W44215  11.757  17.417   1.969  0.0818  0.0266 -0.1176
28747W        W44216   6.791   0.202  13.432 -0.1305  0.1254  0.0739
28748W        W44217  17.245   6.539   2.897  0.1028 -0.1153 -0.1039
28749W        W44218   3.499  10.051   1.332  0.2006 -0.0083  0.3316
28750W        W44219   5.009   4.711   3.959 -0.1190 -0.1157  0.0795
28751W        W44220   5.723  14.408   0.809 -0.0242 -0.0170  0.2927
28752W        W44221   5.540   0.450   0.852  0.0618 -0.2094 -0.1583
28753W        W44222   8.758   6.081  15.561 -0.0698  0.3714 -0.1971
28754W        W44223   9.323  11.639  13.042  0.1544 -0.1123 -0.2386
28755W        W44224   3.085  16.443  10.783 -0.1373  0.1690 -0.0737
28756W        W44225   8.094   7.102   3.854 -0.1881  0.0091  0.0540
28757W        W44226  11.303  16.754  12.536 -0.1682  0.0776  0.1788
28758W        W44227  17.779  11.318   4.921  0.0436  0.1642 -0.1002
28759W        W44228   1.579   0.787   0.462  0.2152 -0.0930  0.0124
28760W        W44229   9.071   0.567   2.830  0.0534 -0.0416 -0.0630
28761W        W44230  14.056  14.061  11.652 -0.2079  0.1188 -0.1096
28762W        W44231  14.033   5.150  15.390  0.1874  0.3470  0.1151
28763W        W44232   3.738  17.384  12.841 -0.1756  0.0813  0.0622
28764W        W44233  13.683  17.419   1.376 -0.1320  0.1287  0.0326
28765W        W44234  10.796  12.486   1.119 -0.0840 -0.1539 -0.0077
28766W        W44235  13.800  15.162   3.573  0.0320  0.0163  0.1535
28767W        W44236   8.812  11.787  16.592 -0.2230  0.2016  0.0555
28768W        W44237  12.463  12.682   3.703  0.0266  0.0463 -0.0273
28769W        W44238  14.462  14.960   4.956  0.0302  0.3026  0.0241
28770W        W44239   6.767  13.282  16.587  0.0508 -0.0281 -0.0113
28771W        W44240  10.328  11.473   3.598 -0.0538  0.2050 -0.1553
28772W        W44241   9.779  13.238   6.207  0.0223  0.2400 -0.2292
28773W        W44242   2.842   4.748   6.018 -0.0243 -0.0199  0.1125
28774W        W44243   2.967  15.388   5.272  0.3898  0.1049 -0.0554
28775W        W44244   2.241   0.810   0.670 -0.0600 -0.0625 -0.2143
28776W        W44245   0.662   6.754  10.777  0.0910 -0.0962 -0.2653
28777W        W44246  13.721   4.199   1.624 -0.0388 -0.0100  0.1865
28778W        W44247   5.377   2.357  11.715  0.1639  0.3186  0.0956
28779W        W44248  13.852   2.772  15.137  0.0936 -0.1747  0.1327
28780W        W44249  16.161   3.586  15.599  0.1063  0.2643  0.0091
28781W        W44250  10.532   7.319  15.006 -0.0377 -0.0125 -0.0735
28782W        W44251  16.893   2.147  15.760 -0.0084  0.0756  0.1785
28783W        W44252   5.563   9.464   4.133  0.1152  0.1763 -0.0145
28784W        W44253   4.624  13.570  13.677  0.2673  0.2274  0.0630
28785W        W44254  15.362   5.910  12.119  0.2494  0.3486  0.0622
28786W        W44255   7.757   7.850  11.403  0.0289  0.0148  0.2016
28787W        W44256  10.369  14.309  12.848  0.1389  0.2215 -0.1086
28788W        W44257   6.810  13.612  14.026  0.2457  0.0928  0.0864
28789W        W44258   7.321   0.519  16.417  0.2979  0.2081 -0.0028
28790W        W44259  16.360   1.835   3.159  0.0701  0.0267  0.1895
28791W        W44260  15.426   4.592  13.436  0.0408 -0.0071  0.0397
28792W        W44261  14.531  10.045   3.673 -0.2605  0.2840  0.1207
28793W        W44262  11.615   7.052  15.129 -0.0925 -0.0852 -0.0406
28794W        W44263   6.940  15.875  15.103 -0.3546  0.0141  0.2949
28795W        W44264  16.102   9.902  11.936  0.0084 -0.1149  0.0024
28796W        W44265   3.502   4.213   5.301 -0.1050 -0.1141  0.3474
28797W        W44266   8.765   7.344  14.336 -0.1336  0.0279 -0.0569
28798W        W44267   6.960  13.983  11.438 -0.1517 -0.1156  0.3912
28799W        W44268  11.177   3.838  15.631  0.1857 -0.4549 -0.0796
28800W        W44269   8.501   4.808   1.212  0.0535 -0.1691  0.0425
28801W        W44270  15.717   4.868  12.552  0.0488 -0.1835 -0.2245
28802W        W44271   8.676   0.227   5.425  0.1708  0.3034  0.0272
28803W        W44272   1.400  14.266  15.822 -0.1354 -0.2598 -0.0900
28804W        W44273   7.833  10.906   1.605  0.2470  0.0148 -0.2836
28805W        W44274  10.647   4.270  14.953 -0.0234  0.0851  0.2723
28806W        W44275   8.509  11.942  14.706  0.3409  0.0506  0.2481
28807W        W44276  15.081   5.131  16.038  0.1559  0.4938 -0.1580
28808W        W44277  10.998  12.247   0.407  0.1202  0.0972  0.0616
28809W        W44278   2.248  17.715  12.491  0.3798  0.0170 -0.1599
28810W        W44279  13.800  15.652   3.806  0.1662  0.0130  0.0001
28811W        W44280   2.899   0.251  15.744  0.1463 -0.0027  0.2636
28812W        W44281   8.576  14.930  13.424 -0.3097  0.1480  0.0294
28813W        W44282   0.658  17.902  14.723  0.0978  0.2936 -0.2769
28814W        W44283  11.404   2.885   1.802 -0.0283 -0.1641 -0.0315
28815W        W44284   0.378  11.859  11.527  0.1195 -0.0781 -0.1100
28816W        W44285  14.670   5.722  13.571 -0.1345  0.1994 -0.2898
28817W        W44286  15.208  11.330   4.410 -0.3856  0.0460  0.1876
28818W        W44287   2.283   0.414  14.135  0.2561  0.0708  0.2610
28819W        W44288  12.681  17.938  12.979 -0.0139 -0.1891  0.2468
28820W        W44289   4.793   1.582  13.301  0.0649  0.2805  0.2793
28821W        W44290   5.557   8.448  11.187 -0.3163  0.4351 -0.1370
28822W        W44291   0.841   8.208  12.543 -0.0167 -0.1782 -0.2107
28823W        W44292  15.959  10.438  15.948  0.1188 -0.0887  0.0478
28824W        W44293   2.011  16.231  15.501  0.1495  0.1217  0.0441
28825W        W44294  12.528   1.523  13.011 -0.1262  0.3545  0.1664
28826W        W44295   6.303   2.025  14.122 -0.2854 -0.1968 -0.1229
28827W        W44296   6.914   6.330   3.194  0.2729 -0.0434 -0.0400
28828W        W44297  17.113   8.509   1.870  0.0282 -0.3195  0.1071
28829W        W44298   3.337   9.833   1.767 -0.1959 -0.2017 -0.1501
28830W        W44299  10.050   3.613   3.409 -0.2208 -0.0852  0.2240
28831W        W44300   4.403   1.443   5.240  0.2075 -0.1367 -0.0324
28832W        W44301  16.537   2.121   1.977 -0.1284 -0.1564 -0.1544
28833W        W44302   8.406   8.476   4.083 -0.0216 -0.3431  0.1439
28834W        W44303   0.652  10.739  13.094  0.0379 -0.0480  0.1592
28835W        W44304  13.931  17.815   4.973 -0.1664  0.3139  0.0278
28836W        W44305  15.592   1.908   4.070  0.0889 -0.1032  0.2389
28837W        W44306  11.545   7.547   4.242  0.1204  0.2022  0.2257
28838W        W44307  14.783   1.292  12.146  0.0945  0.0646  0.0530
28839W        W44308   9.159   4.597  14.219 -0.1025  0.0050  0.0627
28840W        W44309  14.144  15.697  14.115  0.0411  0.0241 -0.0792
28841W        W44310   3.761  11.451  14.599 -0.2222  0.0160  0.0457
28842W        W44311  13.214  10.315  16.158 -0.2516  0.0374  0.1521
28843W        W44312   2.739   3.753  13.862 -0.1159  0.0791  0.2718
28844W        W44313  13.773  10.896   2.824 -0.1357  0.0646 -0.0679
28845W        W44314  14.835   0.330   1.781 -0.0264 -0.3482 -0.0032
28846W        W44315   2.804   0.903   0.970  0.0358 -0.2873  0.4774
28847W        W44316   7.849  10.609   4.185  0.1971  0.0677 -0.2378
28848W        W44317  13.040  12.691   1.927 -0.1928 -0.0399 -0.0045
28849W        W44318   2.374  17.927  16.587  0.2310 -0.1691  0.1681
28850W        W44319   9.429  14.648   3.302  0.0406  0.0570 -0.1602
28851W        W44320   2.165   6.499   5.424  0.0407  0.2225 -0.1658
28852W        W44321  15.873  15.088   5.076 -0.1757 -0.0924  0.2433
28853W        W44322   1.208   2.887  11.831 -0.2613  0.1991  0.1043
28854W        W44323   0.159   4.747  11.582 -0.0950 -0.0658 -0.0910
28855W        W44324  14.549   2.446   2.104 -0.1757  0.1238 -0.0492
28856W        W44325   4.654   7.986  11.896  0.1716 -0.2597 -0.1603
28857W        W44326   2.866   5.888  15.944 -0.0193 -0.4115 -0.1071
28858W        W44327   3.411  10.747   4.119 -0.1101  0.2216  0.3164
28859W        W44328   4.609  16.680   3.080 -0.3234 -0.0674  0.2986
28860W        W44329   4.689  13.927   6.289 -0.4134  0.2189  0.1740
28861W        W44330  15.912   5.795  12.388  0.2145 -0.1163 -0.2387
28862W        W44331   9.579   9.047   2.814  0.0860 -0.0498  0.1356
28863W        W44332   0.354  10.557  14.764 -0.0829 -0.1556 -0.2290
28864W        W44333  15.003  15.638   5.699 -0.0819  0.0692  0.4626
28865W        W44334  13.939   2.118   0.116  0.0481  0.2362  0.1433
28866W        W44335   6.781   9.542  13.962 -0.1273  0.1151 -0.0579
28867W        W44336   1.739   1.758   2.528 -0.0451 -0.3491 -0.0710
28868W        W44337  15.569   1.019  16.450  0.1876 -0.1391 -0.1500
28869W        W44338   6.667  16.352  11.725 -0.2530  0.1263 -0.0807
28870W        W44339  16.142   7.175  14.396 -0.0909  0.0480  0.0194
28871W        W44340   1.084  10.576  12.170 -0.2125 -0.0245 -0.1038
28872W        W44341   5.587   4.854   3.789  0.1666 -0.0615  0.0200
28873W        W44342  16.712  15.180  13.363  0.0019 -0.1727 -0.0607
28874W        W44343   7.130  16.363   3.956  0.1389  0.1372 -0.0450
28875W        W44344   5.827   7.942   6.114  0.1689 -0.3110  0.1177
28876W        W44345  16.558   6.424   4.030 -0.0192  0.0965 -0.0396
28877W        W44346   3.740   4.996  12.673  0.1337 -0.1593 -0.1823
28878W        W44347   3.800   2.412   3.341 -0.0290  0.1501 -0.2826
28879W        W44348   2.589   8.743   0.693 -0.1693 -0.1318 -0.2059
28880W        W44349  16.976  12.485  15.929 -0.0006  0.1953  0.0827
28881W        W44350  16.830   9.236  16.040  0.0796  0.1315  0.0222
28882W        W44351  13.620  16.490  14.244  0.0026 -0.1802 -0.0615
28883W        W44352  13.398   1.789   1.192 -0.1594  0.2218 -0.2078
28884W        W44353  15.174   2.031  12.204 -0.1013  0.2438  0.0139
28885W        W44354   1.571  16.483  12.347  0.1993 -0.2378 -0.0702
28886W        W44355   6.314  16.687  12.001  0.0322  0.1011 -0.1917
28887W        W44356   8.272   5.694  11.604  0.2252 -0.0538 -0.3847
28888W        W44357   2.357   2.529   3.993 -0.0449  0.0699  0.2883
28889W        W44358   8.566   9.014  12.303 -0.0551 -0.0814  0.1914
28890W        W44359  14.394   4.099   0.429 -0.2638  0.1248  0.1376
28891W        W44360   0.389  16.557   0.432 -0.2665  0.0773 -0.0237
28892W        W44361  10.947   7.620  12.012 -0.0095  0.2500 -0.0354
28893W        W44362   8.013   9.031   1.057  0.1046 -0.2342  0.2818
28894W        W44363  11.057   6.405   6.294  0.0077  0.1314 -0.0210
28895W        W44364  11.070  16.897  14.609  0.0790 -0.3249  0.0570
28896W        W44365   6.849   9.563   0.822 -0.1608  0.0161 -0.0306
28897W        W44366   5.015   4.249  12.112 -0.4862  0.2318  0.0984
28898W        W44367   2.328  14.960   0.530 -0.2284  0.0783  0.2228
28899W        W44368  12.128   8.568   3.162  0.0261  0.0405 -0.2868
28900W        W44369   1.458  16.592   5.022 -0.0529 -0.0975  0.0809
28901W        W44370  15.508  14.410   5.576  0.0529  0.0573  0.1190
28902W        W44371   0.555  11.489  11.189  0.0189  0.1033  0.2211
28903W        W44372  10.102  13.227  13.396  0.0227  0.2842  0.0448
28904W        W44373   0.807   8.067   3.183 -0.2215 -0.0472 -0.1790
28905W        W44374   9.532  14.134  14.323  0.1129  0.0073  0.0080
28906W        W44375   3.279   8.486   1.040  0.0709  0.2698  0.1951
28907W        W44376   1.385   8.044  13.372  0.1131 -0.1397  0.0887
28908W        W44377   5.122   6.171  14.947  0.3191  0.0287  0.0895
28909W        W44378  15.829   2.740   1.686  0.2112 -0.2559 -0.0280
28910W        W44379   8.191   1.499  16.316 -0.1095  0.0488  0.1356
28911W        W44380   1.143   6.216  13.288  0.2457  0.1128  0.2685
28912W        W44381   3.831  17.328   1.438  0.2155 -0.1804  0.0446
28913W        W44382  13.787   7.762   1.030 -0.0827  0.0166  0.1012
28914W        W44383   6.377  12.467   2.255 -0.0205  0.1278 -0.2430
28915W        W44384   2.310   8.543   0.277 -0.1671 -0.2731  0.1981
28916W        W44385   7.540   4.562   2.759 -0.1769 -0.1058  0.0016
28917W        W44386   2.185   3.594  14.674 -0.4116  0.2245  0.3017
28918W        W44387  15.153   2.599   3.138 -0.0857  0.2124  0.0593
28919W        W44388  15.545   1.271   3.244 -0.0416 -0.1580 -0.0868
28920W        W44389   7.637  17.292   1.181 -0.0727 -0.2378 -0.0131
28921W        W44390  14.740  14.581  16.151 -0.0851  0.1237 -0.0152
28922W        W44391   0.695   2.981   1.885  0.3614 -0.0353 -0.1999
28923W        W44392   1.399   3.347   4.713 -0.0059  0.1450 -0.2218
28924W        W44393  15.427  11.230  15.593  0.0527  0.0457 -0.3596
28925W        W44394  11.336  13.256  14.887 -0.0584  0.2091  0.3548
28926W        W44395  12.728   7.543  14.035 -0.3406  0.0874 -0.0055
28927W        W44396  16.762  16.996   4.131 -0.3170 -0.1076  0.2442
28928W        W44397  14.436   4.836   2.036  0.0246 -0.1535  0.3353
28929W        W44398   2.374   2.175   6.066 -0.1814 -0.2040  0.0442
28930W        W44399   1.582   4.636  15.422 -0.3320 -0.2375 -0.1227
28931W        W44400   3.668   7.436   0.541  0.0585 -0.0382  0.1307
28932W        W44401  13.141   8.014   2.762 -0.0171 -0.2108  0.0163
28933W        W44402   5.774  13.668  12.879 -0.1580 -0.0615 -0.3247
28934W        W44403   1.708  12.606  14.295 -0.2321 -0.1016 -0.2675
28935W        W44404   8.387  15.952   1.382 -0.2266 -0.2248  0.0807
28936W        W44405   6.033  17.347  13.990 -0.0734  0.0177 -0.1161
28937W        W44406   2.434   6.234  12.174  0.0167 -0.1387 -0.2680
28938W        W44407   2.372   3.863  15.718 -0.0693  0.1612  0.3087
28939W        W44408  14.467   9.554  11.067  0.1882 -0.0435  0.2853
28940W        W44409   8.260  13.484  11.275 -0.0184 -0.1646 -0.1370
28941W        W44410  15.512   2.311   4.779 -0.1101  0.0447 -0.0333
28942W        W44411   7.342  11.733   4.230 -0.0458 -0.0994  0.1450
28943W        W44412   2.480   0.152   2.238  0.1145  0.1461 -0.1692
28944W        W44413  12.932  15.059   0.774 -0.4630 -0.2879 -0.0254
28945W        W44414   6.556  14.673   2.469 -0.0039  0.3411  0.0563
28946W        W44415   8.689  12.199  14.311 -0.0719  0.1193  0.1071
28947W        W44416  11.800   0.891   4.142  0.2795 -0.2159  0.1457
28948W        W44417   9.364  10.558   4.376  0.2700  0.2870 -0.0119
28949W        W44418  12.560  10.760  13.805 -0.1812  0.0717 -0.1429
28950W        W44419   9.090  16.998   4.451  0.2377  0.2349  0.2784
28951W        W44420  10.658   5.233  15.310  0.3537 -0.1003 -0.0170
28952W        W44421   7.249   8.560  15.241  0.1810 -0.0396 -0.0806
28953W        W44422  12.499   4.582   5.002 -0.2307 -0.0203 -0.2062
28954W        W44423   8.140  16.272  12.428 -0.2159 -0.1225 -0.0462
28955W        W44424  12.599  16.727   0.151 -0.3553 -0.0494 -0.1749
28956W        W44425  17.901  11.836  14.010 -0.0426 -0.1620  0.3342
28957W        W44426  10.694  17.996  11.409 -0.0991 -0.2442 -0.2439
28958W        W44427  17.834   3.844  14.858  0.0920 -0.2949 -0.0686
28959W        W44428   0.891   4.819   4.894 -0.4492  0.0536  0.3889
28960W        W44429  14.970  13.809  12.998 -0.0898 -0.0530 -0.4702
28961W        W44430  16.662   6.346  15.552 -0.1587  0.0877  0.1648
28962W        W44431  14.938   4.589  13.149  0.0877 -0.0017 -0.1200
28963W        W44432   8.535   3.832   4.949  0.0689 -0.1168 -0.3213
28964W        W44433  11.940   9.700  11.512  0.1021 -0.1707 -0.0471
28965W        W44434   6.396  13.309   1.811 -0.2165  0.1606  0.1518
28966W        W44435   2.352   8.034  14.349 -0.1093 -0.1138  0.1549
28967W        W44436   9.166  16.968   0.215  0.0507  0.0952  0.2327
28968W        W44437   3.320   9.254   0.989  0.0842 -0.1536 -0.0932
28969W        W44438   9.617   0.101   0.511 -0.2331 -0.2787 -0.0134
28970W        W44439   4.138  15.243  11.405 -0.2274  0.0480 -0.1904
28971W        W44440   2.117   2.506  11.908 -0.0338  0.1128  0.1370
28972W        W44441   8.228   7.003   2.682 -0.0001 -0.2403  0.0247
28973W        W44442   8.694   8.726   5.544  0.3322  0.1432 -0.2519
28974W        W44443  14.659  17.423  13.830  0.0339 -0.2935 -0.4278
28975W        W44444  11.602   7.834   1.714 -0.1256  0.3186  0.1399
28976W        W44445   9.161   7.625  12.357 -0.0573  0.0229 -0.3716
28977W        W44446   4.937   3.201   1.683  0.0858  0.0607 -0.2091
28978W        W44447   6.715   6.200  12.058  0.1139 -0.2500  0.0224
28979W        W44448   2.148   8.680  10.611 -0.1308 -0.0524 -0.1559
28980W        W44449   0.614   4.324  15.676  0.2094 -0.2029 -0.1398
28981W        W44450  11.136  17.496   3.275 -0.1149 -0.1060  0.0480
28982W        W44451  16.137  14.405  11.925  0.2097  0.1486  0.2753
28983W        W44452  11.897  11.240  11.402  0.3011 -0.0185  0.0252
28984W        W44453  11.599  10.300  14.843 -0.1455 -0.4401  0.0063
28985W        W44454  14.704  13.916  11.832  0.0715  0.1405  0.1017
28986W        W44455   0.245   8.592   3.004  0.1271  0.1955 -0.0331
28987W        W44456   0.505   6.336   3.198 -0.0637  0.0347 -0.1973
28988W        W44457   1.735  12.720   4.307  0.2119 -0.1155 -0.7004
28989W        W44458  16.925  17.812  15.753  0.1796  0.2709  0.1250
28990W        W44459   7.892   3.881  13.974  0.0156 -0.0014 -0.2467
28991W        W44460   3.313   0.220   1.336 -0.1149  0.1920  0.1825
28992W        W44461  12.063   2.721   0.156 -0.4994  0.1597 -0.0215
28993W        W44462   5.059   4.354  16.315  0.1693  0.2381  0.0185
28994W        W44463   6.629   3.138  14.172 -0.1024 -0.2323 -0.0997
28995W        W44464   9.299  16.425  12.095  0.4644  0.1759 -0.0635
28996W        W44465   0.235   9.843  11.139  0.0001  0.1027  0.0505
28997W        W44466  17.455  14.739   3.770 -0.0598  0.0441  0.0752
28998W        W44467   7.122   9.130   5.839  0.0950 -0.1090  0.0707
28999W        W44468  13.187   5.294   2.327 -0.1913  0.1357 -0.1261
29000W        W44469  14.382  14.534   0.065 -0.1335  0.0401  0.0140
29001W        W44470  12.428   6.958   4.935  0.1160  0.1612  0.2568
29002W        W44471  10.372   2.906  14.739  0.1819  0.1543 -0.2468
29003W        W44472  10.403  16.417  10.902 -0.0770  0.2573 -0.1112
29004W        W44473   8.382  16.238   4.952  0.2580  0.2670  0.4359
29005W        W44474  16.484   7.842   0.193  0.0357 -0.1411 -0.3460
29006W        W44475  11.018  17.668   0.593  0.3361 -0.0855  0.0785
29007W        W44476  15.487   3.277  11.585  0.1160  0.0463 -0.0542
29008W        W44477   0.834  17.321   3.556  0.3150 -0.3190  0.1221
29009W        W44478   2.199   0.447  15.922 -0.0257 -0.1804  0.0273
29010W        W44479   6.554   1.328  13.555 -0.1593 -0.1161 -0.0774
29011W        W44480   6.376  17.231   1.233  0.0918 -0.0683  0.2731
29012W        W44481  12.584  16.981  12.967 -0.0086  0.1164 -0.0367
29013W        W44482  17.019   8.706   3.314 -0.0708 -0.0633  0.0874
29014W        W44483  16.841   9.722  15.929  0.1645 -0.0691 -0.0317
29015W        W44484   8.968   6.517   2.702  0.0713  0.1470  0.1887
29016W        W44485   2.641   2.745  12.470  0.0652 -0.0662  0.0446
29017W        W44486   1.837   3.286   2.569 -0.3980 -0.1442  0.2778
29018W        W44487   8.485   9.885   1.522  0.0063 -0.1171  0.1742
29019W        W44488   8.957   3.414   4.056  0.0455 -0.2578 -0.2934
29020W        W44489  14.675  13.314  13.645  0.2092 -0.3610 -0.1998
29021W        W44490  15.861   3.333   0.829 -0.0761 -0.0742  0.0995
29022W        W44491  12.684  11.500   4.030  0.1607 -0.0085  0.1446
29023W        W44492   9.234   8.799   4.549  0.2255 -0.0091  0.0774
29024W        W44493  13.867  17.409  11.841 -0.0274  0.0184  0.1266
29025W        W44494  16.085  16.760  15.501  0.0546  0.0297  0.0878
29026W        W44495   0.254   3.269  10.366  0.0491  0.2232  0.2317
29027W        W44496   8.809  14.544   2.888  0.2330 -0.0472  0.3759
29028W        W44497   1.758  13.461   3.648 -0.1381 -0.0174 -0.0573
29029W        W44498   8.438  10.546  16.592 -0.1200  0.1908  0.0911
29030W        W44499   1.455   7.353  14.373  0.1123  0.0025  0.1118
29031W        W44500  15.875  11.749   3.764  0.0043  0.0763  0.0877
29032W        W44501   6.876  11.503  11.637 -0.0136 -0.0752  0.1783
29033W        W44502  14.798   7.045  15.869 -0.1868 -0.2084  0.0136
29034W        W44503   7.236   9.201   3.783 -0.0453  0.3785  0.2689
29035W        W44504   3.122   1.966  13.486 -0.0034 -0.1566  0.0303
29036W        W44505   6.869  14.155   5.397  0.0031 -0.2071 -0.0785
29037W        W44506  10.069   2.686  12.621  0.0695  0.2507 -0.0757
29038W        W44507   4.762   6.533   1.808  0.1338  0.1680 -0.1245
29039W        W44508  12.234   5.746  13.959  0.0414 -0.0608  0.2893
29040W        W44509   6.651  15.732  14.448  0.4261 -0.2264  0.2205
29041W        W44510  16.108   6.300   2.603  0.1652  0.1289 -0.0181
29042W        W44511  12.145   2.238  10.879 -0.0720  0.2687  0.1572
29043W        W44512   7.059  15.220   3.031 -0.2081 -0.2330  0.4417
29044W        W44513  15.094   2.097  15.952 -0.3009  0.1890 -0.0233
29045W        W44514  12.536   3.060  13.228 -0.1811  0.1449 -0.1629
29046W        W44515  14.243   5.587  15.701  0.2301 -0.0843  0.1258
29047W        W44516   8.077   6.141  16.021 -0.0090 -0.1769  0.0843
29048W        W44517   8.173  15.210  14.016 -0.0201 -0.0414 -0.1077
29049W        W44518   5.114  14.130   4.969 -0.2546 -0.0179  0.0210
29050W        W44519   7.566  13.999  16.476 -0.0025 -0.1081  0.2102
29051W        W44520   0.035  15.202  12.907  0.2539 -0.1816 -0.0106
29052W        W44521   7.069  11.453   5.564  0.2663 -0.2910 -0.4501
29053W        W44522   7.680   5.767  12.967 -0.2735 -0.0422  0.4640
29054W        W44523   7.354  14.153   2.648  0.2103 -0.1433 -0.0182
29055W        W44524  13.781   8.984  11.825  0.0919 -0.1302  0.2057
29056W        W44525   1.777  11.851  16.344  0.0369  0.1105 -0.1883
29057W        W44526   7.497  13.604  15.060 -0.0846  0.1528  0.1050
29058W        W44527   6.181  10.222  12.890 -0.0705 -0.2042  0.0019
29059W        W44528   0.226  15.901  16.513 -0.0040  0.2860  0.0330
29060W        W44529  10.796   2.536   2.554  0.0304  0.0973 -0.0273
29061W        W44530  17.230  14.984   4.345 -0.1020 -0.0259 -0.0057
29062W        W44531   1.801   7.829  15.192  0.2114  0.0555  0.1442
29063W        W44532  13.507   2.509  13.412  0.3409  0.2727  0.2877
29064W        W44533  12.629   9.363  12.528 -0.5139 -0.2966  0.2558
29065W        W44534   9.163   6.881  11.127  0.1830 -0.0617 -0.0019
29066W        W44535   9.258  17.118   3.217  0.1986 -0.1509 -0.0929
29067W        W44536  15.602   7.922   3.884  0.2069 -0.2247  0.1149
29068W        W44537   0.256   2.985  12.386  0.0926 -0.2044  0.1767
29069W        W44538  17.760  13.810   3.807 -0.0584 -0.2341  0.1431
29070W        W44539   7.281   4.972   0.969  0.0328 -0.0361 -0.0389
29071W        W44540  12.905   4.341  14.176 -0.1853  0.2596  0.0127
29072W        W44541   8.024  17.024  12.733 -0.0590 -0.2091  0.0259
29073W        W44542   0.078   4.215   0.926 -0.2421 -0.0867  0.2634
29074W        W44543   4.138   5.314   2.170  0.1682 -0.1305  0.1072
29075W        W44544  10.659  12.156   0.030  0.0929  0.2077  0.1985
29076W        W44545   7.010  15.532   3.987  0.1387 -0.0578  0.0225
29077W        W44546   9.365   0.853  16.127  0.1214 -0.0041 -0.4050
29078W        W44547   1.960   2.594  11.445 -0.1807  0.0602  0.0654
29079W        W44548   0.469  17.410  12.536  0.0383  0.0712 -0.0657
29080W        W44549  14.410   4.073  16.554 -0.2652  0.0159 -0.1266
29081W        W44550  17.668  14.573  14.707 -0.0757 -0.1242 -0.0310
29082W        W44551   8.784   8.316   5.355 -0.1323  0.3356  0.1238
29083W        W44552   3.263  14.388  13.512  0.1841  0.3629  0.3582
29084W        W44553  16.644  17.480   1.008 -0.3030 -0.2303  0.0974
29085W        W44554  10.688   9.594   2.970  0.1019 -0.5582  0.1002
29086W        W44555  14.588  12.627  11.718  0.1495 -0.0078 -0.0459
29087W        W44556  14.481   8.129   5.040 -0.4135  0.1815 -0.1999
29088W        W44557  16.965   4.610   0.618 -0.1783  0.1307 -0.4001
29089W        W44558   4.915   4.178   2.106 -0.5391 -0.0864  0.0311
29090W        W44559  10.723  15.607   3.834  0.4425  0.1117  0.0942
29091W        W44560   6.049   3.276   4.913  0.0645 -0.0192  0.1374
29092W        W44561   0.911  14.064  14.550 -0.1585  0.3073 -0.2706
29093W        W44562  14.366  11.170   4.650 -0.4665  0.1256  0.1373
29094W        W44563  15.856   5.811  10.907  0.0752 -0.1073  0.2516
29095W        W44564   6.784   4.971   4.923  0.2761  0.2905 -0.0998
29096W        W44565   7.399   7.150  11.637  0.1743  0.2060 -0.1585
29097W        W44566   5.724   8.266   4.957 -0.0048 -0.0732  0.2306
29098W        W44567   8.937   9.479   5.969  0.0998 -0.2242  0.1747
29099W        W44568  14.424  17.874   5.599 -0.1552 -0.1735 -0.0368
29100W        W44569   2.478  10.749   5.275 -0.1842 -0.0634 -0.2565
29101W        W44570  16.464  14.663   6.276  0.2015  0.0665 -0.2451
29102W        W44571  16.006   4.711   0.803 -0.1926  0.1511  0.1411
29103W        W44572   2.038   8.118   0.301 -0.1481 -0.0888  0.0196
29104W        W44573  15.841   5.836   9.988  0.1707 -0.0489  0.1502
29105W        W44574  15.654  12.063  12.285  0.2215 -0.1364  0.0037
29106W        W44575   6.689   0.446  15.058 -0.0412  0.0174 -0.0794
29107W        W44576   2.069  16.479  14.505 -0.1799  0.0442 -0.2948
29108W        W44577  12.603   0.979  14.484 -0.2864  0.2171  0.1109
29109W        W44578  10.670  10.002   0.405 -0.1074 -0.3476  0.0762
29110W        W44579   6.355   5.879  13.464 -0.1093 -0.0002 -0.1795
29111W        W44580   1.898  17.757   2.792  0.2988  0.0709  0.1139
29112W        W44581   0.508   8.540   0.456  0.2408  0.0725 -0.0558
29113W        W44582  11.705   8.277   2.482  0.0835 -0.0158 -0.3011
29114W        W44583   4.480  16.510  13.354 -0.2518  0.4177 -0.0724
29115W        W44584   0.478  14.451   0.883  0.1198  0.1997  0.3650
29116W        W44585   2.359   1.213   5.207  0.3835  0.0881  0.1683
29117W        W44586   5.892   3.669   2.642 -0.1208  0.0535  0.0263
29118W        W44587   1.533   8.440   1.866  0.2062  0.2438  0.0321
29119W        W44588   7.067   0.687   1.033 -0.1336  0.1346  0.0405
29120W        W44589   2.238  17.265   4.504  0.3356 -0.0330  0.4394
29121W        W44590   6.819  10.526   5.262 -0.1133 -0.0149  0.0737
29122W        W44591  13.436  16.855  14.609 -0.0568  0.0772 -0.2393
29123W        W44592  10.355   9.218   4.371  0.0284 -0.3997 -0.1956
29124W        W44593  16.907   0.043   3.129 -0.2020  0.0717 -0.1201
29125W        W44594  13.386   5.880   2.481  0.0635  0.0668 -0.0620
29126W        W44595   1.857  16.568   4.741  0.2089  0.1171  0.0010
29127W        W44596   8.295  15.593   4.045  0.3012  0.0955 -0.0744
29128W        W44597  10.338  15.647   4.153  0.1155 -0.0643  0.0943
29129W        W44598   0.849   3.050   3.308  0.1125  0.0882 -0.1856
29130W        W44599  13.908  15.877   5.232 -0.3449  0.3062 -0.2788
29131W        W44600  11.105   7.312  12.357  0.3138 -0.0263 -0.0750
29132W        W44601   6.855   6.942   1.249  0.3164  0.5337 -0.0128
29133W        W44602  11.549   8.278   1.980  0.2527  0.0221  0.0896
29134W        W44603  12.388  11.264   0.828  0.3140  0.1840  0.0051
29135W        W44604  16.414  12.282  13.965 -0.1489 -0.0873  0.0685
29136W        W44605   3.245  10.377   0.991  0.0974  0.2731  0.1291
29137W        W44606   6.223  15.460  12.861  0.0802 -0.0980 -0.1175
29138W        W44607  14.549  15.283   5.687 -0.1131 -0.2259  0.0159
29139W        W44608  17.564   1.831  15.695 -0.1148  0.1129  0.5591
29140W        W44609   7.813  17.678   4.128  0.2076  0.1747  0.2528
29141W        W44610   3.741  14.715  13.494  0.2399  0.0116 -0.2455
29142W        W44611   4.535   2.259   2.730  0.1269  0.3289 -0.2637
29143W        W44612  10.398  13.907   2.415  0.1651 -0.0678 -0.0410
29144W        W44613  10.844   6.994   2.013 -0.1008 -0.3494  0.1464
29145W        W44614   5.272  14.626  14.738 -0.0575 -0.0933 -0.2412
29146W        W44615  17.862   9.191   3.274  0.0547  0.0144  0.1614
29147W        W44616  11.918   3.003  14.333 -0.0714 -0.2669  0.2487
29148W        W44617   1.149   2.772  12.377 -0.2394 -0.2618 -0.1071
29149W        W44618  13.869  12.860   0.186 -0.2924 -0.0178  0.1647
29150W        W44619   4.242   6.939  14.363  0.1358 -0.0907  0.2075
29151W        W44620   9.540  16.294  14.196  0.0924 -0.1009 -0.2854
29152W        W44621   4.104  17.420   4.373  0.1819 -0.1081 -0.2868
29153W        W44622   8.748  17.535  16.176  0.1612  0.1734 -0.0374
29154W        W44623   4.559  10.013   2.831  0.1385 -0.0570  0.0225
29155W        W44624   7.396   7.604  11.124 -0.1700  0.0097 -0.2766
29156W        W44625   4.391   5.304   4.575 -0.2549 -0.2493  0.0812
29157W        W44626   1.890  12.014  11.346 -0.1877 -0.1617  0.1454
29158W        W44627  13.293   9.103  10.657  0.0390 -0.2440 -0.0024
29159W        W44628  15.114  10.540   3.324  0.1890 -0.0042 -0.1160
29160W        W44629  14.298   5.109  13.069 -0.1597  0.0221 -0.0202
29161W        W44630   3.680  11.632   2.987 -0.0922  0.3311  0.0746
29162W        W44631  14.820   8.777   0.743  0.0365 -0.0581  0.0999
29163W        W44632   3.264  15.289   3.970 -0.0283  0.1434  0.1332
29164W        W44633   8.572   2.758  11.992 -0.0186  0.1022 -0.0148
29165W        W44634   4.798   8.162   3.186 -0.0425 -0.1551 -0.0544
29166W        W44635  11.916  14.124  14.259 -0.1541  0.0284  0.2237
29167W        W44636   0.357   1.784   0.288  0.0149  0.0358 -0.2257
29168W        W44637   8.206   3.145  13.981  0.0575  0.0513  0.4004
29169W        W44638   0.019  16.121   2.324  0.3379  0.1294 -0.1483
29170W        W44639  16.063   7.974   2.191 -0.1018  0.0312  0.0476
29171W        W44640  15.375   1.390   3.995  0.1701 -0.1141  0.0422
29172W        W44641   7.009  10.025  15.845 -0.3304 -0.1389 -0.1205
29173W        W44642  14.427   3.025   2.215 -0.1717  0.0747 -0.1552
29174W        W44643   2.235   1.622   3.099  0.0914  0.0283  0.0122
29175W        W44644   3.882  12.991   1.508 -0.2167  0.0040 -0.1471
29176W        W44645  11.979   5.507   0.544  0.0212 -0.0858 -0.1771
29177W        W44646   1.249   3.974   2.187  0.3332  0.0602  0.1000
29178W        W44647   7.473  12.878   0.973  0.1348 -0.0619 -0.1357
29179W        W44648  13.843  17.065  10.952  0.0328  0.0657  0.0563
29180W        W44649  14.321   6.493   1.833  0.2949 -0.0893  0.1174
29181W        W44650   8.051  17.464   3.679  0.3010 -0.0970 -0.0870
29182W        W44651   3.976   3.964   4.236  0.5556 -0.0309  0.0239
29183W        W44652  15.815   7.252  15.635 -0.1295 -0.0964  0.3180
29184W        W44653  13.395   7.767  10.300  0.0895  0.1346 -0.2488
29185W        W44654   5.225  14.842   6.107 -0.0854  0.1618 -0.1973
29186W        W44655   0.102   4.298  14.777 -0.1699  0.0684  0.0987
29187W        W44656  17.797  15.578   6.425  0.1216  0.3043  0.0758
29188W        W44657   8.934   8.273   3.719 -0.2423  0.0734 -0.2635
29189W        W44658   4.341  12.561  15.491  0.0509 -0.1342 -0.2802
29190W        W44659   7.775   6.479   5.692  0.2117  0.0102  0.0700
29191W        W44660   5.969   8.677   4.161  0.0410 -0.2350 -0.1052
29192W        W44661   7.240  13.648   1.411  0.2779 -0.0425  0.0009
29193W        W44662  12.613  13.868   0.255  0.0465  0.1427  0.1534
29194W        W44663  10.896   1.108   2.597 -0.0852 -0.0304 -0.2582
29195W        W44664  10.715   0.069  14.191  0.0785  0.2503  0.0277
29196W        W44665   3.592  10.089   4.802 -0.0672  0.1993 -0.1292
29197W        W44666   6.485  14.333   1.489 -0.0583 -0.2273 -0.2097
29198W        W44667  13.043  11.072   0.080 -0.0433 -0.2499  0.2560
29199W        W44668  13.018  11.928   0.907  0.3774  0.0347 -0.2390
29200W        W44669   2.780   0.886  16.435  0.2009  0.0533 -0.3411
29201W        W44670   5.725  12.995   4.344  0.1479 -0.0510  0.0518
29202W        W44671  12.895  13.014  12.086 -0.2011 -0.1731 -0.0562
29203W        W44672  14.947  10.743  13.351  0.2035  0.0113 -0.2231
29204W        W44673  15.693   6.750  13.930 -0.0172 -0.2946  0.2418
29205W        W44674   5.513  15.377   1.018  0.0933 -0.0999 -0.0703
29206W        W44675  10.301  14.299   4.918  0.1970  0.0561 -0.1061
29207W        W44676   1.742   9.610   3.120 -0.0133  0.0747 -0.1036
29208W        W44677   1.319  16.740  12.812 -0.1508  0.1035 -0.0775
29209W        W44678  14.862   1.180   5.257  0.2979 -0.0030  0.2175
29210W        W44679  13.609  15.001  14.969  0.0035  0.0799 -0.2348
29211W        W44680  13.238   4.716  10.422 -0.1407  0.3039 -0.2064
29212W        W44681   6.557   8.062  13.729  0.0643  0.0264 -0.0806
29213W        W44682   8.228   6.716  16.016 -0.0865  0.0585  0.1364
29214W        W44683  13.026   3.292  14.977  0.2895  0.0024  0.0681
29215W        W44684  16.633   4.383  11.062 -0.1937  0.1696  0.0039
29216W        W44685  11.810   1.466   1.451 -0.1844 -0.2582  0.0157
29217W        W44686   2.976  17.573   4.856 -0.1246 -0.3307  0.1916
29218W        W44687   1.371   3.938  12.881 -0.4588  0.0582  0.1224
29219W        W44688   8.593   8.018  11.998  0.0937 -0.1364 -0.0115
29220W        W44689   2.412  16.801   4.464  0.3427  0.3096 -0.0221
29221W        W44690  11.696   8.534  16.216  0.1913 -0.0482 -0.0961
29222W        W44691  11.093   4.229  16.549  0.0420 -0.0620  0.0612
29223W        W44692  12.458  14.971   0.647  0.0084 -0.0223 -0.0422
29224W        W44693   8.665   6.927   3.465 -0.0125 -0.0717  0.1459
29225W        W44694  12.709  13.179   3.736 -0.1961  0.2501 -0.1123
29226W        W44695   7.168   5.940   4.111 -0.0207  0.1014 -0.0088
29227W        W44696   5.638  12.164  12.057 -0.0223  0.0690  0.0980
29228W        W44697  11.747   3.516   0.371  0.1558 -0.1919  0.4630
29229W        W44698  10.411  11.024   3.336 -0.0975 -0.0494 -0.2647
29230W        W44699  12.640   0.983   3.397 -0.0781  0.0478 -0.0278
29231W        W44700  17.723  10.927   1.058 -0.0082 -0.0483  0.0173
29232W        W44701  17.128  13.054  15.223  0.0270  0.1152 -0.1086
29233W        W44702   4.820  17.711  14.555 -0.1566  0.0794 -0.0311
29234W        W44703   3.070   8.783   3.014  0.4065 -0.0029 -0.1065
29235W        W44704   6.890   7.121   1.711 -0.1082 -0.0451  0.5029
29236W        W44705   8.904   6.263   2.265  0.3588 -0.1334 -0.0024
29237W        W44706   8.678  10.966  13.027 -0.2375 -0.2086 -0.1086
29238W        W44707   5.547   7.816   2.486  0.1052  0.1915  0.0504
29239W        W44708  11.439   2.975  16.206 -0.1088 -0.1099 -0.3502
29240W        W44709   9.636   5.581  15.607  0.0490 -0.0125 -0.1848
29241W        W44710  12.528   3.757   5.294 -0.0578 -0.0189 -0.0726
29242W        W44711   6.223   8.999  14.712 -0.1380 -0.3206  0.3816
29243W        W44712  11.990  11.978   6.146 -0.2664  0.0466 -0.3324
29244W        W44713  14.968   2.212  12.950 -0.1973  0.0829  0.0718
29245W        W44714  14.664   4.542   2.822 -0.0653  0.0871  0.0832
29246W        W44715  10.320  15.398  15.761  0.0448 -0.0580  0.0383
29247W        W44716   5.192   0.234   4.188 -0.1708 -0.1633  0.0469
29248W        W44717   9.350  17.398   2.417  0.0360 -0.1179  0.2521
29249W        W44718  15.886  12.160  12.904 -0.1983 -0.0772  0.2294
29250W        W44719   1.790   7.733  11.033  0.0757  0.0941  0.1076
29251W        W44720  14.196  13.137  13.793  0.1185  0.1260 -0.0924
29252W        W44721   5.490   4.928   2.084  0.1057  0.2801  0.2288
29253W        W44722   9.051   4.495  10.365 -0.0074 -0.2526 -0.1457
29254W        W44723  12.968  14.381   1.454  0.0253  0.0504 -0.0245
29255W        W44724   0.777  16.498  12.968  0.1298 -0.0822 -0.1140
29256W        W44725   8.495  14.830   3.129 -0.1330 -0.3638  0.3619
29257W        W44726  15.066   4.212   5.027 -0.0217 -0.0738  0.0915
29258W        W44727  10.121   5.230   3.214 -0.0087  0.0706  0.2254
29259W        W44728   2.340  11.329  12.155 -0.0642  0.1312  0.3266
29260W        W44729  11.460  12.352   0.456 -0.0128 -0.1644  0.0890
29261W        W44730  13.173  14.865   5.428 -0.3068  0.2089 -0.0122
29262W        W44731   2.028   7.488  10.230  0.1029 -0.0302  0.2039
29263W        W44732   6.679   3.614  14.295  0.0326  0.2030 -0.0413
29264W        W44733   3.575   0.470  11.673 -0.0506  0.0574  0.0782
29265W        W44734  17.324   8.072   2.023 -0.0463  0.2258  0.0501
29266W        W44735  14.913   1.366  14.704 -0.0540  0.1173  0.3253
29267W        W44736   5.866   9.126   4.350  0.0398 -0.0341  0.1591
29268W        W44737  13.814   3.596  15.025 -0.1517 -0.1083  0.1920
29269W        W44738  13.185   2.706  11.685  0.0199  0.1884 -0.6649
29270W        W44739   6.891   9.550  15.750 -0.0705 -0.1003  0.0594
29271W        W44740   0.350   5.379  12.892 -0.0238  0.2116  0.2856
29272W        W44741   8.889   1.117   1.856  0.0603  0.2271  0.3169
29273W        W44742   5.029  12.495  11.444 -0.1338 -0.0991 -0.2153
29274W        W44743  16.273  15.606  12.718 -0.0756 -0.0062  0.0155
29275W        W44744  13.088   0.863  14.008  0.3711 -0.4897  0.0475
29276W        W44745  12.747  15.691   4.239 -0.3217 -0.0859 -0.0596
29277W        W44746  15.985   9.690  10.730 -0.0608  0.1759 -0.2163
29278W        W44747  11.704  10.913   5.360 -0.1191 -0.5238  0.1734
29279W        W44748  11.904   8.926   4.034 -0.1776 -0.0466 -0.1179
29280W        W44749   9.629  16.405   5.720 -0.0458 -0.0374  0.1773
29281W        W44750   7.178  17.670  14.810  0.2258 -0.1878 -0.1370
29282W        W44751   6.035   2.935  14.329 -0.1702  0.0569 -0.1057
29283W        W44752   0.285   7.520   3.860  0.2209  0.0822  0.1632
29284W        W44753  15.696  12.035  15.462 -0.1187  0.0662 -0.0391
29285W        W44754  10.719   8.201  12.572  0.0979 -0.0435 -0.0327
29286W        W44755   4.952  14.068   0.734  0.1686 -0.0335 -0.0612
29287W        W44756  12.564   2.090  14.211  0.0006  0.0858  0.0176
29288W        W44757  12.193   2.088  13.286  0.0345  0.0466 -0.1334
29289W        W44758  10.570   0.405  14.528  0.0610 -0.0169 -0.1895
29290W        W44759  15.695   4.994  13.139 -0.1522  0.0375 -0.1870
29291W        W44760   1.874  15.911   3.617  0.0290 -0.0010  0.1247
29292W        W44761   7.078   2.026   0.572 -0.3442  0.1419 -0.1831
29293W        W44762   8.764  17.218   0.485 -0.3592 -0.1096  0.2422
29294W        W44763   4.818   2.116  15.436 -0.1239  0.1685  0.1582
29295W        W44764   7.688   1.662   1.818  0.1143 -0.1608  0.3824
29296W        W44765  14.885   5.705  12.209  0.2426  0.0485  0.4102
29297W        W44766   1.528   0.540  15.412 -0.0161  0.0614  0.2297
29298W        W44767   3.527   9.613   2.880  0.1405 -0.0258  0.2565
29299W        W44768   4.546   2.805   1.284 -0.2588 -0.0853  0.1614
29300W        W44769   6.619  14.370  13.717  0.1674  0.1406 -0.3341
29301W        W44770   4.605  13.533  14.684 -0.0192  0.0039  0.1887
29302W        W44771  10.886  12.615   6.082  0.0022 -0.2735  0.0878
29303W        W44772   0.976  15.050   5.737  0.1023  0.0235  0.2616
29304W        W44773  14.633  13.526   2.467  0.0637  0.1691 -0.0180
29305W        W44774  10.517   5.256  12.274 -0.0896 -0.2412 -0.0129
29306W        W44775   7.658  10.744   3.046 -0.0704 -0.1055  0.2045
29307W        W44776   8.547   3.275  12.171  0.1332  0.3126 -0.0540
29308W        W44777   2.028  10.117  12.606 -0.1964  0.0277  0.0965
29309W        W44778   2.735  12.148  11.092 -0.4272 -0.1859 -0.1654
29310W        W44779   1.076  12.276  11.199  0.1500  0.1172 -0.0321
29311W        W44780   0.630   2.262   2.746 -0.1750  0.1875 -0.0674
29312W        W44781   8.122  11.282   2.526  0.0160  0.2368 -0.1265
29313W        W44782   8.134   3.429  12.348  0.0124 -0.1692 -0.0665
29314W        W44783  18.000  14.333   4.592  0.1954  0.0189  0.0911
29315W        W44784  17.506  16.581   0.664  0.1204  0.2121  0.1349
29316W        W44785   8.609  14.553   5.055  0.1187  0.2690  0.1188
29317W        W44786   1.558  15.474   3.124 -0.0923 -0.1102  0.0911
29318W        W44787   9.692   5.894  15.193 -0.1091  0.0066 -0.0985
29319W        W44788  11.980  17.613  11.335 -0.0078  0.0821  0.0763
29320W        W44789  10.042   3.537   0.907  0.0987  0.0924  0.0704
29321W        W44790  15.129  17.848  15.991  0.2431  0.4187  0.0580
29322W        W44791  10.506   9.611  10.945 -0.0274  0.3238 -0.0910
29323W        W44792   3.413  14.759  15.466  0.0536  0.1757  0.0827
29324W        W44793  17.682   4.947   4.420  0.0854  0.1289 -0.1537
29325W        W44794   0.813  11.454  11.581 -0.0046 -0.1519 -0.2667
29326W        W44795   8.193   9.752  13.016 -0.0681  0.1593  0.3242
29327W        W44796   1.354  14.788   2.456 -0.3051 -0.1912 -0.1599
29328W        W44797   9.373  14.602  16.231  0.2811 -0.1856  0.3670
29329W        W44798   0.187  10.054  12.538 -0.2243 -0.0859  0.1324
29330W        W44799   7.427   5.266  15.746 -0.2331  0.0761 -0.0181
29331W        W44800  12.987   1.716  15.719  0.0263 -0.0130  0.0847
29332W        W44801   8.833   4.068   0.831 -0.2015  0.0486 -0.1006
29333W        W44802  10.405   2.081   1.028  0.0217  0.2762 -0.1346
29334W        W44803  13.505   7.380  15.602 -0.0180  0.2907 -0.3069
29335W        W44804   4.598  15.171   3.474 -0.2249 -0.0391 -0.0136
29336W        W44805  17.016  17.433   2.912  0.4583 -0.0750  0.1537
29337W        W44806   6.966   8.153  12.387  0.1815 -0.0415  0.1252
29338W        W44807  16.819  13.399   2.276  0.0569  0.2475  0.0732
29339W        W44808   7.274   9.243  11.629  0.0735 -0.1068  0.1817
29340W        W44809  16.157   4.445  10.883  0.1509  0.0063 -0.3269
29341W        W44810  11.178  14.923   2.599 -0.1867 -0.0791  0.0517
29342W        W44811  12.923   4.851  14.003  0.3421  0.1309  0.0194
29343W        W44812  16.928   6.787   1.069  0.0015  0.2147 -0.2494
29344W        W44813   2.414   6.419  14.687  0.1047  0.0195 -0.2040
29345W        W44814  13.040  16.916   5.246 -0.1923  0.1483 -0.0526
29346W        W44815   2.335  10.850  11.263 -0.3014  0.1551 -0.3718
29347W        W44816  12.640  11.274   0.371  0.3110 -0.1243  0.2781
29348W        W44817  15.641   1.815   5.039 -0.0674 -0.0528  0.3352
29349W        W44818   0.335   6.057   1.957 -0.1802 -0.0901 -0.0409
29350W        W44819   6.988   7.695  16.439  0.2072 -0.1246 -0.1960
29351W        W44820  11.843   1.176   2.781  0.0184 -0.1023  0.0529
29352W        W44821   4.102   7.270   4.267 -0.1550  0.0768  0.1130
29353W        W44822   4.044  10.427  12.082  0.0737 -0.0021 -0.0400
29354W        W44823   5.572   6.158   1.493  0.0523  0.2073  0.1719
29355W        W44824   2.805  11.393  13.205 -0.1164 -0.1173 -0.5905
29356W        W44825  12.666  10.798   0.183 -0.5578 -0.3589  0.1117
29357W        W44826   1.019   4.643   3.459 -0.2083 -0.1579  0.0194
29358W        W44827   9.926  17.064  13.628 -0.2864  0.0653 -0.1389
29359W        W44828   2.495  17.290  12.690  0.0274 -0.0171 -0.0133
29360W        W44829  14.802  17.280   5.286  0.2032  0.2140 -0.1399
29361W        W44830   9.383   8.203   5.478  0.1459  0.2959  0.1260
29362W        W44831   9.943  14.336   4.573  0.1064 -0.1362 -0.1373
29363W        W44832   5.358   4.037  12.460  0.2897  0.3656  0.1367
29364W        W44833  10.344   3.150   1.319  0.1226  0.0234 -0.1928
29365W        W44834  13.471   9.805  13.470 -0.0875 -0.1221  0.4276
29366W        W44835   9.956  12.483  12.167  0.0093  0.1077 -0.0837
29367W        W44836   4.298   5.017  13.410  0.0847 -0.1415 -0.2834
29368W        W44837  17.494   1.352  14.474  0.0611 -0.1491 -0.0193
29369W        W44838  15.309   1.198  12.575 -0.1416  0.0567  0.3710
29370W        W44839   2.214   4.953   1.882  0.1069 -0.1429  0.0457
29371W        W44840  10.293   3.580  13.632  0.1415  0.0339  0.0730
29372W        W44841   8.691  14.024  15.741  0.3663  0.1144  0.0032
29373W        W44842  14.827  12.551  14.620  0.2639 -0.1524  0.1760
29374W        W44843  11.324   7.700   1.339  0.5109 -0.1251  0.0863
29375W        W44844   0.004  15.681  15.164  0.0914 -0.3314  0.1599
29376W        W44845   7.956  15.739   5.691 -0.0553 -0.1995  0.1345
29377W        W44846  15.635   2.343   1.969  0.0069 -0.2199 -0.3377
29378W        W44847  10.569   3.570  15.509 -0.1157 -0.0247  0.2013
29379W        W44848   5.072   4.007  13.024  0.2926 -0.0767  0.0558
29380W        W44849  14.186   1.970  11.928  0.1455 -0.1135 -0.1704
29381W        W44850  15.182  12.081   1.222  0.0964 -0.2711 -0.0683
29382W        W44851   0.791   7.304   4.481  0.3761 -0.2439 -0.2311
29383W        W44852   1.555  12.551  15.581 -0.1301 -0.3382  0.1325
29384W        W44853   4.291   1.664   3.366  0.2084 -0.1453 -0.0670
29385W        W44854   5.251  16.793   1.306 -0.1067  0.0889  0.1325
29386W        W44855  12.033  13.116  16.267  0.2164 -0.0672 -0.0656
29387W        W44856  15.316  14.347   5.116  0.0175  0.0445  0.0016
29388W        W44857  14.090   5.744  11.779 -0.1272  0.1307 -0.0195
29389W        W44858  14.798   1.397   4.013 -0.0463 -0.0632  0.0379
29390W        W44859   4.446   1.307  15.356 -0.0640  0.2456 -0.3198
29391W        W44860   2.593   8.679   2.967  0.1858  0.1461  0.2674
29392W        W44861  17.205   3.051   5.030 -0.2461 -0.2753  0.0529
29393W        W44862   1.435   8.609   3.413  0.3630  0.2426  0.0865
29394W        W44863   3.561   5.583  13.953 -0.2417 -0.0078  0.0553
29395W        W44864  13.595  13.495  14.289 -0.2684  0.0030  0.1551
29396W        W44865  10.416   3.310   3.578  0.2600 -0.1562 -0.2890
29397W        W44866  10.822   6.598  10.054 -0.0312 -0.3906  0.2344
29398W        W44867   5.086  15.007   0.380  0.2430 -0.1505  0.0284
29399W        W44868   4.268   3.671   1.289  0.3032 -0.3313 -0.2982
29400W        W44869   5.924  15.277  14.555  0.1442 -0.0129 -0.0789
29401W        W44870  14.111   9.313   4.097 -0.0469 -0.4212 -0.1025
29402W        W44871   2.878   6.186   0.209  0.0194  0.0048  0.1252
29403W        W44872   6.526   0.698  15.978  0.2367  0.0272  0.0638
29404W        W44873   1.986   6.512   1.344 -0.1153 -0.1027 -0.2461
29405W        W44874   4.659  10.566  15.137 -0.0262  0.0205  0.0103
29406W        W44875   6.872  11.539  13.251  0.0730  0.0133  0.0076
29407W        W44876   5.990  17.803   1.887  0.0866  0.1381  0.3140
29408W        W44877   5.563   4.402  16.594  0.2509 -0.0075  0.0997
29409W        W44878   7.877   4.694   0.107  0.0862  0.0021  0.0479
29410W        W44879   0.913  15.575   6.066 -0.1126  0.3368  0.1798
29411W        W44880  10.392   9.175   2.070  0.1633  0.0458  0.2644
29412W        W44881  11.480   1.925  14.783  0.0593 -0.2296 -0.2834
29413W        W44882  17.536  16.997  11.621 -0.3373  0.2758 -0.0488
29414W        W44883   5.177  17.629   1.392 -0.0885  0.0359  0.0603
29415W        W44884   9.265   3.873   0.184 -0.0899 -0.0142  0.4370
29416W        W44885  13.876   2.438   5.358  0.1839 -0.2274  0.1515
29417W        W44886  10.835   7.819  15.541  0.0888  0.4632  0.1791
29418W        W44887  17.949  13.342  15.716 -0.1026  0.0302  0.1612
29419W        W44888   1.905  17.315  16.019 -0.1210 -0.3293  0.0506
29420W        W44889   9.562   6.228  13.333 -0.1914 -0.3407  0.2347
29421W        W44890   8.458  12.143  12.992  0.1121  0.0534 -0.1615
29422W        W44891  10.348   8.979  14.254 -0.0034 -0.0587  0.0324
29423W        W44892   1.234  17.559   3.441 -0.3943  0.1494 -0.0832
29424W        W44893   5.039   8.541   0.735  0.2620  0.1258  0.1189
29425W        W44894  14.053   9.753  16.166 -0.0733  0.4156 -0.0034
29426W        W44895  12.843  10.552   4.014 -0.2046  0.0753  0.1176
29427W        W44896  16.388   4.816   4.942 -0.0018  0.1527  0.2414
29428W        W44897   4.235   3.127   5.518 -0.0480  0.1059 -0.1106
29429W        W44898   2.086   9.513   1.279  0.0970  0.0288 -0.1082
29430W        W44899  12.418  12.231  15.881 -0.0129  0.0541  0.1949
29431W        W44900  13.300   8.776  11.462 -0.1761  0.1672 -0.0765
29432W        W44901  14.877   5.418   3.361  0.1247 -0.0399  0.1270
29433W        W44902   1.839  11.835  14.807 -0.0439 -0.0214  0.1830
29434W        W44903   6.424  15.188  16.184 -0.0886  0.1452  0.1547
29435W        W44904  13.814   6.931  15.732 -0.0407  0.1099 -0.0211
29436W        W44905   7.564  13.740   1.810  0.0620 -0.0783  0.0356
29437W        W44906   4.845  16.163  16.518 -0.0404  0.0022 -0.0020
29438W        W44907   2.552  12.204   0.235  0.3338  0.1087 -0.1734
29439W        W44908   7.255  16.972   3.189 -0.4910 -0.4077  0.1018
29440W        W44909  13.105   6.741  15.819  0.1824  0.0655  0.0434
29441W        W44910  11.498   6.541  12.918 -0.0921 -0.3287 -0.0374
29442W        W44911  14.411   5.433  12.675  0.2756 -0.1777  0.1888
29443W        W44912   9.842   8.307  12.673 -0.0899 -0.0734  0.1306
29444W        W44913   4.389   2.860  15.304  0.0859  0.1116  0.0811
29445W        W44914  15.806   3.049  12.845 -0.0222  0.2026  0.1394
29446W        W44915   6.052   3.952   5.309  0.1556 -0.0367  0.2188
29447W        W44916  15.022   5.855   0.243  0.0333 -0.1858  0.0603
29448W        W44917   8.418  14.241  16.154 -0.0478  0.1182 -0.1314
29449W        W44918   3.646   1.738  15.083 -0.0987 -0.0941 -0.1101
29450W        W44919   5.362   5.399  14.800  0.0682  0.0852  0.0085
29451W        W44920   0.081   4.186  13.231  0.2582 -0.2066  0.2501
29452W        W44921  11.769   6.564  14.973 -0.2025 -0.2288 -0.0851
29453W        W44922   5.391  13.024   3.911 -0.0366  0.0125  0.1404
29454W        W44923   4.541  15.029  13.904 -0.1235 -0.2710  0.2421
29455W        W44924   5.848  15.247   3.587 -0.2099  0.1133 -0.2780
29456W        W44925  14.613   1.541   4.457 -0.0763 -0.2835  0.0261
29457W        W44926   3.611  13.603   5.173  0.1041 -0.0887  0.1877
29458W        W44927   8.520   1.075   2.821  0.1910 -0.0362  0.1800
29459W        W44928  16.547  10.746  11.172 -0.2141 -0.0381  0.1246
29460W        W44929   2.530   1.379   2.251  0.0017  0.0046 -0.1082
29461W        W44930   7.397  15.602  11.680 -0.1513 -0.0574  0.1770
29462W        W44931   7.844   9.962  11.669  0.2351 -0.0138 -0.0422
29463W        W44932   9.125   7.815   3.806 -0.0064 -0.0794  0.0056
29464W        W44933  15.525   4.452   1.671  0.0605 -0.2158 -0.1790
29465W        W44934   8.299  13.889   2.667 -0.1949  0.0264 -0.0035
29466W        W44935   7.980  17.148  15.768 -0.1691 -0.1382  0.5324
29467W        W44936   1.290  11.276   1.005 -0.1143  0.0212  0.1286
29468W        W44937   5.595   8.712  14.718  0.0137 -0.0834  0.2594
29469W        W44938  17.997  15.375  14.358  0.2355  0.0346  0.2408
29470W        W44939   0.072   9.175   5.761 -0.1429  0.0157 -0.1008
29471W        W44940   4.547  15.697  14.541  0.1541  0.1143 -0.1094
29472W        W44941  14.994   3.043   3.345 -0.1039  0.4304  0.1853
29473W        W44942   5.687   1.014   4.626  0.3599 -0.2828  0.2251
29474W        W44943   3.788   1.840   6.390  0.0608  0.2226 -0.0719
29475W        W44944   7.259   5.057  14.060 -0.2234  0.2625 -0.0335
29476W        W44945   3.841   5.723  15.025  0.0245  0.0191 -0.1644
29477W        W44946   6.363   1.304  12.802 -0.1251  0.0726  0.0149
29478W        W44947   2.651  16.749  12.469 -0.0008  0.1334  0.1055
29479W        W44948   9.287   5.366   3.344 -0.1182 -0.1439 -0.1207
29480W        W44949   5.379   9.786   2.520 -0.0494 -0.1601 -0.0968
29481W        W44950   5.070   5.507  13.867  0.1189  0.0179 -0.0944
29482W        W44951  14.283  14.496  13.196  0.2457 -0.4638 -0.0611
29483W        W44952   5.537   9.440  12.244 -0.1958 -0.2117 -0.0433
29484W        W44953   6.449   9.511   1.231 -0.3697 -0.5659 -0.1993
29485W        W44954   6.603   0.535   3.527  0.2897  0.1889 -0.0402
29486W        W44955   7.156  13.422   0.536  0.0349  0.0213  0.0691
29487W        W44956  15.992  17.305   5.140 -0.0519 -0.4497  0.0674
29488W        W44957   5.173  10.464  13.309  0.1140 -0.0952 -0.1449
29489W        W44958   6.979   4.876   0.566  0.3525 -0.2458  0.0641
29490W        W44959  16.313   4.314   4.601 -0.1709 -0.0574 -0.3061
29491W        W44960   4.060   0.884   4.619  0.1283  0.0886  0.0504
29492W        W44961   0.311  15.043  16.361  0.1494 -0.1869  0.0527
29493W        W44962   1.030  15.646  16.119 -0.0041  0.1558  0.2561
29494W        W44963  16.000  10.151   2.122  0.1423 -0.2743 -0.0392
29495W        W44964  17.389   0.937  15.309 -0.0188  0.0470 -0.0085
29496W        W44965   2.898   6.721   3.892  0.0490 -0.2387  0.0728
29497W        W44966  15.283  15.846   3.095 -0.4477 -0.0146 -0.0676
29498W        W44967  16.287   2.921   4.918  0.2334 -0.5337  0.0878
29499W        W44968   6.496  10.416   1.291  0.0864 -0.1168  0.0180
29500W        W44969   0.651   5.517   4.335 -0.1731 -0.0143 -0.0432
29501W        W44970   5.442  17.953   0.796 -0.1610  0.1297  0.0713
29502W        W44971   9.850  10.302   1.660  0.3015 -0.2576  0.0343
29503W        W44972  13.071   9.243   1.813  0.1326 -0.1561  0.1178
29504W        W44973  13.899   1.224  10.759  0.2236 -0.0172 -0.0159
29505W        W44974  10.896   2.325  16.297  0.2715 -0.1415 -0.1692
29506W        W44975  10.925   6.285   2.902 -0.0493  0.1560 -0.2557
29507W        W44976   2.074  16.524   0.977 -0.2312 -0.1722  0.0776
29508W        W44977   7.353   7.591   3.520 -0.0807  0.0069  0.1354
29509W        W44978   8.288   7.722  16.061 -0.1882  0.0615  0.2062
29510W        W44979  11.960  14.976  15.552  0.0488 -0.1519  0.1102
29511W        W44980   3.540   6.699   5.717  0.1329 -0.3100 -0.2060
29512W        W44981   6.263  14.308   3.459 -0.0709  0.2090  0.1680
29513W        W44982  14.555   2.914   3.179  0.0871  0.1102 -0.1679
29514W        W44983  17.620  13.318  14.896 -0.2423 -0.0353  0.1239
29515W        W44984   2.998  12.866  14.869 -0.0900  0.0291  0.2648
29516W        W44985  12.169   8.357  12.333 -0.0933 -0.1823 -0.0921
29517W        W44986  15.440   7.607  15.531  0.0392 -0.0220 -0.1280
29518W        W44987   4.044  16.702  13.147  0.1877  0.3818  0.1166
29519W        W44988   9.838  17.278   2.330  0.1777 -0.0681  0.1673
29520W        W44989  17.217   1.940   3.618  0.2809 -0.3159 -0.3810
29521W        W44990  13.493  11.886   0.084  0.0994  0.2041  0.0081
29522W        W44991  14.177  11.715   5.834 -0.2692  0.1306  0.3028
29523W        W44992   4.759  16.714   4.411 -0.0292  0.0819 -0.2117
29524W        W44993   1.290   8.855  11.432 -0.2183 -0.2221  0.1503
29525W        W44994   5.016  15.253  16.192  0.1998 -0.0420  0.0527
29526W        W44995  15.763  16.092  12.075 -0.2853 -0.2132  0.0179
29527W        W44996  12.613  16.204   3.517  0.1859 -0.0129 -0.2552
29528W        W44997  11.107  17.767   1.072  0.2182 -0.0226  0.0041
29529W        W44998  14.437   4.171  10.683  0.1893  0.0050 -0.0447
29530W        W44999  15.165   9.618   5.181  0.0788 -0.3805  0.0124
29531W        W45000  11.585  13.643   4.702  0.0585 -0.2589  0.0742
29532W        W45001  17.328  16.198  12.189  0.0577  0.2062  0.1647
29533W        W45002   8.389   1.082  16.194  0.0594  0.2067 -0.1183
29534W        W45003   9.730   7.812   2.484  0.0307 -0.2702 -0.0159
29535W        W45004  10.765  12.988   5.313 -0.1479  0.0049 -0.1323
29536W        W45005   4.237   9.806   1.205  0.0835 -0.2008 -0.2146
29537W        W45006   4.024  11.775  12.237  0.2369  0.1138  0.2818
29538W        W45007  11.896  13.605   0.264 -0.0722  0.0892 -0.1146
29539W        W45008  11.343   6.553   5.412  0.0849 -0.0416  0.0144
29540W        W45009   3.427  16.314  15.725  0.0173 -0.2481 -0.4554
29541W        W45010  14.111   6.267   3.732 -0.0736 -0.0512  0.1326
29542W        W45011  17.551   0.671   3.290  0.0453 -0.0747 -0.0153
29543W        W45012  12.416   9.218  14.426  0.0678  0.0542  0.0262
29544W        W45013  14.267   9.334  14.528 -0.1192  0.0383 -0.1398
29545W        W45014  13.374   8.366  14.340 -0.2939 -0.1976 -0.1205
29546W        W45015   3.009  16.612   1.112  0.1685 -0.1518 -0.0440
29547W        W45016  15.325   3.650  15.043 -0.1428 -0.3904 -0.2887
29548W        W45017  16.605   4.660   3.285  0.0235  0.0784  0.1041
29549W        W45018  11.552   6.519  15.459  0.1416 -0.0533  0.3215
29550W        W45019  14.488   0.087   4.232  0.1368 -0.0291  0.0319
29551W        W45020   7.940  10.700  16.453 -0.0982 -0.0975  0.2215
29552W        W45021   4.928  10.782  11.552 -0.0530 -0.5485  0.0761
29553W        W45022   5.316  11.527  15.222 -0.0511  0.0996 -0.0134
29554W        W45023  13.464   9.249  11.473  0.1888 -0.0744  0.3625
29555W        W45024   5.658   8.316  14.268  0.3443  0.1372 -0.0831
29556W        W45025   1.839   7.078  14.505 -0.2477  0.1029  0.0196
29557W        W45026   7.369  15.430   2.617  0.0715  0.1711 -0.1991
29558W        W45027  17.472   4.662  15.980  0.0090  0.0407  0.0172
29559W        W45028  13.305   7.678   2.397 -0.0253  0.1197  0.0094
29560W        W45029   5.376   4.077   4.624  0.3241  0.1284  0.1878
29561W        W45030   8.922   2.349   1.650  0.1167 -0.2095  0.3267
29562W        W45031  10.798   5.577   0.735 -0.0893 -0.1548  0.0859
29563W        W45032   5.478  11.128   3.855  0.2141  0.1260  0.2992
29564W        W45033  11.650   1.223  16.501 -0.0043  0.0204 -0.2783
29565W        W45034  10.487  14.485  12.348  0.1700 -0.0515 -0.0144
29566W        W45035  14.503   8.699   2.630  0.0796  0.1934  0.2048
29567W        W45036  14.278  13.084  15.869  0.0873  0.1263  0.0069
29568W        W45037   8.445   4.952   5.211 -0.0764  0.1537  0.1351
29569W        W45038   3.801   0.853   1.254  0.0449 -0.1170  0.0047
29570W        W45039  10.908  12.750   4.783 -0.2668 -0.1846 -0.0744
29571W        W45040   0.663  16.574  16.380  0.0748 -0.1999 -0.1062
29572W        W45041  13.233   5.517   2.804  0.2875  0.1121 -0.3104
29573W        W45042   3.468  12.152   0.324  0.0568  0.1350 -0.1444
29574W        W45043   2.457   0.153  15.586  0.1542 -0.2250  0.0150
29575W        W45044   5.126   9.128  13.577  0.0557  0.3152  0.0744
29576W        W45045   7.179  12.519  13.098  0.1179 -0.1729  0.1647
29577W        W45046   6.438  12.607   0.353  0.0584 -0.0604 -0.0175
29578W        W45047   4.113   6.421  11.637 -0.2396 -0.0749  0.2506
29579W        W45048  15.120  16.749   4.872 -0.0463  0.2355  0.1668
29580W        W45049   6.141   6.717  11.644  0.2561 -0.3269 -0.3273
29581W        W45050   1.017   5.075  12.336  0.1839 -0.1560 -0.0111
29582W        W45051  16.543  16.455   5.182  0.0148 -0.2603 -0.1838
29583W        W45052  13.799   1.901   2.155  0.5012 -0.1716  0.1312
29584W        W45053  12.388   1.180   0.764 -0.0375 -0.0065  0.1398
29585W        W45054  12.078  16.020   2.632 -0.0671  0.2135 -0.1575
29586W        W45055   5.559   5.262   1.721 -0.0305 -0.4489  0.0179
29587W        W45056  10.120   7.830   5.537  0.0592 -0.2040  0.0664
29588W        W45057   7.305   6.943   4.092  0.0032 -0.1177 -0.0544
29589W        W45058   6.789  17.465  14.503 -0.1901  0.1072 -0.0438
29590W        W45059  15.440   6.673  10.889  0.0893  0.0435  0.0231
29591W        W45060   0.720   8.392  15.750 -0.1125 -0.0932  0.1171
29592W        W45061   2.558   1.393  12.731  0.3191 -0.0751 -0.1247
29593W        W45062   1.266   6.345   0.263  0.0328  0.0051  0.0726
29594W        W45063  12.011  17.442   4.978  0.1273  0.1257 -0.2249
29595W        W45064   4.539  10.519  11.412  0.2396 -0.2439 -0.0790
29596W        W45065   7.813  16.055   0.256 -0.1174 -0.3221 -0.0982
29597W        W45066   3.843   8.409  13.647 -0.3211  0.1677  0.1922
29598W        W45067   0.700  10.903  16.399  0.0953  0.1861 -0.1447
29599W        W45068  15.542  12.307  11.027 -0.0467 -0.0180  0.1183
29600W        W45069   3.937  15.342   6.915  0.1547  0.1203 -0.1747
29601W        W45070   9.222  10.701  14.342 -0.1897 -0.0729  0.2528
29602W        W45071  10.908   2.730  13.152  0.0892  0.1345 -0.1973
29603W        W45072  17.206   6.634   0.632  0.3329 -0.0967 -0.1211
29604W        W45073   3.620  15.574  14.508  0.2047  0.3052 -0.0461
29605W        W45074   2.334   1.635  14.513 -0.0006 -0.1977  0.0315
29606W        W45075   5.027  15.948   2.976 -0.2136 -0.0515 -0.0028
29607W        W45076  14.628  16.884  13.883  0.1735 -0.0754 -0.2944
29608W        W45077  16.399  13.611   0.342  0.1240 -0.0711  0.1005
29609W        W45078  10.015   0.314  14.422 -0.2872 -0.3135  0.0194
29610W        W45079   7.493  16.776  12.181  0.0599 -0.1884 -0.1453
29611W        W45080  16.143   4.236   1.077  0.2022  0.1761  0.2885
29612W        W45081  13.629  10.411   2.629  0.1899  0.1433 -0.0482
29613W        W45082  11.073   9.206   5.547  0.0087 -0.2584  0.0551
29614W        W45083   1.799   5.446  16.221  0.0668  0.1408  0.1047
29615W        W45084  15.414   7.947  11.708  0.0763  0.2415  0.0220
29616W        W45085   3.414   3.847  12.530 -0.3764  0.2367  0.1636
29617W        W45086   1.406  13.616   3.299 -0.1946 -0.2914 -0.0189
29618W        W45087  15.486   3.041   3.305  0.3595  0.2198 -0.0669
29619W        W45088   3.937  14.804   1.230  0.0515  0.2751 -0.0868
29620W        W45089   9.730   0.713  11.540  0.2296 -0.3139 -0.1195
29621W        W45090   0.220   1.208   1.054 -0.0274 -0.5950  0.1736
29622W        W45091   6.488  15.311   1.441  0.2937 -0.2432 -0.0739
29623W        W45092   9.447  15.734   1.604 -0.3184  0.0989  0.1406
29624W        W45093   9.506   9.205   2.331  0.0295 -0.1837  0.0587
29625W        W45094   3.189   9.915   3.159 -0.0383  0.1104  0.0112
29626W        W45095   1.820   9.925  13.656 -0.0659 -0.1456  0.0339
29627W        W45096  14.665   6.243  12.929 -0.1138 -0.2135 -0.2538
29628W        W45097  14.399  16.674  12.075  0.2020 -0.0352  0.0358
29629W        W45098   9.188   9.174  11.061  0.0989 -0.1951 -0.1923
29630W        W45099   0.709   4.543  15.134 -0.0739  0.0174 -0.1429
29631W        W45100  12.519  14.382   0.240  0.2446 -0.0449  0.1219
29632W        W45101  16.123   8.998   0.661  0.1408  0.3870  0.0607
29633W        W45102  14.378  12.140   2.869 -0.0816  0.4376 -0.1764
29634W        W45103   8.922  13.962   0.831  0.0169 -0.3595  0.2004
29635W        W45104   1.996   5.159   3.061  0.0539 -0.0996  0.0102
29636W        W45105   1.884  14.053  14.390  0.1868 -0.0579  0.0288
29637W        W45106   2.733  15.618   5.997  0.1545  0.1579  0.2482
29638W        W45107   0.195   2.187  13.818 -0.0709 -0.1112  0.1670
29639W        W45108  15.127  17.149  13.800 -0.0395  0.1463 -0.1486
29640W        W45109   7.300  14.304   5.259  0.0564  0.1134 -0.1190
29641W        W45110   7.113  14.421   3.000 -0.1319  0.2362 -0.0264
29642W        W45111   1.587   8.612  14.790  0.0726  0.1182 -0.1431
29643W        W45112   0.204  15.773   1.482  0.0354  0.2179  0.1712
29644W        W45113   2.312  11.218   2.156  0.1178  0.0512 -0.1951
29645W        W45114  15.607  10.632   3.272 -0.6715 -0.3663 -0.1034
29646W        W45115   3.684  13.683   3.315  0.1077  0.1889  0.2647
29647W        W45116   5.673   0.838   0.515  0.1154 -0.0274  0.1101
29648W        W45117  14.180   1.812  14.479  0.4330  0.2714 -0.1136
29649W        W45118   8.472   1.457   1.889  0.1060  0.2230 -0.2431
29650W        W45119  15.397   1.373  14.794 -0.1097 -0.2159 -0.1421
29651W        W45120   5.499  16.835  11.950  0.0652 -0.1009 -0.1784
29652W        W45121   3.484  16.216  16.502  0.2251 -0.0549  0.3034
29653W        W45122   9.563  14.197   3.344  0.2096 -0.1181  0.0755
29654W        W45123   4.825   3.447   4.240  0.1707 -0.0502  0.1268
29655W        W45124  15.141   2.093   2.130 -0.1066  0.0325 -0.1946
29656W        W45125  12.888  10.495  12.814  0.0596 -0.0094 -0.1286
29657W        W45126   5.890   2.484  14.671 -0.0404 -0.1826 -0.1401
29658W        W45127  13.089  15.420  12.530 -0.2637 -0.0653 -0.0211
29659W        W45128   2.359  13.391  14.533  0.1117 -0.2224  0.2031
29660W        W45129   7.423   3.023  10.535  0.0826  0.0455 -0.1774
29661W        W45130  15.223   1.547  15.215 -0.2789 -0.0405  0.1716
29662W        W45131   1.619   6.635   3.177  0.0507  0.1370  0.0265
29663W        W45132  10.978  14.405   2.775  0.0067  0.0152  0.2255
29664W        W45133  14.039  17.857   3.222  0.1454  0.3533  0.2065
29665W        W45134  14.351  17.133  15.476 -0.2908 -0.0768 -0.0591
29666W        W45135  16.707   9.338  12.525  0.2564 -0.0713 -0.0333
29667W        W45136   0.841  10.533   3.539  0.0559 -0.0099  0.0077
29668W        W45137   4.957   5.739  16.448 -0.2533  0.0762  0.1576
29669W        W45138  13.320   1.010   0.793 -0.4735 -0.1304 -0.0472
29670W        W45139   9.954  10.493  15.803 -0.0444  0.0974  0.0121
29671W        W45140   5.519   0.954  12.889  0.0335 -0.0039 -0.2045
29672W        W45141   6.927   3.144   4.718  0.1183  0.0009  0.0485
29673W        W45142   3.485   2.854  11.969 -0.0903  0.1259  0.0774
29674W        W45143  14.556  15.105  12.518  0.0466  0.0659  0.0136
29675W        W45144   2.696   0.658  14.320  0.2624  0.1233  0.1398
29676W        W45145  10.543  16.658  11.341  0.0369  0.1728  0.1561
29677W        W45146   1.621   1.134  11.783 -0.1152 -0.1657  0.1379
29678W        W45147  14.540  12.209   3.881 -0.0151 -0.1107  0.0694
29679W        W45148  14.086  12.350  15.508  0.0018  0.0334 -0.2730
29680W        W45149   2.588  15.750  16.093 -0.1753 -0.0946  0.0242
29681W        W45150   2.908  10.695   4.241 -0.1792 -0.0113 -0.0729
29682W        W45151  10.689   3.125   0.262  0.0635 -0.2208 -0.1427
29683W        W45152   5.290  12.043   0.787  0.0118 -0.4025  0.0574
29684W        W45153  14.798  14.132  14.088  0.0159  0.1201  0.3020
29685W        W45154   9.779  13.300   2.860  0.3615  0.0550  0.0559
29686W        W45155  12.414  15.834  10.767  0.2158 -0.2298 -0.0605
29687W        W45156  11.910   6.765   4.294  0.0533  0.0116  0.3317
29688W        W45157   0.668  14.877  11.869  0.1510 -0.2137  0.2936
29689W        W45158   0.481   7.472  10.938 -0.1812 -0.0148  0.4146
29690W        W45159   0.028  13.971   1.943 -0.3040  0.2435 -0.0445
29691W        W45160  11.561  17.837  12.669  0.0541  0.0286 -0.5167
29692W        W45161  12.413  13.321  14.811 -0.1038 -0.0536  0.1286
29693W        W45162  12.968   7.403   1.011 -0.0007  0.0685 -0.2324
29694W        W45163  16.479   9.718   4.867 -0.1901 -0.1431  0.1753
29695W        W45164  14.996   7.593  12.999  0.0554 -0.0962 -0.1205
29696W        W45165   7.140   7.431  15.304 -0.1372 -0.1092  0.0176
29697W        W45166   9.437   8.239   4.591 -0.0628 -0.1802  0.0110
29698W        W45167   6.062  13.888  15.629  0.0238  0.2719  0.1558
29699W        W45168   1.794   2.448  14.949 -0.1713  0.0796  0.0813
29700W        W45169   1.783   3.515  12.112 -0.1683 -0.0693  0.0873
29701W        W45170   3.850   0.179  13.354 -0.3443  0.1879  0.2440
29702W        W45171  17.087   3.092   3.516 -0.3612 -0.0323 -0.0580
29703W        W45172  17.625   8.543   5.140 -0.1000 -0.0523 -0.1335
29704W        W45173  17.081   7.636   4.192  0.1530  0.2818 -0.2012
29705W        W45174  12.163   3.718  14.088 -0.2695  0.0390  0.0829
29706W        W45175  17.241   6.453  11.278 -0.0323 -0.2218 -0.3684
29707W        W45176  15.293   8.439   5.737  0.0091  0.2481 -0.2802
29708W        W45177   9.152  13.840   3.174  0.0953 -0.1138  0.1950
29709W        W45178   8.268  15.498   6.075 -0.0518 -0.1793 -0.1851
29710W        W45179  11.621   1.880  11.502  0.1407 -0.3713 -0.1285
29711W        W45180   7.572  15.010  13.413 -0.2273 -0.0700 -0.2186
29712W        W45181  12.306   5.720   2.545 -0.3603 -0.0432  0.2792
29713W        W45182   9.490  11.778  14.538  0.0965 -0.1515  0.0449
29714W        W45183   0.451  16.043  13.229 -0.2035  0.0545  0.0842
29715W        W45184   8.492   6.046   3.153 -0.1218  0.0164 -0.2451
29716W        W45185   2.303   2.197  16.053 -0.1060 -0.0332  0.0816
29717W        W45186  17.641  13.446   4.903 -0.2508  0.1343 -0.1774
29718W        W45187   9.361   1.690   0.683  0.0233 -0.1591 -0.1618
29719W        W45188  14.370  11.640   3.870 -0.2371 -0.1164  0.1515
29720W        W45189  10.553   1.487   1.696 -0.1621 -0.3374 -0.1587
29721W        W45190   3.089  11.790   2.134 -0.0071  0.0005 -0.1044
29722W        W45191  12.551   2.355  12.487  0.0728  0.2376  0.0907
29723W        W45192  15.935   4.762   9.814  0.0727 -0.1569 -0.1270
29724W        W45193   1.053  16.998  16.469  0.2741  0.2164 -0.3269
29725W        W45194  15.669  14.154   4.819 -0.0021 -0.0437  0.3746
29726W        W45195  16.589  16.920  12.793 -0.3261 -0.0916 -0.4339
29727W        W45196  13.360  11.909  16.115 -0.0620  0.3192 -0.2378
29728W        W45197   9.319  12.798   3.498 -0.0400 -0.0295 -0.1884
29729W        W45198   3.544  13.635   0.735 -0.2109 -0.1683 -0.0861
29730W        W45199  12.006  14.698  15.132  0.2730  0.0434  0.0373
29731W        W45200   6.083  13.128   3.338 -0.1205 -0.0398 -0.0209
29732W        W45201  15.209  10.176  15.553 -0.2898 -0.2446  0.1895
29733W        W45202  13.017  11.683  12.470  0.3303 -0.1438 -0.2019
29734W        W45203  16.485   4.547   0.715  0.2279 -0.0018  0.0586
29735W        W45204   2.028  12.337  11.688  0.1502 -0.1649  0.3691
29736W        W45205   4.755  15.973  13.287 -0.2547  0.0384  0.0057
29737W        W45206  15.649  14.860  16.148 -0.0879 -0.2314  0.1938
29738W        W45207   5.052   7.658  16.413  0.2347  0.1258  0.1288
29739W        W45208   5.665  15.817   4.353 -0.0359  0.1665  0.0362
29740W        W45209   4.647   9.528   2.635 -0.1530 -0.0460  0.4405
29741W        W45210   4.607  13.376   3.559  0.2341  0.0763  0.0214
29742W        W45211   2.618   5.294   4.603  0.0572 -0.2728  0.1426
29743W        W45212  11.293  10.637  14.939 -0.0546 -0.4365  0.0597
29744W        W45213   4.172  15.234   3.099  0.0487 -0.2903  0.2896
29745W        W45214   0.187  15.325   3.537 -0.0930  0.1058 -0.0170
29746W        W45215  10.070  14.651  11.566 -0.2003 -0.0160 -0.3353
29747W        W45216  15.613  12.550  15.756  0.0095  0.0229 -0.1702
29748W        W45217  15.501   5.522  11.136 -0.1729  0.0052 -0.0485
29749W        W45218  15.068  15.145  15.029 -0.0288 -0.3678  0.0796
29750W        W45219  16.938  14.483   0.242  0.0120  0.2525 -0.1634
29751W        W45220   0.937  17.689  14.374 -0.4525  0.1679  0.1029
29752W        W45221  12.085  12.375   1.584  0.2435 -0.1177  0.1333
29753W        W45222   5.926   0.512  14.002  0.1154  0.1413 -0.0080
29754W        W45223  10.281   0.592   1.369 -0.0888  0.0131 -0.0930
29755W        W45224   0.800  10.607  15.161  0.3796 -0.0393  0.0869
29756W        W45225  17.143   7.489  12.204 -0.2320  0.0758 -0.0642
29757W        W45226   6.066   6.700  16.112 -0.0223  0.2596 -0.1379
29758W        W45227   0.082  13.690   2.867 -0.0348 -0.0664  0.0373
29759W        W45228  14.768   5.942  15.376 -0.0046  0.2178  0.1531
29760W        W45229  16.985   2.571   5.810 -0.1248 -0.0231  0.0144
29761W        W45230   1.012  12.556   2.511  0.0758  0.0623  0.2442
29762W        W45231  10.839  14.077  12.786  0.1537 -0.1007 -0.2422
29763W        W45232   1.067  12.301   0.684  0.0072 -0.1580 -0.0876
29764W        W45233  13.892  15.066   4.147  0.3886 -0.0192 -0.0111
29765W        W45234   1.320  13.266   2.915  0.0725 -0.3831 -0.1829
29766W        W45235   4.483   3.694   5.650 -0.1461  0.0311  0.0892
29767W        W45236   0.226  10.498   3.484 -0.1065  0.0277  0.0242
29768W        W45237   2.245  10.773   2.466 -0.0151 -0.0326 -0.1544
29769W        W45238   9.913   7.479   2.773  0.1593  0.1240  0.1048
29770W        W45239  10.315   7.672  14.082  0.2545 -0.1725  0.0998
29771W        W45240  12.702  16.936   4.873 -0.0262 -0.4231  0.0367
29772W        W45241   2.239  15.592   6.096  0.3091  0.4573 -0.0240
29773W        W45242   0.273  17.177  14.864 -0.0104  0.2467  0.0930
29774W        W45243   5.932  14.340  15.484  0.0527 -0.3703 -0.0077
29775W        W45244   1.121   2.349  13.508  0.1426 -0.2638  0.2637
29776W        W45245   9.545   2.883   4.623  0.0478 -0.4111  0.0259
29777W        W45246  12.240   2.622   0.591 -0.3021 -0.0935 -0.2771
29778W        W45247  17.779   1.561   3.193 -0.0141  0.2428  0.0629
29779W        W45248  16.773   1.997   0.842  0.1823 -0.0635  0.2638
29780W        W45249   6.203  17.768   1.032 -0.1209 -0.2285 -0.0871
29781W        W45250  16.393  17.756   0.620  0.0640 -0.0424  0.1333
29782W        W45251   9.364  12.661  14.329  0.1893 -0.1111  0.1479
29783W        W45252  10.296   7.122  16.412 -0.0856  0.0372  0.0722
29784W        W45253  16.746  12.629   2.726 -0.0643  0.0125  0.1416
29785W        W45254  16.302   2.230  13.536  0.2821  0.1128 -0.4493
29786W        W45255   4.618   5.135   4.974 -0.1857 -0.3594 -0.4334
29787W        W45256   5.312  12.499  13.360  0.1807 -0.1378  0.1116
29788W        W45257   3.362   0.056   0.276 -0.1893  0.1294 -0.0249
29789W        W45258   2.718  16.011  14.343  0.0141  0.1410 -0.3132
29790W        W45259   2.596  11.346   3.884 -0.2381 -0.1342  0.3746
29791W        W45260  11.980  12.545  14.349 -0.2018  0.2547 -0.0304
29792W        W45261  10.853   7.683   4.467  0.3298 -0.0853 -0.1514
29793W        W45262   0.745   2.178   0.332 -0.0122  0.0241  0.0712
29794W        W45263   0.447   5.289  12.227  0.0443 -0.0394 -0.1567
29795W        W45264   9.396  14.150  12.780  0.0833 -0.0044  0.0200
29796W        W45265   3.659  12.332  15.339  0.1669  0.0135 -0.1518
29797W        W45266  15.512   2.896  14.669 -0.0531  0.0221  0.1132
29798W        W45267  16.413   8.027   3.383  0.1073 -0.1452  0.2620
29799W        W45268   0.461   3.822  13.476 -0.3050  0.0374  0.1423
29800W        W45269   9.161  11.015   3.538  0.0691 -0.1530 -0.1521
29801W        W45270   1.840   5.114   3.551 -0.1210  0.0275  0.1621
29802W        W45271  13.624   4.008  12.959  0.1147  0.1010 -0.1248
29803W        W45272   5.683   7.809  14.425  0.1602 -0.0358 -0.0962
29804W        W45273  14.783  12.086  16.012 -0.0538  0.0526 -0.0545
29805W        W45274  17.241   6.782   3.462  0.2577  0.2584 -0.0436
29806W        W45275   3.034  16.641   0.511  0.1535 -0.3467  0.3384
29807W        W45276  12.448  15.782   3.306  0.3210  0.1973  0.1670
29808W        W45277   5.725  10.383   3.238 -0.2879 -0.0254  0.0967
29809W        W45278   6.730   0.882   1.400  0.0501 -0.0092  0.3245
29810W        W45279  16.006   6.955   0.110 -0.2460  0.0625  0.1596
29811W        W45280   0.782  14.183  13.686 -0.1781  0.1248  0.2394
29812W        W45281   4.012  12.397  13.657  0.3945 -0.0124  0.0272
29813W        W45282  13.154   0.089  12.098  0.3355 -0.0642  0.1558
29814W        W45283   5.488  15.428  13.524  0.2981 -0.0165  0.1114
29815W        W45284   9.904   7.026   1.640  0.0218  0.0187  0.2319
29816W        W45285   2.756   8.344   0.273  0.0535  0.3328  0.1703
29817W        W45286   6.826   0.462  14.574  0.3035  0.2012 -0.1909
29818W        W45287  14.629   6.936  14.633 -0.2720  0.0389  0.1767
29819W        W45288  16.327  13.598  14.048  0.2009  0.2485  0.0126
29820W        W45289   0.373   6.967  16.069  0.0195 -0.1536 -0.4601
29821W        W45290   9.625  13.773   2.439  0.1417 -0.0358  0.2811
29822W        W45291   9.569  14.286   5.631  0.0662  0.4846  0.2345
29823W        W45292  17.425   3.034  11.562  0.1479 -0.1565 -0.0465
29824W        W45293  16.349   9.024   1.662 -0.3413 -0.1154 -0.0309
29825W        W45294  16.647  12.091  10.787 -0.0855  0.2123 -0.4197
29826W        W45295  17.499  10.484  14.686  0.0019  0.1557  0.0516
29827W        W45296  15.617  14.449  11.820  0.0114  0.1325 -0.0089
29828W        W45297   3.467   6.357   2.182 -0.0301 -0.2490 -0.1901
29829W        W45298   5.643  16.402   3.395  0.0250 -0.0224  0.1011
29830W        W45299   3.949  16.185   0.119  0.1611  0.0042 -0.0470
29831W        W45300   5.192  11.837  13.842  0.1560 -0.2034  0.2145
29832W        W45301  15.107   8.413   2.778  0.1193 -0.2811 -0.0625
29833W        W45302   3.697   0.363   4.174 -0.1358 -0.1773 -0.1815
29834W        W45303   9.021  15.323   3.506  0.0106 -0.2107 -0.1735
29835W        W45304  10.021   6.294  11.275  0.1385  0.1869 -0.3853
29836W        W45305  17.394   9.380  15.282  0.1051 -0.0161  0.3513
29837W        W45306  16.859   4.925  14.752  0.0672  0.1052  0.2092
29838W        W45307  13.257  15.508  13.617  0.0784 -0.0670 -0.2457
29839W        W45308  17.878   5.793  10.892  0.0952  0.2394  0.2206
29840W        W45309   8.844   5.877  12.924  0.0719 -0.0430 -0.0204
29841W        W45310   9.535   5.465  12.884  0.1819  0.1110  0.3109
29842W        W45311  11.659   5.206   4.665 -0.0815  0.0954  0.1537
29843W        W45312  10.761  11.066  13.528  0.1623 -0.0220  0.1892
29844W        W45313  16.138  16.288   4.314  0.0422 -0.2202  0.3608
29845W        W45314   6.337  11.574   0.661 -0.0184 -0.2916 -0.0152
29846W        W45315  12.047  15.285   2.032 -0.1069 -0.2095  0.1330
29847W        W45316   3.597   0.839   6.277 -0.0324  0.1132 -0.3521
29848W        W45317  12.932   6.162  10.935  0.1160  0.0808  0.2219
29849W        W45318   1.272   4.956  14.741 -0.0394  0.2206 -0.2874
29850W        W45319   8.470   4.358   1.021 -0.3277  0.0829  0.0577
29851W        W45320   7.519   2.176   3.677 -0.2320  0.2110 -0.1324
29852W        W45321  12.045   4.988   1.476 -0.1410 -0.2045  0.1402
29853W        W45322   9.399   7.272  12.012 -0.2892 -0.0697 -0.1287
29854W        W45323  12.221   7.954   2.494 -0.1272  0.0785 -0.1677
29855W        W45324   6.816  16.509  13.156 -0.0535 -0.3376  0.3297
29856W        W45325  14.419   4.850  14.474  0.0839 -0.0376  0.2351
29857W        W45326   4.838  11.413   3.109  0.4003  0.0424 -0.0397
29858W        W45327   2.690   2.633   1.480  0.2360  0.2106 -0.1151
29859W        W45328  13.050  14.491   1.977 -0.3006  0.0240 -0.0269
29860W        W45329   3.837  11.863  13.678  0.2133  0.1990  0.0563
29861W        W45330   9.871   6.223   5.016 -0.0154  0.0676 -0.1428
29862W        W45331  10.565   5.471  14.207 -0.0909  0.0569  0.1037
29863W        W45332   4.179   3.484  13.362  0.1290 -0.1205 -0.0364
29864W        W45333  13.922  14.628   2.859 -0.0748 -0.2849  0.0974
29865W        W45334   5.972  10.716  14.607 -0.0531  0.1516 -0.0833
29866W        W45335   7.107  10.218   4.099 -0.0068 -0.0967  0.0044
29867W        W45336  17.646  14.255   3.578 -0.1156  0.4037  0.0198
29868W        W45337  12.208   9.685  13.652  0.1716  0.0408 -0.0927
29869W        W45338   2.053   2.889   5.064 -0.1404  0.0070 -0.0222
29870W        W45339  10.158  14.781   2.925 -0.0344  0.2371  0.0650
29871W        W45340  10.796  13.215   4.901  0.2273  0.0220  0.0970
29872W        W45341  15.898   9.185   1.374  0.1603 -0.1939 -0.0637
29873W        W45342   8.983  12.063   2.553 -0.2527  0.1849  0.1868
29874W        W45343   7.939   1.979  14.852 -0.3496 -0.0434 -0.1631
29875W        W45344   9.557   0.216   4.324 -0.3762 -0.1033 -0.0655
29876W        W45345   3.385   3.381  13.395 -0.4486 -0.0061 -0.0891
29877W        W45346   5.774   3.493   5.343 -0.0037  0.2149 -0.1063
29878W        W45347  16.253  14.221  14.774 -0.0555 -0.1353 -0.1347
29879W        W45348   6.463   1.736  12.566  0.2837  0.2786  0.0926
29880W        W45349  13.571   8.123  13.081  0.0109 -0.0283  0.0216
29881W        W45350  14.404   0.554  14.124 -0.2391  0.0662  0.1599
29882W        W45351   2.643   9.968  11.461  0.0096  0.2357 -0.0218
29883W        W45352   4.394  11.019  12.325  0.0472  0.0371 -0.1997
29884W        W45353  14.655  14.600   0.811  0.0315 -0.5295  0.3867
29885W        W45354  10.103   5.204  11.965  0.0087  0.0443  0.0766
29886W        W45355   6.867   5.092   1.976  0.3962 -0.0466 -0.1051
29887W        W45356  16.090  11.485   5.389 -0.0075  0.1154  0.0850
29888W        W45357   8.513   1.294  13.791  0.2308 -0.1117 -0.1641
29889W        W45358   6.933  13.954   4.982 -0.3902  0.1951 -0.1769
29890W        W45359   8.722   4.711   4.281  0.1386  0.1976 -0.0337
29891W        W45360   6.447   8.335   5.656  0.3579 -0.0938  0.1135
29892W        W45361   9.213   3.424  14.643  0.0454  0.0269  0.0987
29893W        W45362  12.914  14.746  14.092  0.0225 -0.0468 -0.0176
29894W        W45363   8.548   0.205  13.610 -0.2460  0.3730  0.0980
29895W        W45364   6.851  11.752  12.722  0.0781 -0.1389  0.2340
29896W        W45365  15.674  13.639  13.788  0.1609 -0.1695 -0.0880
29897W        W45366   8.289  17.083  11.044 -0.3188 -0.0975  0.0649
29898W        W45367   9.365   9.221  14.221 -0.1579  0.2126 -0.0631
29899W        W45368   1.038  15.682   3.678  0.2526 -0.2740 -0.2095
29900W        W45369  14.149   9.591   0.849  0.1389 -0.1183  0.0063
29901W        W45370   5.141   2.188   5.029 -0.1799 -0.2624  0.0883
29902W        W45371  16.334  13.186  14.381  0.0326 -0.0174 -0.3995
29903W        W45372   5.305   6.129   4.318 -0.2354  0.1800  0.1647
29904W        W45373   3.953   4.556   5.309  0.2336 -0.3004 -0.0351
29905W        W45374   6.738  10.301  10.919  0.2696 -0.0191  0.1370
29906W        W45375  10.307  11.850   3.175 -0.1488  0.1000  0.1264
29907W        W45376   6.914  16.059  13.080  0.1185  0.1185 -0.1850
29908W        W45377  16.840   0.098   3.651  0.1817  0.1224  0.1612
29909W        W45378   5.701  10.665   5.060 -0.0815  0.2298 -0.2361
29910W        W45379  14.721   5.187  12.387 -0.2641  0.4429  0.1882
29911W        W45380   8.260   4.814  12.133  0.1703 -0.3283 -0.0898
29912W        W45381  15.562  15.376  13.220 -0.0696  0.0282 -0.0415
29913W        W45382  10.865  10.153  13.639 -0.2480  0.1548  0.0395
29914W        W45383  11.039   1.839  11.743  0.1168  0.1206  0.0791
29915W        W45384  16.646   4.894  11.961 -0.0931 -0.0210  0.2771
29916W        W45385  12.859  17.337   4.381  0.2637 -0.1512 -0.2705
29917W        W45386   1.319  11.547   4.742  0.2044 -0.3992 -0.2530
29918W        W45387   7.212   3.170  12.232  0.2306 -0.0810  0.1949
29919W        W45388  16.913   9.845   3.778  0.2564 -0.1807 -0.0256
29920W        W45389   3.888  10.247   1.111 -0.0166  0.4325  0.0343
29921W        W45390  16.853  11.412   1.232  0.1124  0.2206 -0.1429
29922W        W45391  11.245  13.123   4.536 -0.1252 -0.1222  0.1677
29923W        W45392   2.327  10.042  13.504  0.1031 -0.2710 -0.0179
29924W        W45393   2.120   2.275  11.094  0.2640  0.0181  0.1532
29925W        W45394   2.047  11.798   2.206  0.4400 -0.2423  0.2603
29926W        W45395  15.440  15.932   4.949  0.0393 -0.0425  0.4389
29927W        W45396   4.985   2.678   0.437  0.1125 -0.2980 -0.0177
29928W        W45397   2.509   8.307  14.846  0.1818  0.1645  0.4073
29929W        W45398  16.676  15.481  15.827  0.4195  0.0713 -0.0153
29930W        W45399  16.747   7.790  14.007 -0.1460 -0.1723 -0.0426
29931W        W45400   4.505  14.513  13.850 -0.1305  0.2489 -0.1539
29932W        W45401   8.844  16.555  14.349 -0.3026 -0.1500  0.0163
29933W        W45402   9.670   3.202   1.780  0.1461 -0.2063 -0.3266
29934W        W45403   9.784   1.069  12.586 -0.2791  0.1067  0.2669
29935W        W45404   5.264   3.410   0.699  0.0502 -0.0146 -0.0431
29936W        W45405  15.950  16.426  14.700 -0.3330 -0.1097  0.3270
29937W        W45406   9.853   1.224   1.879  0.0984  0.2247  0.2369
29938W        W45407   8.675   5.462  13.811  0.1431 -0.1739 -0.2544
29939W        W45408  12.652   7.322   2.328  0.0660 -0.2754 -0.2798
29940W        W45409   8.147   2.254  15.716 -0.2097  0.2147  0.0240
29941W        W45410   0.880  16.858  12.597 -0.1681 -0.0598  0.0828
29942W        W45411  16.891  11.316   5.903  0.1102 -0.3891 -0.3822
29943W        W45412   1.656   0.372   1.529 -0.0599 -0.1751 -0.0610
29944W        W45413  14.998   6.500  11.538  0.1164 -0.0607  0.1006
29945W        W45414   8.807  17.049  14.072 -0.3495  0.1254  0.0591
29946W        W45415   0.230  17.927  14.449 -0.1542  0.0085 -0.0305
29947W        W45416  12.629   8.894  13.216  0.0886 -0.1454 -0.0651
29948W        W45417  16.775  14.427  13.307  0.2735 -0.0131  0.0036
29949W        W45418   4.472   1.477   0.028  0.0049 -0.1082  0.0084
29950W        W45419  10.881  15.831   5.527 -0.0349  0.1382 -0.0759
29951W        W45420   9.123  14.779  15.782  0.1310 -0.1625 -0.0099
29952W        W45421  16.818   5.819  11.304 -0.2425  0.0075  0.2379
29953W        W45422  15.162   8.318  12.247  0.3460 -0.0858  0.0532
29954W        W45423  13.232   7.860   4.529  0.1297 -0.0922  0.3025
29955W        W45424   6.304  14.774  15.674 -0.0946 -0.1194  0.1445
29956W        W45425  12.826  14.973  14.961 -0.1093  0.0083  0.1925
29957W        W45426   9.110  13.938   6.106 -0.0527  0.3175 -0.0187
29958W        W45427  13.966   5.552  12.493  0.1738 -0.2938  0.0115
29959W        W45428  12.715   5.057  12.704  0.1476  0.0912 -0.0203
29960W        W45429   8.599  16.223  12.082  0.0666  0.2150 -0.0088
29961W        W45430   1.780   1.741  13.639 -0.2148 -0.2294 -0.0236
29962W        W45431  13.187   5.135   0.152  0.2066 -0.0983  0.1901
29963W        W45432  10.656  13.031   4.318  0.0826 -0.0126 -0.0222
29964W        W45433  13.408   3.883  12.410 -0.1541 -0.0339  0.0138
29965W        W45434  11.490  14.170   4.465  0.0021 -0.0174 -0.0794
29966W        W45435  14.902   9.981   0.105 -0.0088  0.1446  0.2093
29967W        W45436   3.377  10.665  14.449 -0.1274  0.2062 -0.0067
29968W        W45437   5.576  11.479   4.180 -0.1918 -0.3549 -0.1755
29969W        W45438   9.621   2.707  12.336  0.3639 -0.1043  0.1054
29970W        W45439   2.828   6.351   1.040  0.0600 -0.1984 -0.0764
29971W        W45440  16.272   9.059  12.082 -0.0134 -0.0166  0.0235
29972W        W45441   5.202   4.448   1.233 -0.0464  0.2011  0.2758
29973W        W45442  15.161  11.255  10.946  0.0650  0.0559  0.0529
29974W        W45443  14.822  15.979   0.641 -0.3049 -0.1167 -0.0815
29975W        W45444   3.086   6.669   1.614  0.1277  0.0657 -0.0679
29976W        W45445  13.504   3.057   0.182 -0.0477 -0.0479 -0.0413
29977W        W45446  13.524  14.202  15.969 -0.2225  0.0012  0.0246
29978W        W45447   5.627  11.080  15.109 -0.0144 -0.3641 -0.1201
29979W        W45448   9.455   1.552   4.320  0.1892 -0.0698 -0.0400
29980W        W45449  16.052  12.436   3.436 -0.1886 -0.0933  0.1480
29981W        W45450  10.576  16.384  13.392 -0.1069 -0.0071  0.0467
29982W        W45451   7.053  14.825  14.402 -0.4872 -0.0725 -0.0064
29983W        W45452   4.209  14.140   5.594  0.1717  0.0365  0.0609
29984W        W45453   0.656   7.415   2.105 -0.3842  0.0074  0.0770
29985W        W45454   4.497   3.599   0.223 -0.1389 -0.0009  0.0167
29986W        W45455   5.399  15.123  13.937 -0.1860  0.2646 -0.2277
29987W        W45456  11.785  15.606  13.674 -0.3251 -0.0074  0.1836
29988W        W45457   2.654   9.534   5.492  0.0529 -0.1112  0.0203
29989W        W45458   4.054  12.869  14.951 -0.0616  0.1475  0.2578
29990W        W45459  10.244   1.899  12.458  0.0371 -0.2656  0.0826
29991W        W45460   6.529   2.437  15.149 -0.0468 -0.0783 -0.1657
29992W        W45461  13.198  15.903   6.191  0.2653  0.0947  0.1038
29993W        W45462   2.661  14.404  13.181  0.2304 -0.1964  0.0967
29994W        W45463   0.168   8.351  15.185  0.2447 -0.1178  0.2329
29995W        W45464   1.871   3.352   4.437  0.1355 -0.0055 -0.0991
29996W        W45465   8.826  11.241  12.133 -0.1386  0.0560 -0.0754
29997W        W45466  11.940   1.974   1.167 -0.1234 -0.2155  0.2112
29998W        W45467   2.511  13.450   5.867  0.1580 -0.1788 -0.0880
29999W        W45468   7.851  11.112  13.422  0.0549 -0.2672  0.3009
30000W        W45469   7.316   3.730  12.864 -0.0141 -0.0220  0.0141
30001W        W45470   7.293  10.331  13.274  0.0365 -0.0225  0.0260
30002W        W45471   1.942  12.432   0.751  0.0680  0.0042  0.0981
30003W        W45472   7.677  17.963   2.949 -0.4226 -0.1997  0.1546
30004W        W45473  14.513   5.967  11.919 -0.0601  0.2535 -0.1275
30005W        W45474  10.356  17.970  14.723  0.0137 -0.0374  0.0018
30006W        W45475  14.395   4.294   4.884 -0.2221 -0.1698  0.1259
30007W        W45476  10.439  13.959  12.051 -0.1982  0.1734 -0.0763
30008W        W45477  14.554   1.856  15.383  0.2902  0.1027 -0.1267
30009W        W45478   0.047  15.724   4.244 -0.1184 -0.0059 -0.0966
30010W        W45479   8.094   9.629   4.921  0.2399  0.0335 -0.1833
30011W        W45480  17.573   0.764   4.396  0.0784 -0.4148  0.1166
30012W        W45481   0.564  16.147   0.206  0.0130  0.2658  0.1643
30013W        W45482  12.397  10.038   4.722  0.0316  0.1046 -0.2229
30014W        W45483   8.055   1.469   4.351  0.2385 -0.1382  0.1162
30015W        W45484   1.168   8.084  16.424  0.1020 -0.2784 -0.0200
30016W        W45485   6.816  10.587   0.962  0.0979  0.1369  0.1243
30017W        W45486   8.056  10.712   0.313 -0.0522  0.2355  0.1186
30018W        W45487   5.840   0.035   4.106  0.0444  0.1271 -0.1837
30019W        W45488  15.047  14.597  12.931 -0.2240  0.0712  0.4468
30020W        W45489  12.100  16.926   2.545  0.0448  0.0444 -0.1056
30021W        W45490  17.331  10.524  13.769 -0.1853  0.1032 -0.1032
30022W        W45491  15.141   7.071  10.728 -0.1927  0.0315  0.2643
30023W        W45492   3.064   0.089   5.342  0.0196  0.1434 -0.0014
30024W        W45493   6.100   0.710  11.648  0.0163 -0.0100  0.1211
30025W        W45494   1.618   4.096   0.222  0.2097  0.1288 -0.2698
30026W        W45495  10.978   5.836   4.203  0.1618 -0.0386 -0.1131
30027W        W45496   3.612  13.235   4.818 -0.0497 -0.0547 -0.1988
30028W        W45497  12.061   4.419  14.809  0.3213 -0.0004 -0.0947
30029W        W45498  10.254   0.794  14.652 -0.0513  0.2129 -0.0678
30030W        W45499   5.622   3.353  16.516  0.2280 -0.0782  0.0219
30031W        W45500  12.588   3.412  14.746 -0.3446  0.0703  0.1012
30032W        W45501  14.279  10.441  10.989  0.1022  0.0744 -0.2028
30033W        W45502   2.945   1.215   0.180  0.0816  0.1104 -0.0337
30034W        W45503   9.764  13.078   3.853  0.0571  0.0175 -0.1750
30035W        W45504   0.260  10.583   2.790 -0.0170 -0.0016 -0.2405
30036W        W45505  16.127  11.354  12.859 -0.0643 -0.1572 -0.2220
30037W        W45506  15.543   0.646  12.052  0.0032  0.1486 -0.2062
30038W        W45507  14.265  10.527  15.054  0.1442 -0.0131  0.0655
30039W        W45508   9.484  17.791   5.476 -0.0304  0.0731 -0.3445
30040W        W45509   7.459  11.349  11.279  0.0472  0.1168  0.2591
30041W        W45510  12.558   8.534  15.480  0.0246  0.3462  0.3728
30042W        W45511  12.457   5.672   0.858 -0.1646  0.0158  0.0262
30043W        W45512  10.090   5.309  11.073  0.1673  0.0885 -0.1146
30044W        W45513  12.179  15.554  15.625 -0.0102 -0.0822 -0.0242
30045W        W45514   3.881  16.633   5.416 -0.2639 -0.1100  0.1176
30046W        W45515  17.183   9.404   4.816 -0.0779  0.1126 -0.0652
30047W        W45516   9.465   6.597  12.365  0.1889  0.1457  0.3012
30048W        W45517  13.658   3.044   4.672 -0.2464  0.2270  0.3961
30049W        W45518  17.248   1.986  12.510  0.1356 -0.1455 -0.2445
30050W        W45519   5.699   7.339   5.057 -0.0766  0.0156  0.0935
30051W        W45520   2.010   8.423   1.860  0.2736 -0.0212 -0.0922
30052W        W45521   7.815   2.108  15.339 -0.1724  0.0615  0.0757
30053W        W45522  14.605   7.772   1.617  0.0199  0.1743  0.4967
30054W        W45523   9.565  13.567   1.875  0.1022  0.3832 -0.2101
30055W        W45524   7.472   5.596   3.196  0.0725 -0.0755 -0.1008
30056W        W45525  14.368  10.539  14.265 -0.0201 -0.0375  0.1551
30057W        W45526   6.491  11.908  13.061  0.1631 -0.0964 -0.2178
30058W        W45527  15.920  12.259   3.881  0.0599  0.0884 -0.2029
30059W        W45528   0.899   3.370  13.530 -0.1766  0.2345 -0.2797
30060W        W45529   4.806   7.860  12.446  0.0789 -0.5464  0.0288
30061W        W45530   0.285   6.176   1.445 -0.2556 -0.2965  0.0799
30062W        W45531   8.352   5.752   2.304 -0.3074 -0.1174  0.0087
30063W        W45532  17.438   9.876  13.007  0.0247  0.0277 -0.0126
30064W        W45533   6.618   4.804   2.314 -0.0853  0.3414 -0.1804
30065W        W45534   3.292   0.004  14.011  0.1192 -0.2086 -0.0593
30066W        W45535  14.414   4.601  13.225  0.1914  0.0589  0.2480
30067W        W45536   0.908   1.518   2.401 -0.0870  0.1212 -0.1232
30068W        W45537   0.484   0.275   4.417  0.0501 -0.1374  0.1667
30069W        W45538   8.952  11.765   2.118  0.0168  0.0164 -0.1095
30070W        W45539   6.100   4.129  14.987  0.3907 -0.0142 -0.4843
30071W        W45540   4.833  14.984   2.109  0.2483 -0.3837 -0.0879
30072W        W45541  13.856   8.255  15.708 -0.0588  0.3373 -0.2978
30073W        W45542   6.270  14.627  11.930  0.3130  0.0730 -0.0378
30074W        W45543  15.032  12.439   0.875  0.0593  0.1160 -0.4873
30075W        W45544   5.469  13.256  15.761  0.0955 -0.1466  0.2426
30076W        W45545   8.053   6.334   0.843 -0.0607 -0.1953  0.0107
30077W        W45546   3.610   8.826  12.268  0.0034 -0.1867 -0.0989
30078W        W45547   5.323  16.230  13.067  0.0797 -0.1229 -0.1708
30079W        W45548   1.798   9.234  12.946  0.2445  0.1386 -0.3753
30080W        W45549  11.436   0.910   2.882  0.2145 -0.0057 -0.0797
30081W        W45550   4.571  11.135   0.148  0.0671 -0.1398  0.1591
30082W        W45551   3.581   6.717   3.137 -0.0850 -0.0795 -0.4135
30083W        W45552   5.542   9.677   2.987  0.0249 -0.3720 -0.2087
30084W        W45553   9.942   5.247  12.402  0.0886  0.0939  0.1455
30085W        W45554   3.346   1.865  16.203  0.1649 -0.2701  0.3868
30086W        W45555   4.153   9.421   0.347 -0.2551 -0.1401 -0.0087
30087W        W45556  17.048  10.240   0.946 -0.1353  0.1346  0.0782
30088W        W45557   6.540   9.943   1.476  0.0993 -0.0418  0.1062
30089W        W45558   2.761   2.479  16.238  0.0013  0.0189  0.1532
30090W        W45559   7.026   4.035  14.178  0.2282  0.2207 -0.0807
30091W        W45560  14.589   6.745   4.299 -0.1891 -0.0174  0.0713
30092W        W45561   3.531   4.724  12.261  0.3998 -0.2107 -0.2033
30093W        W45562  16.719   6.392   0.322 -0.1411 -0.3020 -0.0482
30094W        W45563  13.642   4.653   3.029 -0.2868 -0.1119  0.0742
30095W        W45564  14.321   5.483  10.777  0.0757  0.2761 -0.0630
30096W        W45565   4.253  15.384  14.267  0.1310  0.1438 -0.0740
30097W        W45566  14.143   4.411   3.541 -0.0242 -0.0105 -0.1340
30098W        W45567  10.370   3.414  14.939  0.2459  0.1787  0.0552
30099W        W45568  16.776  15.382   5.083 -0.1374  0.3830 -0.0425
30100W        W45569  12.639   5.261   2.302 -0.2076  0.0122 -0.0354
30101W        W45570  14.332  14.425   4.913  0.0134 -0.0740 -0.1908
30102W        W45571  17.039   2.169   1.795  0.0548  0.0774 -0.1965
30103W        W45572  12.879  13.402  14.487 -0.0682 -0.2203 -0.0300
30104W        W45573   7.300  10.095   4.562 -0.0788  0.1099  0.1829
30105W        W45574   1.250  11.604  11.758  0.0684 -0.0267 -0.0708
30106W        W45575  11.026   0.635   2.709  0.1324 -0.2042  0.2362
30107W        W45576   0.401  16.259   0.851 -0.2106  0.1958 -0.0174
30108W        W45577  14.819  10.537   5.126 -0.0049  0.1008  0.0600
30109W        W45578   5.166   1.681   2.364 -0.1077 -0.2266  0.2351
30110W        W45579  17.551   1.052  13.714  0.0323 -0.1929 -0.2230
30111W        W45580  13.226  17.409  13.367 -0.2098  0.1823 -0.0868
30112W        W45581   6.380   2.246   1.550  0.2309  0.2041  0.1138
30113W        W45582   5.630   1.586  14.680  0.0319  0.1763 -0.1449
30114W        W45583  11.660  13.564   3.355  0.3237 -0.0603  0.2124
30115W        W45584   2.594  11.309   4.532  0.2702  0.0229 -0.1674
30116W        W45585  16.737   3.132  11.901  0.1533 -0.4337  0.2695
30117W        W45586   9.498   8.226   2.557 -0.1999  0.2991 -0.1470
30118W        W45587  15.740   9.688  13.634  0.0146  0.1718  0.0259
30119W        W45588   8.020   7.649   3.682  0.1041  0.0842 -0.1565
30120W        W45589   4.068   2.005  12.772  0.0810 -0.0553 -0.1847
30121W        W45590   0.954   3.690  11.341  0.2577 -0.2972  0.1158
30122W        W45591   1.629  14.358  13.963  0.2020  0.1185  0.1294
30123W        W45592   0.340  10.069  13.851 -0.2092  0.1142 -0.1509
30124W        W45593  17.217   3.054  13.953  0.0424  0.0172 -0.0907
30125W        W45594  14.651   5.850  14.422 -0.2025  0.2399  0.2232
30126W        W45595  17.310  11.722   4.464  0.1215 -0.4612 -0.2018
30127W        W45596  13.196  12.022  15.614 -0.4218 -0.0677  0.2969
30128W        W45597   7.621   5.369  12.528 -0.2168  0.1376 -0.3042
30129W        W45598   8.447   8.331  13.413  0.0910 -0.0249 -0.3491
30130W        W45599   0.081   3.807  12.320 -0.0017 -0.3453 -0.4040
30131W        W45600  15.127  10.190   4.334  0.1544  0.0476 -0.1139
30132W        W45601  11.696   5.876   3.672  0.2994  0.1750 -0.0562
30133W        W45602   9.273   9.720  11.433 -0.2772 -0.2798 -0.2753
30134W        W45603  15.666   4.386   3.583  0.2176 -0.3018 -0.3359
30135W        W45604  12.161  12.869   5.029 -0.4194 -0.3153 -0.0898
30136W        W45605  12.722   3.629  16.515  0.4202  0.1538 -0.0481
30137W        W45606   8.710   8.193   3.250  0.2183  0.1522 -0.0683
30138W        W45607  15.776   9.641   1.368  0.0675 -0.3238  0.0322
30139W        W45608   8.790   3.548  14.420  0.1002 -0.1347  0.0490
30140W        W45609  13.775   6.541   4.729  0.1733  0.0564 -0.1256
30141W        W45610  12.776  14.881  15.489  0.1281  0.0650 -0.4593
30142W        W45611  10.175   7.088   3.093  0.2078  0.0939 -0.1340
30143W        W45612   6.622   2.266  13.262  0.2614  0.2922 -0.1703
30144W        W45613   4.483  17.240  16.002 -0.1834 -0.0920 -0.1024
30145W        W45614   2.694  13.888  13.941  0.1245 -0.0955  0.2044
30146W        W45615  12.713  12.861  15.553 -0.1494 -0.3266 -0.1491
30147W        W45616  14.460   8.944   4.207 -0.1117 -0.3102 -0.1293
30148W        W45617   4.452   4.289  11.831 -0.4091  0.1066 -0.3114
30149W        W45618  12.966   6.255   0.350 -0.0815 -0.0458  0.0581
30150W        W45619  17.165   6.112  11.683 -0.1349  0.0984  0.2680
30151W        W45620   2.243  12.315   2.064  0.0115 -0.0869 -0.4695
30152W        W45621   3.818  12.922   3.030 -0.1946  0.1514  0.0666
30153W        W45622  13.243   6.480   3.411 -0.1057  0.0067 -0.2915
30154W        W45623   4.332   7.448   2.202 -0.1162 -0.1136  0.0208
30155W        W45624  10.269   8.715   1.977 -0.0499  0.0450 -0.2245
30156W        W45625   8.433  15.417   0.095 -0.1766 -0.1608  0.1669
30157W        W45626   2.503   8.351   1.640 -0.1928 -0.0079  0.3747
30158W        W45627   6.313  14.334   0.578  0.4220  0.1351  0.1499
30159W        W45628   1.565   0.905   1.328  0.1620 -0.1631  0.3695
30160W        W45629  13.304   7.329   1.840 -0.1438 -0.1069  0.3034
30161W        W45630   6.364   3.096  13.468  0.2525 -0.0876 -0.1638
30162W        W45631  14.054   0.698  13.768  0.1838 -0.1359 -0.2195
30163W        W45632   7.200  16.546  16.179  0.0423  0.0704 -0.1562
30164W        W45633   1.044  14.316   5.705  0.2212  0.1177 -0.0492
30165W        W45634   9.280   2.299  12.645 -0.1491 -0.1570 -0.0153
30166W        W45635   5.047  13.067   5.873  0.0327  0.0190 -0.0213
30167W        W45636  10.253   7.975  12.649 -0.4341 -0.1022  0.1711
30168W        W45637   3.017   1.806   5.243  0.0586 -0.0590  0.0974
30169W        W45638   4.038  12.136   1.675 -0.0933  0.0554 -0.3175
30170W        W45639  10.029  13.267   5.586 -0.0355 -0.1318 -0.0696
30171W        W45640   7.223   0.146   4.666  0.1715 -0.0162  0.3763
30172W        W45641  16.076  17.142  12.861 -0.1083  0.0423 -0.1829
30173W        W45642   1.141  10.092  14.899 -0.0636  0.0677 -0.0375
30174W        W45643  10.245   3.746   4.599  0.0736  0.2386 -0.1188
30175W        W45644  14.735  10.680   0.712 -0.1293 -0.0874 -0.1893
30176W        W45645   5.321  10.353  15.800 -0.0514  0.1847 -0.1882
30177W        W45646   0.974  14.205  15.061 -0.2525 -0.0966  0.0744
30178W        W45647  10.076   2.579   0.639 -0.0856  0.2727  0.0267
30179W        W45648   3.984   0.644   5.543  0.4366 -0.1501 -0.1671
30180W        W45649  14.351   5.872   5.787 -0.0739 -0.0498  0.0279
30181W        W45650  15.838  11.477   2.187  0.2900 -0.0237 -0.0389
30182W        W45651  13.170   7.840  11.798 -0.0124 -0.0013 -0.2776
30183W        W45652   8.723  11.954   5.208  0.6084  0.0438  0.1042
30184W        W45653   2.885   3.637   1.902 -0.1007  0.0932  0.2476
30185W        W45654  13.550   3.346  13.132  0.3099 -0.0253 -0.0316
30186W        W45655   1.616  13.405   0.105  0.3906  0.0974 -0.1601
30187W        W45656   9.597  13.426  11.654  0.2558  0.0551  0.0854
30188W        W45657  10.985   2.628   0.454 -0.0111 -0.2017  0.0067
30189W        W45658   0.943   9.911   5.197  0.0745  0.1927 -0.0817
30190W        W45659  15.824   4.699   4.042 -0.1023 -0.0751  0.2416
30191W        W45660  13.602   5.937  12.404  0.2752  0.2507  0.3863
30192W        W45661   3.077   8.491   4.475 -0.2520 -0.1228  0.0852
30193W        W45662  15.886   4.598   0.280 -0.1353 -0.0963 -0.3106
30194W        W45663   6.800   4.228   0.711 -0.1010 -0.2498 -0.0981
30195W        W45664   2.043   0.143   2.980 -0.0558  0.0507 -0.3901
30196W        W45665   6.664   3.526   2.903 -0.4843  0.3776 -0.0279
30197W        W45666   4.847   6.484   4.605 -0.3012  0.1887 -0.0721
30198W        W45667  11.246   1.024   1.726  0.1118  0.0407  0.0346
30199W        W45668   6.584   3.042   2.039  0.2703  0.5025 -0.0006
30200W        W45669   2.695   4.940  16.596  0.2507 -0.0906  0.0178
30201W        W45670   4.065   1.988   4.738 -0.0057 -0.1466 -0.1039
30202W        W45671  16.203  10.096  15.329 -0.4553  0.2192  0.1303
30203W        W45672  14.197   5.936   0.805 -0.2186 -0.0685  0.0962
30204W        W45673  11.523   4.260  14.880  0.0734 -0.3178  0.3321
30205W        W45674   3.692   7.562  14.032 -0.0102 -0.0803 -0.1464
30206W        W45675   1.836   5.184  12.854 -0.1639 -0.0397 -0.1749
30207W        W45676   4.062  12.807  10.441  0.0102 -0.0670 -0.0769
30208W        W45677   9.423   7.454   3.549  0.3168 -0.2922  0.2647
30209W        W45678  15.456   6.817   2.161 -0.1543  0.2707 -0.0862
30210W        W45679   8.441   4.239  14.876  0.0452  0.2349 -0.0865
30211W        W45680  10.244  11.077  13.638 -0.1713  0.1176 -0.1423
30212W        W45681   5.482   2.685  13.264  0.0356  0.1100  0.2343
30213W        W45682  15.916  10.473  13.077 -0.0139  0.1896  0.0177
30214W        W45683  16.037  13.795   4.055  0.2843 -0.0408  0.0477
30215W        W45684   6.980  17.434   5.301 -0.0865 -0.0731 -0.0264
30216W        W45685  14.817  13.162   2.842 -0.2427 -0.1261  0.1192
30217W        W45686  16.259  11.962  16.042 -0.2564 -0.0818 -0.1286
30218W        W45687  11.764   1.794   3.449 -0.1475 -0.1077  0.1192
30219W        W45688   3.403   4.393   3.411 -0.0292  0.0010 -0.2735
30220W        W45689  10.441  16.013   3.726  0.1710 -0.0159 -0.0200
30221W        W45690   1.874  10.223   3.029  0.1995 -0.3511 -0.0964
30222W        W45691   1.485   7.363   2.310 -0.5398 -0.0859  0.0870
30223W        W45692   5.477  13.862   5.211 -0.1404  0.0635 -0.2509
30224W        W45693   7.632  17.617   0.372  0.0027 -0.1378 -0.1364
30225W        W45694  13.731   8.287  12.604 -0.4510  0.2114  0.0647
30226W        W45695   7.635  14.621   1.067  0.0325 -0.3140 -0.1563
30227W        W45696   9.940   2.004   3.718  0.4176 -0.2603 -0.0724
30228W        W45697  16.345   3.842   3.324 -0.3975 -0.0756 -0.1725
30229W        W45698  16.501  16.068   6.071 -0.0950 -0.0213 -0.2522
30230W        W45699  12.537   7.397   0.815 -0.0803 -0.1733 -0.0167
30231W        W45700  12.236  13.866  16.071  0.2798  0.0425  0.2455
30232W        W45701   4.081   7.717   0.356  0.1300 -0.0396  0.2058
30233W        W45702  14.824   5.107   2.536  0.2485 -0.1061  0.3285
30234W        W45703  11.609   2.560   2.116  0.0242 -0.3796 -0.0747
30235W        W45704  15.799   6.420   5.221  0.0703 -0.1095  0.1424
30236W        W45705  10.372  14.479  14.250 -0.3691  0.2774 -0.1091
30237W        W45706  11.002  11.008  15.125  0.0199  0.1119  0.1046
30238W        W45707  11.646  15.160   2.504  0.3506  0.1734 -0.1780
30239W        W45708   4.658   9.972  15.246 -0.1489  0.1944 -0.1219
30240W        W45709  14.840   1.695   3.429  0.2594  0.3009  0.0046
30241W        W45710   5.006   2.737  14.671 -0.1779  0.1653  0.0544
30242W        W45711   1.346  10.523  16.319  0.0087  0.1720 -0.2168
30243W        W45712  16.455   2.720   0.216  0.0089  0.4082 -0.2423
30244W        W45713  16.247   6.993  13.307  0.0007  0.1640 -0.4244
30245W        W45714  15.583   9.558  16.205  0.2792  0.1171 -0.0779
30246W        W45715   1.369  16.236   0.802  0.0563  0.0977  0.0015
30247W        W45716   5.498  14.844   3.647 -0.2267  0.1077 -0.0489
30248W        W45717   3.517   9.351   1.604 -0.1217  0.0004  0.2266
30249W        W45718   5.975  10.835   3.248 -0.1086  0.0693  0.2934
30250W        W45719  14.871  11.573   0.434 -0.0478 -0.1039 -0.2731
30251W        W45720  11.777   5.514  12.243  0.0025  0.1829 -0.1147
30252W        W45721   9.343   3.465  16.503 -0.0766  0.1113  0.0822
30253W        W45722   5.306  11.297  10.597 -0.0873 -0.2711  0.0273
30254W        W45723   6.513  11.987   0.268  0.0512  0.0048 -0.3566
30255W        W45724   4.234  10.267  15.198 -0.1378  0.0904 -0.1219
30256W        W45725   1.762   3.692   4.836 -0.2215 -0.3093 -0.0745
30257W        W45726   4.488   8.682  12.909  0.1810 -0.2005  0.0418
30258W        W45727   7.882   7.023   4.320  0.2604 -0.0937  0.4420
30259W        W45728   6.232   6.148   4.669 -0.3445  0.0040 -0.0838
30260W        W45729   2.183   3.388  12.481 -0.1461 -0.1301 -0.1639
30261W        W45730   7.975  14.344  16.515 -0.0297 -0.1540 -0.0185
30262W        W45731   9.390   5.439  14.359 -0.0814 -0.2416 -0.3504
30263W        W45732  13.278   5.795  11.982  0.0380  0.0052 -0.1246
30264W        W45733   1.055   2.660   1.771 -0.1246 -0.1353 -0.0534
30265W        W45734   1.828   7.473  12.262 -0.1010  0.1604 -0.0323
30266W        W45735  16.324   6.461   0.622 -0.0286 -0.0835 -0.0722
30267W        W45736  13.848   7.301  12.319 -0.4130 -0.0028 -0.3990
30268W        W45737   4.287  12.473   0.326  0.4719  0.1159 -0.4122
30269W        W45738   8.244  16.043   5.974  0.0956  0.2457 -0.0005
30270W        W45739  14.708  15.974  12.766  0.2554 -0.0539 -0.0713
30271W        W45740  15.867  15.671   0.557 -0.0512  0.0903  0.1685
30272W        W45741  16.087  13.850   4.572  0.2359 -0.1578 -0.2956
30273W        W45742   6.976   2.238   3.043 -0.3192 -0.0120  0.2000
30274W        W45743  11.212   7.983   2.755  0.0558 -0.2094 -0.0458
30275W        W45744  13.038  16.343   5.059  0.3475  0.0819 -0.3250
30276W        W45745   4.639  10.916   3.175  0.1253  0.1603 -0.1116
30277W        W45746  12.417  15.458  14.826 -0.1653  0.1569 -0.0382
30278W        W45747   5.238  12.657   4.432 -0.0109 -0.0116 -0.1800
30279W        W45748   0.990   4.954  13.919 -0.2041 -0.0045  0.1016
30280W        W45749   8.456   1.749  13.498  0.0085 -0.3855 -0.2839
30281W        W45750   1.657  14.865  12.820 -0.1011 -0.1107 -0.3114
30282W        W45751   8.546   8.751  13.059  0.0119  0.1287  0.1837
30283W        W45752   8.072   5.786   1.266 -0.2713  0.0775  0.0676
30284W        W45753  12.075   1.624  16.085  0.1332 -0.1772 -0.0232
30285W        W45754   5.197  14.240   0.009  0.4605  0.0045  0.1926
30286W        W45755   9.665   6.091  12.316 -0.0454 -0.0437  0.4361
30287W        W45756  14.127   6.142   0.303 -0.0696  0.0145  0.1690
30288W        W45757  16.226  17.561   4.704 -0.0280  0.0125 -0.3277
30289W        W45758   8.069   8.157  15.421  0.0566  0.1014  0.0062
30290W        W45759  10.753  11.845   2.396 -0.0124 -0.0525  0.1123
30291W        W45760  11.687  11.848   4.271 -0.1477  0.1792  0.0152
30292W        W45761   9.786  16.549   0.596 -0.1683 -0.2602  0.2193
30293W        W45762   4.695   0.840  12.619  0.3319  0.0846 -0.0553
30294W        W45763   2.628  10.914   3.620 -0.0479  0.1465  0.0874
30295W        W45764  11.571  14.748  12.637  0.0077 -0.2464  0.1012
30296W        W45765  10.304  13.646  15.842  0.2030  0.0643  0.0679
30297W        W45766   8.826  10.249   5.467 -0.0957 -0.2977 -0.2001
30298W        W45767  10.094  16.997  13.108  0.1198  0.0874 -0.3290
30299W        W45768   9.735  11.743  12.669 -0.0134 -0.4062 -0.1093
30300W        W45769   0.616   1.248   2.770 -0.1107  0.2129  0.1325
30301W        W45770  10.357   8.526  11.786 -0.0901 -0.0833  0.2125
30302W        W45771   0.141   6.830   3.263 -0.0675 -0.1471 -0.1958
30303W        W45772   7.305   7.048   5.068 -0.0595  0.3075 -0.0573
30304W        W45773   8.283   3.462  16.353  0.1511 -0.1451 -0.1490
30305W        W45774  15.414   3.921   1.572  0.2192 -0.1508 -0.0846
30306W        W45775   7.626  10.390   2.398  0.2557 -0.1051  0.2993
30307W        W45776  13.385   6.005   0.811  0.0057  0.1310 -0.0189
30308W        W45777   8.133  15.283   3.195  0.1629 -0.1349  0.0292
30309W        W45778   4.553   0.204   4.345  0.0770 -0.0558 -0.1575
30310W        W45779   4.298   8.215   0.356 -0.0205  0.2937 -0.1132
30311W        W45780   3.880   1.400   3.520 -0.2276 -0.4688  0.1188
30312W        W45781  14.098  16.087   3.715  0.0822 -0.3719  0.3410
30313W        W45782   1.820   3.383   2.053 -0.0025  0.0337  0.2479
30314W        W45783   8.421   9.148  13.928  0.2410  0.1266  0.0998
30315W        W45784  14.151  12.166   3.533  0.0100 -0.3476  0.0337
30316W        W45785   5.961  15.002   5.524  0.0120  0.0154 -0.0980
30317W        W45786   8.757   1.943   5.125  0.3890 -0.2888 -0.0670
30318W        W45787   0.031   0.767   2.965  0.1833  0.1790 -0.1551
30319W        W45788  13.024  16.584  16.452 -0.0452 -0.2130 -0.1665
30320W        W45789   6.725  10.258   0.589 -0.0590 -0.0265  0.2331
30321W        W45790   2.029  16.307   1.506 -0.1836  0.0140  0.1066
30322W        W45791   4.230  11.325  10.379  0.4221 -0.0418  0.0262
30323W        W45792  15.159  17.007  12.108  0.3762  0.0980  0.1204
30324W        W45793   0.459   7.048  14.070  0.0707  0.3645 -0.1688
30325W        W45794  17.643   9.134   5.987  0.3522  0.0581 -0.0423
30326W        W45795   7.726   1.176   4.684 -0.0091 -0.0367  0.0143
30327W        W45796   5.847  11.110   4.188  0.0194  0.1772 -0.0419
30328W        W45797   2.298   9.384  12.460  0.1252  0.2010 -0.2223
30329W        W45798  12.233  11.942  14.676 -0.1645 -0.4740  0.1459
30330W        W45799  14.172  10.951   1.947  0.1730 -0.2165  0.0273
30331W        W45800   6.859   7.583   3.696  0.0483 -0.2919 -0.0881
30332W        W45801   7.769   1.413  15.063 -0.0979  0.0802  0.1513
30333W        W45802  10.272  15.135  16.193  0.0676  0.0337  0.0040
30334W        W45803   4.247  14.564  13.438  0.3891  0.0221 -0.1663
30335W        W45804   4.380  13.057  14.302 -0.0087 -0.2990  0.1264
30336W        W45805  14.095  11.389  14.501  0.0819  0.5893  0.1089
30337W        W45806  11.288   0.579  15.830 -0.2245 -0.1799  0.1054
30338W        W45807   4.624   0.857  14.611  0.1497  0.0342  0.0210
30339W        W45808  17.255  16.770  13.467 -0.1567 -0.1944  0.0031
30340W        W45809   9.318  12.407  14.857 -0.1025 -0.2159 -0.1782
30341W        W45810   7.146   9.412   1.325 -0.0389 -0.0555 -0.0553
30342W        W45811   6.795   8.049   4.983  0.0935  0.2249  0.1312
30343W        W45812   7.380  14.311   1.657 -0.2226 -0.0728 -0.1683
30344W        W45813  12.302   8.051  11.550  0.2627 -0.4108 -0.3937
30345W        W45814  13.904   3.258  11.267  0.0030 -0.1065  0.1438
30346W        W45815   9.081  10.486   3.485 -0.1868  0.1608  0.0497
30347W        W45816  17.819  15.558   3.236  0.1697  0.0826  0.1047
30348W        W45817   3.870  10.235  11.266 -0.2211 -0.2405 -0.4447
30349W        W45818   7.210  13.055  14.949 -0.0190  0.0697 -0.0848
30350W        W45819   2.683  11.899  13.792  0.0200 -0.3334  0.0163
30351W        W45820  12.485   4.692  14.326  0.0622 -0.0962 -0.3921
30352W        W45821  15.501   0.836  14.761  0.1850  0.0006  0.4436
30353W        W45822  10.569  10.505   0.240 -0.1602 -0.2116 -0.1122
30354W        W45823  13.077   3.226  11.798 -0.0780 -0.2673  0.0993
30355W        W45824   5.889  14.046   0.259 -0.0034 -0.1387 -0.0540
30356W        W45825  17.485  17.303  14.538  0.1627  0.1335 -0.0773
30357W        W45826   8.626   1.655  12.233 -0.2752  0.0081  0.1124
30358W        W45827  13.947  17.915  12.774  0.5695 -0.0089 -0.1312
30359W        W45828   2.867  17.874  13.079  0.0384  0.0810  0.1116
30360W        W45829  15.028  14.000   5.452 -0.3188  0.0170 -0.1479
30361W        W45830  16.492  17.336  12.542 -0.1148 -0.1223 -0.3714
30362W        W45831  15.672  15.215   3.650 -0.0834  0.3248  0.1816
30363W        W45832  15.108   1.867   0.208 -0.1724  0.0736 -0.3806
30364W        W45833  10.264   4.111   1.759 -0.1139 -0.0698 -0.1243
30365W        W45834   4.453  16.917  15.097  0.1108  0.1780  0.1162
30366W        W45835   8.194   8.476   1.506  0.1447  0.3656 -0.2692
30367W        W45836  16.330   6.588   4.612 -0.1109 -0.1005 -0.2053
30368W        W45837   6.383  12.019  15.823 -0.1581 -0.2251  0.0063
30369W        W45838   0.936   3.291  11.697 -0.1885  0.0118 -0.1260
30370W        W45839  12.940   0.832  12.775 -0.0379  0.0386 -0.0052
30371W        W45840   6.404  16.186   0.495  0.0740  0.2970 -0.0061
30372W        W45841  15.624   8.838   3.461 -0.3909 -0.1736 -0.3119
30373W        W45842  11.672  12.140  14.071  0.0955 -0.0049 -0.1758
30374W        W45843   8.659   4.537  14.074  0.2518  0.1230  0.1840
30375W        W45844   1.916  17.205   3.915 -0.0660 -0.1346  0.1409
30376W        W45845   7.633   8.942  15.445 -0.2522  0.2303  0.0140
30377W        W45846   9.297   1.069  12.678 -0.1740 -0.1839 -0.1780
30378W        W45847   0.597  13.137  12.029 -0.1143  0.1793 -0.3328
30379W        W45848   0.720  12.842  12.420  0.1463  0.0126 -0.1300
30380W        W45849  13.472  15.198  12.375 -0.0986  0.1072  0.0579
30381W        W45850  15.294  10.666  11.436  0.0246  0.1662 -0.0111
30382W        W45851   7.723   5.463  13.424 -0.0064  0.0922  0.1996
30383W        W45852  17.802   7.263   0.693  0.0747 -0.1673  0.2261
30384W        W45853   2.994   6.759  13.898 -0.2062 -0.0796  0.0294
30385W        W45854   2.550  15.841   0.036  0.4735  0.1406  0.2245
30386W        W45855  16.907   5.613  10.709  0.2401  0.1126  0.3662
30387W        W45856   5.229  17.104   5.026  0.1361 -0.0146  0.1819
30388W        W45857  14.816  16.111  11.972 -0.0207 -0.1389  0.0607
30389W        W45858   0.058  17.385   3.750  0.3222  0.3713  0.1782
30390W        W45859  15.041  15.999  12.404  0.0800  0.1478  0.0534
30391W        W45860  15.295  11.369  16.100 -0.1665 -0.1314 -0.2235
30392W        W45861  14.548   1.010   2.984  0.1092  0.1263 -0.3135
30393W        W45862  15.838   1.366   1.888 -0.1304  0.1703 -0.0842
30394W        W45863   5.082   8.694  11.259  0.1502  0.0239 -0.0217
30395W        W45864  16.092  15.157   0.319 -0.3028  0.1500 -0.0065
30396W        W45865  12.857  14.190  16.565  0.5257  0.2369 -0.2607
30397W        W45866  15.102  10.020  11.996  0.2248 -0.2516  0.0029
30398W        W45867  13.678   8.481   5.508 -0.0605 -0.0557  0.0646
30399W        W45868   6.522   0.505   5.504 -0.2367 -0.1433  0.1650
30400W        W45869   8.551   8.684   3.661  0.1208 -0.0238  0.3643
30401W        W45870   3.702   2.652  13.193 -0.0235 -0.0980  0.0582
30402W        W45871  14.143  12.919   1.312  0.3540  0.2070 -0.0748
30403W        W45872   4.129  10.024   0.261 -0.1389 -0.0379 -0.3432
30404W        W45873  10.794  11.045   4.674 -0.0019  0.0058  0.0171
30405W        W45874  16.730   1.370  13.176  0.0999  0.0276 -0.1445
30406W        W45875   0.718   1.399   0.095 -0.0684  0.3961  0.0222
30407W        W45876  16.724  12.201  12.250  0.0924  0.1092 -0.1290
30408W        W45877  17.538   6.772  16.577  0.3116 -0.0885 -0.2883
30409W        W45878   4.015   5.874   5.817 -0.1098 -0.0396  0.0227
30410W        W45879   7.775   2.434   4.023 -0.1307 -0.0975 -0.0238
30411W        W45880  15.129  17.869   0.909 -0.2194  0.1482  0.0934
30412W        W45881   9.083  17.634   0.648  0.0651  0.0645  0.1515
30413W        W45882  14.800  16.927  15.006 -0.0321 -0.0893  0.0922
30414W        W45883  10.431  17.476   5.251 -0.0358 -0.3313 -0.1895
30415W        W45884   8.439  10.892  11.230  0.0546  0.1925 -0.0578
30416W        W45885  13.101   8.813   4.412 -0.1577  0.0978 -0.4527
30417W        W45886  11.493  10.674   3.184  0.2434 -0.2312 -0.0526
30418W        W45887  11.265  10.722   4.810 -0.2257  0.3865  0.1649
30419W        W45888   5.904  10.332   4.348  0.0477  0.2060 -0.1047
30420W        W45889   6.690  14.365   0.940  0.1052  0.2011 -0.1740
30421W        W45890   5.714  12.052  12.559  0.0412  0.0994 -0.2528
30422W        W45891  11.625   9.816   4.477 -0.2575 -0.0144 -0.1354
30423W        W45892  17.725   6.978   3.518 -0.3707 -0.3687  0.3842
30424W        W45893  17.793   9.284   3.778  0.0065  0.0356  0.0087
30425W        W45894  14.197  17.489  13.137  0.2097 -0.5659 -0.2753
30426W        W45895  16.946   5.338  11.144  0.0791 -0.3320  0.3518
30427W        W45896   6.654  17.460  14.988 -0.1542  0.1877  0.0592
30428W        W45897   6.356   5.429  16.117  0.1269 -0.0913  0.1416
30429W        W45898  11.219   9.034   0.546 -0.0478  0.0997 -0.1270
30430W        W45899  12.097  11.361  15.639  0.1416  0.2295  0.0755
30431W        W45900  15.413  16.466   2.588 -0.0547 -0.3880  0.0147
30432W        W45901   1.783   1.422   3.087  0.0212 -0.0293  0.0462
30433W        W45902   0.006  13.349  15.207  0.0020 -0.2738  0.0822
30434W        W45903  14.773  14.806   3.379 -0.0426 -0.0178  0.0012
30435W        W45904  10.400   8.995   0.076  0.2073  0.2935 -0.2053
30436W        W45905   2.945   8.070   2.116  0.0095  0.0410 -0.2889
30437W        W45906   1.011  17.347  12.577 -0.0295 -0.1164 -0.3827
30438W        W45907   8.393  12.409   0.958  0.2279  0.1521 -0.0050
30439W        W45908   7.850   9.690  13.955 -0.0794  0.0720  0.1307
30440W        W45909  13.026   1.601  13.609  0.0274 -0.1132 -0.0293
30441W        W45910  12.456  14.308   1.232  0.3585 -0.1656  0.0909
30442W        W45911   3.723  12.176  14.008 -0.0673  0.0064 -0.1052
30443W        W45912  10.469   3.414  16.396 -0.1316 -0.0339  0.1783
30444W        W45913  15.875   9.197  13.605  0.0217  0.1141  0.1613
30445W        W45914   5.778   1.108   3.520  0.0078 -0.1363  0.4770
30446W        W45915   4.780  14.314   1.271  0.3034 -0.0332  0.0294
30447W        W45916   8.180  15.532   1.425 -0.1082 -0.0174 -0.0751
30448W        W45917  13.698   5.741  14.626 -0.2042  0.1703  0.1034
30449W        W45918   8.687  11.431   2.432  0.0307 -0.1860 -0.1952
30450W        W45919   5.880   2.766   0.383  0.1482 -0.0427  0.0299
30451W        W45920   1.976   7.523   2.457 -0.2558 -0.0300  0.2838
30452W        W45921  10.813  14.757  16.361  0.0025  0.2272  0.1273
30453W        W45922   2.168   6.223   0.971 -0.0223 -0.3690  0.2908
30454W        W45923   6.866   5.466  13.910 -0.2424 -0.2307 -0.0632
30455W        W45924  16.439  15.599   5.925 -0.0736 -0.0253 -0.1880
30456W        W45925   3.377   4.646   5.258 -0.1089  0.0538 -0.4455
30457W        W45926  11.123  13.506  15.790 -0.1683 -0.3804 -0.1301
30458W        W45927   4.712   3.861   2.383  0.0948 -0.2871 -0.0769
30459W        W45928  17.132  10.589   1.939  0.0018 -0.1303 -0.1023
30460W        W45929   3.756   4.531  14.271 -0.2411 -0.0783  0.1218
30461W        W45930  15.500   8.864  13.660 -0.2844 -0.2192 -0.0024
30462W        W45931   8.316   5.500   2.865 -0.1025 -0.0532 -0.1841
30463W        W45932   8.812  10.901   1.190  0.3078 -0.2082  0.0193
30464W        W45933  17.121  10.068  13.429 -0.2541  0.1885  0.0415
30465W        W45934  17.898   9.507  16.596 -0.1239 -0.3537 -0.1830
30466W        W45935   5.147  12.354  14.319  0.1714 -0.1634  0.3283
30467W        W45936   0.276   0.088  15.815 -0.0634  0.2196 -0.1798
30468W        W45937  16.615   8.484  11.915 -0.0093  0.0237  0.1017
30469W        W45938  10.257  17.262   6.614  0.1818  0.0236 -0.1076
30470W        W45939  11.265  14.600  13.109 -0.1139  0.0720  0.1823
30471W        W45940   0.252  11.163   4.880  0.1321 -0.1936  0.1064
30472W        W45941  14.545   0.606   4.526  0.2948 -0.2382  0.2710
30473W        W45942  11.038  17.273   4.260 -0.0228  0.3000 -0.0498
30474W        W45943   8.426  15.786  11.205 -0.1473 -0.2434 -0.0972
30475W        W45944   7.733  11.907   4.009  0.1204 -0.3209  0.1826
30476W        W45945   5.182   4.468   4.895 -0.0606  0.0483 -0.0010
30477W        W45946   8.498  15.384  12.578 -0.1264 -0.0940 -0.1152
30478W        W45947   9.283  10.867   0.433  0.0305 -0.2602 -0.1517
30479W        W45948   3.577   1.324   0.883  0.0029 -0.3134  0.2060
30480W        W45949   6.566   7.417   4.539 -0.1598 -0.1680 -0.0094
30481W        W45950   8.937   5.850  10.478  0.1313  0.2358 -0.2544
30482W        W45951  12.810   8.419   0.488 -0.1040 -0.2431  0.1384
30483W        W45952  10.334   9.816   2.593 -0.0469  0.0273  0.0691
30484W        W45953   6.184  12.727  12.987 -0.1652 -0.0075 -0.0117
30485W        W45954  10.627  12.117   5.419  0.0983 -0.3714 -0.1229
30486W        W45955  11.715  11.851  10.232  0.2776 -0.0184  0.5278
30487W        W45956   3.197   2.719  16.007 -0.0582  0.1163  0.2712
30488W        W45957  11.698   3.843  15.808  0.1470  0.0170 -0.0216
30489W        W45958  15.080  17.040   3.637 -0.2331  0.0037 -0.1820
30490W        W45959   5.364   5.925   0.748 -0.0258 -0.0612  0.3517
30491W        W45960   8.519  13.265   5.181 -0.0308  0.1072  0.5608
30492W        W45961  17.470  15.052  13.531 -0.1515  0.2690  0.0887
30493W        W45962   3.409   6.301   0.055 -0.2005 -0.0816 -0.0104
30494W        W45963  16.592  11.136   4.606 -0.1180 -0.1419  0.2497
30495W        W45964  10.447   6.834   2.201 -0.0192 -0.0521  0.1171
30496W        W45965  11.725   1.081  13.928  0.1398 -0.2483  0.1378
30497W        W45966   1.420  15.664  12.901  0.0574 -0.1962 -0.0317
30498W        W45967   5.271   8.144   0.580 -0.1860 -0.0031  0.2093
30499W        W45968  11.734   2.167  16.063  0.2929  0.0902  0.0361
30500W        W45969   4.921   7.736   4.641  0.2204 -0.2200 -0.0408
30501W        W45970   2.324   5.126  14.178  0.1322  0.0242 -0.2185
30502W        W45971  13.284   7.816  15.714  0.1444 -0.0217 -0.0616
30503W        W45972   0.011   5.405  13.247  0.1093 -0.0407  0.1447
30504W        W45973   0.121   6.545  10.796 -0.0235 -0.0388  0.2591
30505W        W45974   5.568  17.437   2.765  0.1609  0.0883 -0.1905
30506W        W45975  16.670   0.429   4.095  0.0677  0.2108  0.0677
30507W        W45976   5.575   7.797  15.687 -0.2551 -0.2672  0.3862
30508W        W45977   0.864   4.967   0.243  0.2847 -0.0537  0.0293
30509W        W45978   0.280  14.930   3.189 -0.1116 -0.0944  0.1127
30510W        W45979   3.706  17.362  16.449 -0.3206  0.0996 -0.0197
30511W        W45980   9.457   6.050   4.207 -0.0919  0.1331  0.2060
30512W        W45981   9.157   7.374   1.146 -0.0601  0.3305  0.5052
30513W        W45982  13.908  12.045  12.418 -0.2777  0.0610 -0.1415
30514W        W45983  11.595   4.360   1.730 -0.1564  0.0959 -0.2869
30515W        W45984   4.002   2.619  15.066  0.0355 -0.1393  0.4105
30516W        W45985  17.897  14.384  11.155  0.1639 -0.0239  0.2761
30517W        W45986   1.206   1.223   3.667  0.1044  0.0443 -0.3199
30518W        W45987  16.848  10.529  13.498  0.1012  0.0114 -0.0654
30519W        W45988   9.464  11.948   4.522  0.3350  0.2851  0.4275
30520W        W45989  11.099  11.653   6.147 -0.1424  0.2586  0.0358
30521W        W45990  17.160  14.552  14.494 -0.0341 -0.0604 -0.1049
30522W        W45991  14.511   5.750  13.078  0.2181  0.0170  0.0363
30523W        W45992   1.080   0.704   2.194  0.3166  0.2940  0.1213
30524W        W45993   8.940  13.285   2.501 -0.1961 -0.3842  0.0960
30525W        W45994   4.745  15.600   4.845 -0.1017  0.2029  0.2727
30526W        W45995   1.102   3.084   5.975  0.1548  0.0718  0.0983
30527W        W45996   4.706  10.626   2.624  0.1179  0.0005 -0.0797
30528W        W45997  17.694   2.920   2.934  0.0060 -0.3387 -0.0227
30529W        W45998  10.631  16.074   3.048 -0.0765 -0.1464 -0.0754
30530W        W45999   3.836  13.496   2.457  0.0791  0.0806 -0.2365
30531W        W46000  17.016   0.586  14.426 -0.1533 -0.1249 -0.0694
30532W        W46001  12.283  10.526   4.927  0.0987  0.0778  0.0047
30533W        W46002  17.206   7.681  13.198 -0.0435 -0.0776  0.1582
30534W        W46003   1.305  10.740   0.190 -0.0239  0.0003  0.0927
30535W        W46004  14.624  16.783   0.510  0.1490  0.0058 -0.0175
30536W        W46005   3.486   7.696   1.343  0.1574  0.2109 -0.1620
30537W        W46006  11.089  17.694   3.723  0.2717  0.1150  0.0309
30538W        W46007   3.350   0.772  14.426 -0.1292  0.2825 -0.1105
30539W        W46008   3.935  11.043   4.730 -0.2692  0.3134  0.2173
30540W        W46009   7.000  11.947  10.470 -0.1079  0.0396  0.0704
30541W        W46010  11.202  12.653   0.122 -0.0775  0.0912  0.1118
30542W        W46011  17.117   1.131  13.425  0.2935 -0.0416 -0.1527
30543W        W46012   5.676  12.627   3.812 -0.1050 -0.1387 -0.2696
30544W        W46013   2.204   4.132  12.585  0.0565  0.1156 -0.0187
30545W        W46014  12.594   9.546  15.231 -0.1560 -0.1030 -0.1447
30546W        W46015   6.539   6.275   5.060  0.1150 -0.2249 -0.4329
30547W        W46016  10.975  12.189  13.194 -0.1589  0.0344 -0.0537
30548W        W46017   5.086  12.954   4.963  0.0989  0.0731 -0.2886
30549W        W46018   6.408  11.220   2.374 -0.3385  0.1992 -0.1993
30550W        W46019  10.595   7.391  15.487  0.3950  0.0385 -0.3572
30551W        W46020  17.615   2.173  12.159  0.0390  0.1372  0.0653
30552W        W46021   4.997   3.243   3.410  0.0359 -0.0118 -0.1653
30553W        W46022   9.587   5.467  13.909 -0.5363 -0.0039 -0.0526
30554W        W46023   8.058   1.940   5.662  0.2449 -0.2062 -0.2117
30555W        W46024   6.763  11.964   3.488  0.1719  0.0123 -0.1958
30556W        W46025  13.134   7.932  14.388 -0.1281  0.1132  0.2003
30557W        W46026   9.595   7.710   5.451 -0.2755  0.3358 -0.2550
30558W        W46027  11.230   5.026  11.219 -0.3690 -0.2250  0.1326
30559W        W46028   3.698   3.344  11.743 -0.0239 -0.1563  0.1048
30560W        W46029  14.887  17.239   0.553  0.0210  0.1948  0.0729
30561W        W46030  13.113   0.521   0.665  0.0559  0.2304  0.1134
30562W        W46031   0.569   8.020   3.909 -0.4105  0.0065  0.0317
30563W        W46032  12.579   2.324  15.043  0.0392 -0.0938 -0.0088
30564W        W46033  11.098   0.225  14.477 -0.0864 -0.3717  0.1894
30565W        W46034  14.885   9.314  11.322 -0.3449 -0.0643 -0.1529
30566W        W46035  15.323   5.578  15.997  0.0427  0.2760 -0.0592
30567W        W46036   1.934  12.697  15.244  0.2242  0.0244  0.0567
30568W        W46037   8.766   2.612   6.324 -0.1996  0.2954 -0.3418
30569W        W46038  14.373  12.879   4.036  0.1525 -0.2379  0.3157
30570W        W46039  17.586   0.401   1.695  0.1459  0.1456 -0.2218
30571W        W46040  16.273   4.253   0.282  0.0422  0.2206  0.2056
30572W        W46041   5.476   4.847   5.632 -0.2056 -0.2487  0.0854
30573W        W46042   7.008  16.313   4.661 -0.2147  0.1703 -0.0597
30574W        W46043  10.473  12.182   1.364  0.0758 -0.1762 -0.0312
30575W        W46044   8.377   5.654  13.274  0.1692 -0.1856  0.2034
30576W        W46045   3.545  14.951  10.861  0.2626  0.3737  0.3167
30577W        W46046  12.338  10.372  11.568 -0.0416 -0.0554 -0.1103
30578W        W46047   1.983  12.393  15.773  0.0923 -0.1268 -0.0074
30579W        W46048  14.355  16.168  10.768 -0.1775  0.0861  0.0936
30580W        W46049   7.244  14.856   1.687 -0.0439  0.0479  0.0330
30581W        W46050   0.775   6.264   4.690  0.3153 -0.1347  0.0603
30582W        W46051   9.603   3.272  10.545  0.0348 -0.1396  0.0944
30583W        W46052  16.570  16.152  13.548  0.2150  0.0087 -0.2266
30584W        W46053  13.251  15.383  11.471 -0.1524 -0.3223  0.0731
30585W        W46054  13.890   2.717   4.254 -0.0696  0.5647 -0.1548
30586W        W46055  11.662   9.079   0.326 -0.0603  0.3243 -0.0470
30587W        W46056   3.799   4.241   0.113  0.0754 -0.0215 -0.0942
30588W        W46057   0.878   2.299   4.444 -0.1272 -0.2680 -0.2108
30589W        W46058  13.766   7.471   5.244 -0.1787 -0.0283 -0.0707
30590W        W46059   6.460   8.721   2.515  0.2753 -0.2547 -0.0138
30591W        W46060   3.288  15.054  15.940 -0.1562 -0.0308  0.1711
30592W        W46061   5.683  12.775   1.466 -0.1654 -0.0745 -0.0197
30593W        W46062   9.038  11.710  12.172 -0.0868  0.1125  0.1726
30594W        W46063  16.120  17.823   3.056 -0.2843 -0.2363 -0.0518
30595W        W46064   7.656   6.672  14.251 -0.0845  0.0787 -0.2515
30596W        W46065   3.856   3.351   1.294  0.0575  0.4383  0.1032
30597W        W46066   4.773   7.245   5.374  0.0971 -0.2357 -0.1274
30598W        W46067   3.877   2.181  10.859 -0.0760 -0.2503  0.0350
30599W        W46068   4.895  12.457  12.443  0.0510 -0.0164  0.1009
30600W        W46069   0.494  17.917   4.849 -0.0542 -0.0831  0.1607
30601W        W46070  13.543  16.201  13.254  0.1203  0.0168  0.2032
30602W        W46071   9.628   3.987   0.488 -0.3116 -0.0705  0.3646
30603W        W46072  10.430  13.465  12.200  0.1476 -0.1359  0.0435
30604W        W46073   0.619   0.049  12.341 -0.0815 -0.4121  0.0491
30605W        W46074  13.443  16.485  11.740 -0.3215 -0.1486  0.2368
30606W        W46075  14.423   8.658  11.148 -0.2728  0.0358 -0.0581
30607W        W46076   1.457   3.347  11.698  0.1155 -0.0067  0.0333
30608W        W46077   1.857  13.144   4.633 -0.1060  0.1206 -0.3454
30609W        W46078  11.031  15.713  14.716 -0.1211 -0.0863  0.0954
30610W        W46079   0.309   4.119   3.897  0.0662 -0.1582 -0.0091
30611W        W46080   2.714  15.326  13.656  0.0231  0.3180 -0.2104
30612W        W46081   7.233   6.459  15.006  0.0520  0.0723 -0.2045
30613W        W46082   1.123   8.495  16.020  0.0797  0.1426 -0.0320
30614W        W46083  10.400   5.046   3.589  0.1141 -0.0358  0.0015
30615W        W46084  16.563   3.421  12.810  0.1707  0.1477 -0.1539
30616W        W46085   1.043  12.139  12.682  0.3800 -0.1635 -0.2541
30617W        W46086   3.548  15.807  10.967 -0.0496 -0.0925  0.2235
30618W        W46087  15.207  11.900   0.184 -0.1920  0.1366 -0.2388
30619W        W46088  12.991  16.795   1.106  0.0457  0.2622  0.1535
30620W        W46089  15.014   6.501  14.066  0.1775 -0.1798  0.1553
30621W        W46090   4.211  13.022  11.340  0.1837  0.0087  0.0900
30622W        W46091   9.410  15.035  12.994  0.3200  0.0401 -0.2849
30623W        W46092   2.064  14.334   0.615  0.1452  0.0965  0.0974
30624W        W46093   1.446   9.326  14.007  0.0296  0.3056  0.0747
30625W        W46094  13.148   0.676   3.807 -0.2503 -0.2342 -0.0379
30626W        W46095   9.751  11.858   1.963  0.0321 -0.1305  0.1380
30627W        W46096   5.029  11.990  15.719  0.1020 -0.2227 -0.2105
30628W        W46097   1.017  16.330  14.388 -0.0757 -0.1743  0.1116
30629W        W46098   3.723  13.226   0.564  0.0601 -0.0502 -0.0651
30630W        W46099   0.034   4.131  16.551 -0.0285  0.1239 -0.4922
30631W        W46100  14.921   8.259   0.674  0.1565 -0.0458  0.1684
30632W        W46101  11.817  15.227   5.979  0.1290  0.0986  0.1638
30633W        W46102   0.099   8.853  15.214 -0.1036  0.0575  0.1712
30634W        W46103   7.961  12.609   5.101  0.0435 -0.1891  0.2002
30635W        W46104  16.847   5.521   3.746 -0.2736  0.0153 -0.3589
30636W        W46105   1.495  14.456   4.397  0.0049 -0.0720  0.0230
30637W        W46106   7.000   8.283  10.127 -0.0673 -0.3364  0.0125
30638W        W46107  10.798   0.523  11.635  0.3108  0.1932 -0.0283
30639W        W46108   0.485   2.589  12.190  0.2223 -0.1937 -0.2858
30640W        W46109   5.991   1.008  12.523  0.1009  0.1448  0.1917
30641W        W46110   2.461   0.410   0.262  0.4310  0.3778  0.1485
30642W        W46111  15.458   9.169   5.025 -0.0912  0.1972 -0.0552
30643W        W46112   2.002  15.623  15.988  0.0600 -0.0015  0.0733
30644W        W46113  15.041   8.651   2.194 -0.1161 -0.2293 -0.4520
30645W        W46114   7.431   9.864   3.972  0.1842  0.0456  0.2314
30646W        W46115   0.946   9.516  13.151  0.0588 -0.0121  0.2303
30647W        W46116  16.491  17.382   5.331  0.3541  0.1198 -0.2541
30648W        W46117   1.401   8.866   1.874  0.3039 -0.1117 -0.1297
30649W        W46118  14.593   4.058   3.621 -0.3044 -0.1768  0.1616
30650W        W46119  15.080  14.765   4.343 -0.2584 -0.2335  0.1104
30651W        W46120   2.730  17.474  15.461  0.0175 -0.0367  0.2205
30652W        W46121   3.025   8.080  13.737  0.0568 -0.0285 -0.0610
30653W        W46122   6.215   9.396  14.047 -0.2024 -0.0441 -0.1541
30654W        W46123   7.058  17.484  16.202 -0.1555 -0.0197 -0.0100
30655W        W46124  12.178   8.161  15.967  0.0452 -0.1984  0.2091
30656W        W46125   3.147  11.326   5.542  0.2037  0.1138 -0.2051
30657W        W46126   7.736   1.195   0.792 -0.2176 -0.3231  0.0459
30658W        W46127  12.025  10.253   0.883 -0.4911 -0.1068  0.1315
30659W        W46128  15.133  17.801   2.739 -0.0230 -0.3346  0.0111
30660W        W46129  11.383  17.442   1.407  0.0855  0.0756  0.2045
30661W        W46130  10.117   3.320  15.989  0.0902  0.0869 -0.2022
30662W        W46131   0.332  10.145  16.293  0.1110 -0.3069 -0.1224
30663W        W46132   2.812  11.282   3.015  0.0862  0.0831 -0.0404
30664W        W46133   3.423   4.450  16.453  0.1498  0.1338  0.3693
30665W        W46134   0.468   2.466   5.760  0.0879 -0.1632 -0.0633
30666W        W46135   8.524  10.142  13.130 -0.1213  0.0892  0.0571
30667W        W46136   1.319   7.837  15.230  0.2468  0.1724  0.1585
30668W        W46137   3.458  13.380  12.445  0.1118  0.0500 -0.2419
30669W        W46138  11.628  13.471   3.871  0.0383 -0.1136 -0.0563
30670W        W46139   7.671  16.466  13.559  0.0755  0.0151 -0.1782
30671W        W46140   1.203   8.015  12.877  0.1444 -0.1241  0.0629
30672W        W46141  17.517   4.153  11.288  0.2108 -0.3051 -0.0806
30673W        W46142  17.030  11.461  15.019 -0.2198  0.0220 -0.2481
30674W        W46143   0.775   8.866  10.942 -0.3307  0.0966  0.0651
30675W        W46144   6.485  15.442  16.615 -0.0271 -0.0233 -0.2112
30676W        W46145   9.021   8.752  10.506 -0.1886 -0.3413 -0.0281
30677W        W46146   1.902  15.760  15.438  0.0392  0.0763 -0.0754
30678W        W46147   6.375   0.595  14.349 -0.4368  0.1811 -0.0597
30679W        W46148   2.383   4.738   1.501  0.2741 -0.0644  0.0804
30680W        W46149   7.039  16.143   2.748  0.1759  0.1462 -0.0641
30681W        W46150   7.874   7.250   2.396  0.2050 -0.1415 -0.0787
30682W        W46151  15.841   1.908   1.824  0.1772 -0.2353  0.1589
30683W        W46152   2.302   7.447   1.999 -0.0197 -0.2157 -0.0325
30684W        W46153  16.119  14.176  15.252  0.0024 -0.2315  0.1273
30685W        W46154   7.485   4.907  12.174  0.0318 -0.1161  0.2464
30686W        W46155  10.911  17.472   1.462  0.2556 -0.3369 -0.0394
30687W        W46156  16.034   7.346   4.282  0.0572 -0.0579 -0.1691
30688W        W46157   8.787   9.427  15.217 -0.1344 -0.1821 -0.1189
30689W        W46158  13.948   8.719   1.154 -0.2951  0.2495 -0.2259
30690W        W46159   8.244  17.591  16.371  0.2138 -0.1435 -0.1342
30691W        W46160   1.616   3.258   4.001  0.2534 -0.0351  0.0223
30692W        W46161   8.311   6.901  12.740  0.1123  0.1259  0.0285
30693W        W46162  16.465   2.256   4.222 -0.0070  0.1234  0.1946
30694W        W46163   2.841  11.068  16.211  0.1641 -0.0057 -0.1952
30695W        W46164   5.252  17.524  12.541 -0.0973  0.1138  0.3132
30696W        W46165  11.070   8.548  13.929  0.0498 -0.1265 -0.0870
30697W        W46166  15.743   8.213   3.528  0.0142  0.3459 -0.0880
30698W        W46167  10.719  12.162  16.150  0.1930  0.1527 -0.3726
30699W        W46168   6.377  17.825  12.838  0.3853  0.0728  0.2249
30700W        W46169  15.278  17.986  16.486 -0.3117  0.1583  0.2676
30701W        W46170  10.901   2.361  15.783  0.0638 -0.0359 -0.2262
30702W        W46171   0.100   1.146   5.426  0.2494  0.0786  0.3567
30703W        W46172   9.977   0.999   2.413 -0.2272 -0.3013 -0.2628
30704W        W46173   8.815   1.539   2.729 -0.1222  0.0401  0.3192
30705W        W46174   3.530   0.587   5.839 -0.0606  0.3586 -0.0764
30706W        W46175  16.499   9.109  15.214  0.1533 -0.0777  0.0621
30707W        W46176   4.537   6.014   3.481 -0.0738 -0.1248  0.0550
30708W        W46177   7.022  17.585   3.486 -0.0031 -0.0639  0.0468
30709W        W46178   3.282   4.260  11.740 -0.1178  0.2771  0.0530
30710W        W46179   1.479  17.339   0.038  0.0599 -0.2632 -0.4566
30711W        W46180   8.545  11.509   4.905 -0.2216 -0.0804  0.2727
30712W        W46181   3.732   5.956  10.142 -0.1324  0.1543 -0.2001
30713W        W46182  12.638   1.925   3.874  0.1934 -0.0009  0.1457
30714W        W46183  14.907   7.703  14.060 -0.0878 -0.2503 -0.0605
30715W        W46184   2.478  14.249  11.722 -0.0246 -0.0626 -0.1407
30716W        W46185  15.338   7.042  15.527 -0.0388  0.0941  0.1667
30717W        W46186  16.270   5.090  10.119 -0.2285  0.0725 -0.1530
30718W        W46187  13.545   9.808   2.461  0.1834  0.1708  0.0416
30719W        W46188  14.621  16.980   2.221 -0.0706  0.2045 -0.4288
30720W        W46189   1.851  12.905   0.588  0.1599  0.1197  0.0352
30721W        W46190  10.451   9.435  14.632 -0.0431 -0.2057 -0.0804
30722W        W46191   2.288  15.694  12.647 -0.1477  0.1505 -0.0463
30723W        W46192   6.989   3.222   0.779  0.0672 -0.1321  0.0586
30724W        W46193   1.954  10.916  15.370 -0.0221  0.1531  0.0453
30725W        W46194   0.031   4.289   5.492 -0.1020  0.2180  0.1267
30726W        W46195   4.714   9.889  11.878  0.3515  0.0768 -0.0820
30727W        W46196   3.380  10.413  12.619 -0.3645  0.3747  0.0232
30728W        W46197  11.106  12.540  12.850 -0.0146 -0.0601 -0.0451
30729W        W46198   5.858   2.507   3.714  0.1851  0.0939 -0.1232
30730W        W46199   5.403   9.471   0.238  0.2292  0.2150  0.2434
30731W        W46200  13.346  10.280   5.257  0.2025  0.2216  0.1125
30732W        W46201  17.772   7.071  11.531  0.0852 -0.1564 -0.0864
30733W        W46202   8.215  17.015   5.907 -0.0346  0.1893 -0.2348
30734W        W46203   0.908   8.221  10.722 -0.0806 -0.1191  0.1557
30735W        W46204   8.741   8.382   1.675 -0.0238  0.2058  0.0887
30736W        W46205   1.614   3.502  15.254 -0.1453 -0.1554 -0.1307
30737W        W46206  16.540  13.349  12.686  0.2073 -0.5203 -0.0612
30738W        W46207  13.448   1.970  13.543 -0.1311 -0.4115  0.0942
30739W        W46208   1.812  15.981  14.467  0.3714 -0.3851  0.0644
30740W        W46209  11.458  13.088   2.560  0.0986  0.5144  0.0322
30741W        W46210   0.457   1.957   4.474  0.0812 -0.0741 -0.1655
30742W        W46211   6.274  14.311  15.838  0.0487  0.1615 -0.0073
30743W        W46212  12.681  12.525  15.151 -0.0181 -0.1165  0.1092
30744W        W46213   0.825  14.546   2.894  0.2792  0.0027 -0.3126
30745W        W46214  17.381   6.545  12.652 -0.1807  0.3401 -0.0038
30746W        W46215   8.990   1.697   2.080  0.2137  0.0153  0.2964
30747W        W46216  11.945  16.715   1.033  0.1877  0.1625  0.1037
30748W        W46217   3.708  14.215   0.725 -0.4651 -0.0094  0.1002
30749W        W46218  17.820   9.832  10.262  0.1877  0.1600  0.0151
30750W        W46219  17.757   7.807   1.956  0.0160  0.3638 -0.0038
30751W        W46220   3.008  14.426  15.396 -0.1678  0.3992  0.4373
30752W        W46221  13.480   3.335   2.647  0.3695  0.0461 -0.0822
30753W        W46222   7.871  14.790  12.055 -0.0139 -0.1746 -0.3926
30754W        W46223  17.650  15.440   5.556 -0.0609 -0.0170  0.3212
30755W        W46224   8.854  11.449  13.179 -0.2336  0.0412  0.0368
30756W        W46225   5.218   3.301   5.231 -0.0887 -0.0849 -0.1141
30757W        W46226  15.416  17.838   5.910  0.1014 -0.4530 -0.0382
30758W        W46227  17.512  13.807   1.670  0.0702 -0.0144  0.1647
30759W        W46228  16.691   8.801  11.174 -0.1312  0.2462 -0.1777
30760W        W46229   0.586  13.134  13.727  0.1719  0.0544 -0.1368
30761W        W46230   4.598   5.541   3.605  0.2171  0.1982 -0.0738
30762W        W46231  16.646  10.077  15.011  0.1735  0.2752 -0.0429
30763W        W46232   5.422  10.458  12.780 -0.0724  0.2139 -0.1214
30764W        W46233   9.945   8.912   2.238  0.1622 -0.2993  0.1838
30765W        W46234   8.711   1.972  12.639 -0.3753 -0.0842 -0.0462
30766W        W46235  17.547  12.869  15.286  0.2046  0.0714  0.1952
30767W        W46236   9.530  13.740  15.303 -0.1778  0.0052 -0.2400
30768W        W46237  17.228  15.109  14.727  0.4453  0.3963 -0.2966
30769W        W46238  17.323   9.535   3.705  0.1627  0.0599  0.0109
30770W        W46239  14.811   7.460  11.896  0.2393  0.0290  0.0427
30771W        W46240  17.460   6.594   4.967 -0.3211 -0.0909 -0.0141
30772W        W46241  11.374  17.309  12.564  0.3392  0.2752  0.0496
30773W        W46242   4.676   8.145   4.596  0.1840  0.3086  0.2497
30774W        W46243   9.808   5.332   4.768 -0.0809  0.0149  0.1063
30775W        W46244   2.064   0.535  15.415  0.4088  0.1130  0.1336
30776W        W46245   6.119  12.062  15.105  0.1149  0.1214  0.0099
30777W        W46246  17.785  12.457  10.911 -0.1475 -0.0738  0.1981
30778W        W46247   3.562  14.695  11.867  0.1247 -0.0574  0.0871
30779W        W46248   3.230   6.857  14.329 -0.1456 -0.1021 -0.3109
30780W        W46249   0.976   1.915  14.759  0.0640  0.0877  0.4783
30781W        W46250   0.721   5.873  15.058  0.2540  0.0679  0.2475
30782W        W46251   6.535   1.244  15.714  0.0175 -0.0249  0.0490
30783W        W46252   3.366  10.853  11.629  0.0685  0.2396 -0.0955
30784W        W46253  17.477   4.528  12.026  0.0888  0.0417 -0.2303
30785W        W46254   0.654  16.524   5.869 -0.2632  0.0824  0.3268
30786W        W46255  10.105   7.823   2.095  0.0912 -0.1078  0.3572
30787W        W46256  15.945   9.681  15.356 -0.1440  0.0747  0.0943
30788W        W46257  14.971   6.890   3.051 -0.0369 -0.4764  0.0957
30789W        W46258   9.553   9.523   2.733  0.3307  0.3029  0.0672
30790W        W46259   1.936   6.238  14.351  0.2519 -0.0149 -0.4293
30791W        W46260   4.444  13.640   5.348  0.1375  0.1524  0.3262
30792W        W46261   2.834   5.336   1.969 -0.1388 -0.2310 -0.0276
30793W        W46262   7.404  11.076  13.894 -0.1420 -0.1763 -0.0861
30794W        W46263   2.676  10.107   5.259  0.2140  0.1977  0.0490
30795W        W46264   5.340   1.496   1.908 -0.1059  0.1750  0.1722
30796W        W46265  16.547  12.187   2.542 -0.2311 -0.4337  0.4568
30797W        W46266   6.178  12.730  11.071  0.0406  0.0664 -0.2243
30798W        W46267   4.401   8.287   3.430  0.0658  0.1165 -0.0164
30799W        W46268  17.976  11.413  15.434 -0.1175  0.1084  0.1213
30800W        W46269  12.157   6.819  15.080  0.0486 -0.0220  0.1236
30801W        W46270  15.099   7.123  12.314  0.2520 -0.0448  0.2220
30802W        W46271   2.711   9.602   1.077 -0.0044 -0.2299  0.0881
30803W        W46272   0.394   1.370  12.038  0.1405 -0.2787 -0.2560
30804W        W46273   7.917  14.338   4.305  0.4194  0.2104  0.1232
30805W        W46274  13.133   9.857  13.867  0.1241  0.0775  0.1261
30806W        W46275  16.303   3.364   0.547 -0.2355 -0.4249 -0.0823
30807W        W46276  12.936   8.316   1.892 -0.0828  0.2688 -0.0973
30808W        W46277   7.710  16.902   1.602  0.2275 -0.1049  0.0842
30809W        W46278  15.130  11.449  12.073 -0.0559  0.1176  0.0597
30810W        W46279  11.207  15.569   1.282  0.4489 -0.1433 -0.1011
30811W        W46280   4.260   6.663   4.949 -0.2520 -0.1652 -0.0492
30812W        W46281  16.541  12.652  14.663 -0.0308 -0.0719  0.4511
30813W        W46282   5.779   2.037  14.412  0.0841 -0.1130 -0.0012
30814W        W46283   9.178   6.367   1.725  0.2279  0.1420 -0.1820
30815W        W46284   7.846  14.680   3.917 -0.1613 -0.3357 -0.1788
30816W        W46285   4.345  10.919   4.056  0.0633 -0.3807 -0.0517
30817W        W46286   0.665  11.643  13.387 -0.1575 -0.3249  0.1101
30818W        W46287   0.293  10.762   5.195 -0.0037  0.1711 -0.3114
30819W        W46288  12.713  17.619   5.693 -0.1456  0.0890 -0.0890
30820W        W46289  16.978  16.120  14.064  0.2660  0.0630 -0.1338
30821W        W46290   6.399   1.257   1.804  0.0588  0.1340 -0.4063
30822W        W46291  11.553   0.681   2.061 -0.1002  0.0904 -0.0750
30823W        W46292  11.348  14.125   1.450 -0.1176 -0.1025 -0.0637
30824W        W46293   9.038   2.625   2.127  0.3332 -0.2089 -0.0521
30825W        W46294   1.639   6.562  10.948  0.0747  0.0474 -0.0832
30826W        W46295   2.977   4.212   0.493  0.0563 -0.3468 -0.0443
30827W        W46296   2.797  14.513   5.046  0.2011 -0.1174  0.2052
30828W        W46297  13.467  15.267   3.914 -0.0739  0.0907 -0.0930
30829W        W46298   2.396  14.784   4.691 -0.1709 -0.4664  0.0618
30830W        W46299   0.155   6.815  12.999 -0.1570 -0.0469 -0.0603
30831W        W46300   9.379   8.224   0.434 -0.3004 -0.1015  0.0105
30832W        W46301   1.879  13.005   5.591 -0.0339  0.0800  0.1727
30833W        W46302   9.065  14.951   4.574 -0.1972  0.1837 -0.1810
30834W        W46303   6.018   7.511   4.289  0.0861  0.0245 -0.1515
30835W        W46304  17.115  17.073   4.561  0.1941 -0.0997 -0.0124
30836W        W46305   8.494  14.730  12.205 -0.0060 -0.2461 -0.3284
30837W        W46306   4.447   5.767   4.707 -0.2202 -0.0524  0.0599
30838W        W46307   5.486   2.642   1.205 -0.0289  0.1768 -0.2678
30839W        W46308  13.159  15.175  15.343 -0.2194  0.3194  0.1189
30840W        W46309  14.892  13.079   5.287 -0.0756 -0.0116  0.0840
30841W        W46310  11.163  17.896  14.046 -0.0005 -0.0327 -0.1955
30842W        W46311  13.013  16.137   4.202  0.1806  0.0301 -0.3755
30843W        W46312   3.939  10.801   6.143 -0.3070 -0.1906 -0.0994
30844W        W46313  15.800  13.285   1.720  0.1507  0.0501  0.0522
30845W        W46314   7.289   2.576   2.848 -0.1451  0.0625 -0.1971
30846W        W46315   6.444  15.879  12.536  0.1786 -0.5043 -0.1527
30847W        W46316   3.087   3.140  15.051  0.0489  0.1269  0.1651
30848W        W46317   1.709   1.899   5.025 -0.1101  0.1132 -0.0261
30849W        W46318   8.289   1.264  14.299  0.1385 -0.1701  0.1165
30850W        W46319   5.916  14.538  16.070  0.1028  0.0732  0.0004
30851W        W46320   8.890  11.832   3.420 -0.1579  0.2708  0.0404
30852W        W46321   8.132   7.905  13.306  0.0727  0.1204 -0.1781
30853W        W46322  10.581   0.095   6.126 -0.2133  0.0859  0.0364
30854W        W46323   3.248   4.357   4.855  0.3261  0.1555 -0.0678
30855W        W46324  13.162  14.883   2.898 -0.1507 -0.1634 -0.0767
30856W        W46325   2.030  15.910  11.804 -0.0397 -0.1017 -0.3339
30857W        W46326  12.927  12.239  14.535  0.2218 -0.0463  0.1311
30858W        W46327  14.254  15.982   0.501  0.1690  0.0165  0.2086
30859W        W46328  15.921   2.823  11.349 -0.1519 -0.0248  0.0349
30860W        W46329   5.794   3.855  14.302  0.1309 -0.2569 -0.1175
30861W        W46330   6.448   6.349  13.670 -0.1743 -0.2704  0.1926
30862W        W46331   2.347  14.591   2.482 -0.0353  0.0257  0.3937
30863W        W46332  12.473  15.601   2.838  0.1630  0.1499 -0.2675
30864W        W46333   6.867   1.368  11.747 -0.0180 -0.2692 -0.1568
30865W        W46334   4.788   6.837   3.848  0.2953 -0.0449  0.0298
30866W        W46335  15.234   4.235  14.496 -0.0822  0.2244 -0.1325
30867W        W46336   7.714   7.125   1.430 -0.2518 -0.0911 -0.2909
30868W        W46337   9.157   0.098   1.489  0.1554  0.1328  0.4126
30869W        W46338   9.285  14.111  14.865  0.2186  0.0066 -0.0945
30870W        W46339  14.626   0.919  14.940 -0.0744  0.1561  0.0641
30871W        W46340  16.428  17.617   4.255 -0.1296  0.1313 -0.0956
30872W        W46341   3.099  10.385   3.483 -0.1220 -0.1577  0.3426
30873W        W46342  17.384   4.521   1.597  0.1099  0.1264  0.0673
30874W        W46343   5.714  13.542   0.891 -0.3176 -0.1407  0.1012
30875W        W46344   4.911  16.123  14.573 -0.0746  0.1028 -0.1515
30876W        W46345   0.667   2.446   2.063 -0.1092  0.0183 -0.1801
30877W        W46346  17.114  10.727   3.349 -0.1524 -0.0847  0.0456
30878W        W46347   3.287   7.385   4.585 -0.0688  0.0170 -0.0671
30879W        W46348  11.552   0.756  13.541  0.1085 -0.0336 -0.1136
30880W        W46349   7.271  10.611  15.118  0.1784 -0.1142  0.2832
30881W        W46350   9.854  11.522  16.593 -0.0320 -0.1133 -0.1134
30882W        W46351   9.773   4.286  14.828  0.0791 -0.0875  0.0850
30883W        W46352   8.563   5.258  15.038 -0.0121  0.0745  0.1078
30884W        W46353  10.460  15.257   0.405  0.0575  0.1594  0.0120
30885W        W46354  11.865   9.943  16.133 -0.5890  0.2854 -0.1674
30886W        W46355  17.877   5.625  11.369 -0.2087  0.1819  0.0314
30887W        W46356   7.997  13.672  15.030  0.0823 -0.0565  0.1482
30888W        W46357  12.475  11.226  15.147 -0.1742 -0.0165 -0.0427
30889W        W46358   9.907   9.718  13.168  0.2639 -0.0894 -0.1427
30890W        W46359  10.317  14.631  13.766 -0.0032  0.1863 -0.0832
30891W        W46360   9.021  14.345  13.467  0.0661  0.0886 -0.1858
30892W        W46361   2.119  11.888  13.484 -0.0170 -0.3207  0.0286
30893W        W46362   2.848   9.449   4.362  0.1802 -0.0803  0.1620
30894W        W46363   8.936  17.176   5.183  0.0262 -0.3511  0.0586
30895W        W46364  15.117  12.383   0.340 -0.0209 -0.0251  0.2390
30896W        W46365   9.671   7.254   4.386 -0.3009 -0.1695  0.2831
30897W        W46366   4.200   0.341   3.458  0.0079 -0.0578 -0.0494
30898W        W46367   3.912   2.137  15.389 -0.2008 -0.1221  0.0370
30899W        W46368   6.877  11.599  10.783  0.3801 -0.0800  0.3567
30900W        W46369  13.741   0.489  16.009 -0.2236  0.0693 -0.3848
30901W        W46370   2.824   4.250  13.534  0.0151 -0.0082 -0.0849
30902W        W46371  12.352   3.890   5.727 -0.3373  0.0074 -0.2166
30903W        W46372  10.086  16.549   4.850 -0.0076 -0.1777 -0.0724
30904W        W46373   3.527  15.231  15.366 -0.2124  0.0261 -0.2921
30905W        W46374  17.461  13.328   1.715 -0.2270  0.0058  0.1634
30906W        W46375  12.875   5.250  13.691 -0.1255  0.0427 -0.0643
30907W        W46376  14.194  11.541  12.455  0.0545 -0.1680 -0.3955
30908W        W46377   7.627   6.089  14.886  0.0840 -0.1153  0.0712
30909W        W46378  12.667   8.608  14.961  0.3741 -0.3878  0.2119
30910W        W46379  17.183   8.841  16.032 -0.2169  0.0303  0.0670
30911W        W46380  17.982   7.164  12.678  0.1197 -0.0980 -0.5426
30912W        W46381   6.848   7.065  16.287  0.1528  0.1694  0.0889
30913W        W46382  10.437  16.741   3.151 -0.0236 -0.1603 -0.0628
30914W        W46383   1.604  11.109   5.673 -0.0302  0.0814  0.1892
30915W        W46384   3.999   2.272   0.308 -0.1987  0.2964  0.0119
30916W        W46385   8.383  13.071  13.314 -0.0888  0.0643 -0.0574
30917W        W46386   3.504  13.702  15.926 -0.4817  0.1266  0.3046
30918W        W46387   4.060   9.618  11.583 -0.0412  0.0512  0.0067
30919W        W46388   6.735   7.381  15.935 -0.0140 -0.1690  0.2306
30920W        W46389   4.182  13.812  16.481  0.0897 -0.0238 -0.2110
30921W        W46390   6.162   6.253  16.452  0.1227  0.2318 -0.1830
30922W        W46391   0.771  15.985   1.695 -0.2209  0.0184  0.4037
30923W        W46392  14.225  17.727  14.057  0.2830 -0.0879 -0.0846
30924W        W46393  11.098   1.565   4.078  0.1970 -0.0394 -0.2772
30925W        W46394  14.566   6.394   3.918 -0.2645 -0.0241 -0.0233
30926W        W46395  15.441  12.507  13.260 -0.0043  0.4231 -0.0539
30927W        W46396  12.065   3.591   1.646  0.0669  0.0869 -0.0744
30928W        W46397   4.961   3.860   0.114  0.0898  0.0474  0.5871
30929W        W46398  10.600  16.647  13.883  0.2601 -0.3031 -0.3698
30930W        W46399   5.207  14.102   1.313 -0.1531 -0.0062 -0.0582
30931W        W46400  10.117  16.550  16.004 -0.0032  0.1872 -0.0425
30932W        W46401  15.433   2.079   1.578  0.0647  0.1263 -0.0813
30933W        W46402  14.571  15.150   3.033  0.0390  0.3308 -0.1943
30934W        W46403   4.919   6.557  14.691 -0.1004 -0.0568 -0.1053
30935W        W46404  10.225   3.810   0.001 -0.0592  0.1269 -0.3275
30936W        W46405   7.523  13.449  13.289 -0.2342  0.0747  0.5668
30937W        W46406   0.403   3.576   3.747 -0.0473 -0.0551  0.0115
30938W        W46407  16.298   3.266   1.428 -0.3597 -0.0992 -0.0483
30939W        W46408   9.161  14.523   4.274 -0.1942 -0.0152  0.1845
30940W        W46409  11.215   5.219  14.540 -0.1072  0.2193 -0.0926
30941W        W46410  17.881   1.857  13.588 -0.4097  0.0673  0.1329
30942W        W46411  11.395   1.231  14.374 -0.1532  0.3394  0.0850
30943W        W46412   1.182  10.751   5.749 -0.0563  0.0011 -0.0090
30944W        W46413   2.703  11.939  13.228  0.0791 -0.0312 -0.0009
30945W        W46414  12.150  16.178   1.699 -0.1457 -0.0124  0.1487
30946W        W46415   6.081   6.850   1.811 -0.0741  0.0365 -0.1289
30947W        W46416   8.350   2.367  12.208 -0.2655 -0.1996  0.3413
30948W        W46417   9.372   6.318  15.108 -0.1122  0.1866 -0.1301
30949W        W46418  12.474   5.235  14.080  0.2302 -0.1141 -0.0991
30950W        W46419  16.210  10.045   5.149  0.1285 -0.1615  0.1080
30951W        W46420   2.267   6.179   2.162 -0.2185 -0.0410  0.1470
30952W        W46421   5.303   0.677  15.294  0.2535  0.2397  0.0930
30953W        W46422  14.721   1.511   1.206 -0.0955 -0.4110  0.2547
30954W        W46423   7.309   9.829   1.101 -0.2151  0.0323  0.2203
30955W        W46424  17.128  11.359   2.677  0.1737  0.1648  0.0254
30956W        W46425  15.643   1.100  11.217 -0.0884 -0.1594 -0.3704
30957W        W46426  12.672  13.112   0.227  0.1333 -0.0950  0.0304
30958W        W46427   8.000   2.308   1.191 -0.1137  0.0665  0.1542
30959W        W46428   4.119   3.500   1.755  0.1715 -0.1008 -0.2482
30960W        W46429  17.798   3.660  14.051  0.2328 -0.0203  0.1189
30961W        W46430   4.978  10.843   4.054  0.0114  0.0663 -0.3188
30962W        W46431   4.965  16.410   1.393  0.0171  0.1611  0.1270
30963W        W46432  13.637   6.712  11.902 -0.1252 -0.1171 -0.2573
30964W        W46433   4.349   4.022   2.645 -0.2169  0.3138 -0.3103
30965W        W46434   1.722  11.492   4.374  0.0139  0.0894  0.1472
30966W        W46435  13.055   0.647  14.906  0.0492 -0.2107 -0.1248
30967W        W46436   0.386  12.750   5.886 -0.0419  0.1773 -0.2820
30968W        W46437  13.067   3.457   4.297 -0.3912  0.0451 -0.0841
30969W        W46438   2.803  11.411   1.107 -0.2343 -0.0321  0.1858
30970W        W46439  12.210   6.811  14.234  0.1222  0.0405  0.0514
30971W        W46440  11.695   7.686  14.148 -0.2214 -0.3418  0.1334
30972W        W46441  11.374   9.199   2.374 -0.1323  0.0510 -0.2122
30973W        W46442  17.314   4.178  15.307  0.0650 -0.0196  0.3476
30974W        W46443  11.084   2.112   3.964  0.1777  0.0141 -0.0232
30975W        W46444   8.413  16.407   1.705  0.0709 -0.3051  0.1290
30976W        W46445  14.556   5.783   0.014  0.0021  0.0306  0.0669
30977W        W46446  14.609   5.298  14.419  0.0075 -0.2280  0.1927
30978W        W46447   6.379  11.597  13.414 -0.1444  0.2409 -0.0860
30979W        W46448  12.165   2.847   2.794 -0.1336  0.0945  0.0861
30980W        W46449  12.279   4.276   5.412  0.2114 -0.0232  0.2029
30981W        W46450  10.651  11.330   2.776 -0.0952 -0.4454 -0.0701
30982W        W46451  16.972   9.288   0.515  0.1454 -0.0729 -0.1878
30983W        W46452  14.710   6.899  14.078 -0.0682 -0.2925  0.5209
30984W        W46453   9.979   0.176   1.483 -0.4436 -0.1356  0.2875
30985W        W46454   7.623  11.597   4.757  0.1318  0.0683  0.2630
30986W        W46455   0.654   9.380  11.693 -0.0397  0.0661  0.0498
30987W        W46456  15.099   4.950   0.686  0.0109  0.2323 -0.0759
30988W        W46457   5.673   3.299   3.135 -0.0385 -0.2005 -0.0754
30989W        W46458  11.618   4.117   2.151 -0.1093  0.1907  0.0198
30990W        W46459   5.050   7.411   3.712 -0.0122 -0.0372  0.1799
30991W        W46460   2.651  13.431  16.181 -0.0495 -0.3834  0.0884
30992W        W46461  11.242   1.399  11.643 -0.0207 -0.5379  0.0133
30993W        W46462   3.866  16.282  14.798 -0.0975  0.0077  0.0184
30994W        W46463   0.254   3.281   1.980  0.0815  0.0153 -0.0555
30995W        W46464   4.607   8.722  14.561 -0.1666 -0.0839 -0.2151
30996W        W46465  11.918  13.440   5.780  0.0795 -0.0117 -0.3012
30997W        W46466  12.308   0.318  15.690  0.1995  0.1086  0.2108
30998W        W46467  12.471   8.334   4.586  0.0781  0.2034 -0.0670
30999W        W46468   6.233  10.655  13.168 -0.2291 -0.4159 -0.0820
31000W        W46469   5.685   0.100  15.998 -0.1827 -0.0305  0.0366
31001W        W46470   9.805   3.575  12.956 -0.1084 -0.2896  0.0173
31002W        W46471   0.778   5.813   3.772  0.0466  0.1582 -0.0193
31003W        W46472   2.952   8.076   4.869  0.1620 -0.0592 -0.0352
31004W        W46473   1.146   7.377  11.970  0.0868  0.1249 -0.1927
31005W        W46474   4.293   7.983  14.374 -0.1517  0.1885  0.1408
31006W        W46475   1.458   8.772   4.263 -0.0420 -0.2014  0.0476
31007W        W46476   2.044  16.582  13.990 -0.2053 -0.0565 -0.3196
31008W        W46477  17.849   2.750  11.542 -0.0264  0.0040  0.1029
31009W        W46478  12.376  10.830  16.413  0.6507 -0.2827 -0.0825
31010W        W46479  16.244  13.000   4.377 -0.0120 -0.0958 -0.2867
31011W        W46480   0.848  10.614  11.628  0.1574  0.2629  0.5386
31012W        W46481  13.922   4.536  15.266 -0.2049 -0.1448 -0.3063
31013W        W46482  13.119  15.373   2.124  0.1173  0.2894 -0.4848
31014W        W46483   5.590   8.252   2.004 -0.0397  0.1337 -0.2704
31015W        W46484   9.895  12.176   3.735  0.0790  0.1716  0.0171
31016W        W46485  17.747   1.295   2.413 -0.1071  0.1134  0.2574
31017W        W46486   0.327   3.131  14.859  0.0321  0.3581 -0.0799
31018W        W46487  15.315  16.461  13.018  0.0331 -0.0895 -0.0587
31019W        W46488  15.123   0.397   2.658 -0.1493 -0.0093  0.1862
31020W        W46489   9.330   2.026  14.714  0.2568 -0.1201  0.0378
31021W        W46490   1.788   7.711  14.615 -0.2718  0.1135  0.1428
31022W        W46491   7.134  13.532  16.283 -0.0519  0.0304  0.1912
31023W        W46492   5.014   9.386   0.544  0.0584 -0.0478 -0.0433
31024W        W46493   1.811  12.507   5.624 -0.1138 -0.3105  0.0018
31025W        W46494  12.473  14.940   3.644 -0.0246  0.1461  0.0517
31026W        W46495   4.391   6.063   0.352 -0.1324  0.2931  0.0598
31027W        W46496   2.971  12.325  12.915  0.2877  0.1909 -0.0831
31028W        W46497  15.129   9.501   2.571 -0.0624  0.1743 -0.0638
31029W        W46498  12.075   0.301  15.124 -0.3448 -0.1803 -0.0667
31030W        W46499  10.299   7.460  10.513  0.3788 -0.1583  0.0343
31031W        W46500   5.645  10.210   4.784  0.0528 -0.1552 -0.1125
31032W        W46501   2.187   6.577   3.384 -0.0709 -0.0151 -0.0669
31033W        W46502   9.377   1.966   3.321 -0.0581 -0.0900  0.1586
31034W        W46503   7.485   5.367   2.422 -0.0579  0.1680  0.3325
31035W        W46504   7.871   8.914   4.828 -0.1343 -0.1848 -0.0358
31036W        W46505   5.975   6.717   3.783 -0.0283 -0.1471 -0.0078
31037W        W46506   0.941   4.085  12.079 -0.1475 -0.5205 -0.0015
31038W        W46507   2.710   4.806   3.888  0.2196  0.1677  0.1774
31039W        W46508   6.695  10.218   3.772 -0.1457  0.1666 -0.1545
31040W        W46509  17.044  10.895  13.959 -0.0951 -0.0066  0.1916
31041W        W46510   0.652  12.699  15.803  0.0347  0.6049  0.4278
31042W        W46511   4.634   1.978  11.306  0.0806  0.0702  0.1452
31043W        W46512   1.802   5.102   5.225 -0.1714  0.1388 -0.3828
31044W        W46513  14.603   4.092  11.989 -0.0288  0.3347  0.2154
31045W        W46514  11.632  15.624   2.707 -0.1742  0.2086  0.0607
31046W        W46515  17.570   0.268   0.626 -0.2143 -0.0423 -0.3982
31047W        W46516  11.301   7.063  14.716  0.2178  0.0352 -0.0414
31048W        W46517  15.920   6.286   0.980  0.0049 -0.2017 -0.1923
31049W        W46518  15.550  17.773   2.966 -0.1990 -0.2473 -0.4112
31050W        W46519  12.739   0.500   3.552  0.0103  0.1434 -0.0097
31051W        W46520   8.879   3.688   5.355  0.1870 -0.0294 -0.0807
31052W        W46521  15.741   6.041   4.218 -0.0927  0.1840  0.1338
31053W        W46522  14.205   9.703  13.625 -0.0189  0.1165 -0.1721
31054W        W46523   9.542  10.470  13.694 -0.2787  0.0198  0.0683
31055W        W46524   2.911   0.339   3.248 -0.0685 -0.2121 -0.0166
31056W        W46525   0.136   2.971  12.855  0.1817 -0.2146  0.1417
31057W        W46526   6.249  16.262   2.403  0.1660  0.2336  0.1864
31058W        W46527   4.189  12.439   3.072  0.1625  0.1139  0.1094
31059W        W46528   6.568   3.999  14.996 -0.2804  0.1155 -0.2687
31060W        W46529   6.141  17.112   5.044 -0.0485  0.0574  0.0179
31061W        W46530  16.093  14.712   5.552 -0.0838 -0.0257 -0.0688
31062W        W46531  12.639  17.544   1.510 -0.2404  0.2788 -0.2660
31063W        W46532  15.626   5.484   2.612  0.0390 -0.0945  0.0312
31064W        W46533   0.341   0.244   2.787 -0.1149 -0.0178  0.0618
31065W        W46534  14.180  17.647   1.624  0.0046 -0.1682 -0.4229
31066W        W46535   5.765  13.985  15.182 -0.2275  0.4456 -0.1719
31067W        W46536   6.583   6.075  14.470  0.0008 -0.1109 -0.3849
31068W        W46537   1.988  10.804   4.877  0.0129  0.1407 -0.0446
31069W        W46538  11.755   3.034  12.612  0.0633 -0.1872 -0.1093
31070W        W46539  15.509  13.833   3.509  0.3048 -0.0529 -0.0053
31071W        W46540  13.804  11.900   4.949 -0.0989 -0.1424 -0.1391
31072W        W46541   0.628   5.651   1.880  0.1501 -0.1157 -0.4186
31073W        W46542   9.779  11.577   0.470 -0.1288  0.1029  0.0550
31074W        W46543   7.626   5.292   0.989  0.1368  0.0410 -0.0184
31075W        W46544  17.912  10.684  14.933 -0.0677  0.2586  0.1523
31076W        W46545  16.987   3.827  12.588 -0.1893 -0.2892  0.0916
31077W        W46546   4.223   6.606  13.967  0.0036  0.2175 -0.1986
31078W        W46547   9.781   8.547   1.931 -0.0978 -0.3442 -0.2062
31079W        W46548   5.967   8.417  16.395  0.0936 -0.1473 -0.0908
31080W        W46549  12.352  16.889  14.068  0.0108 -0.2869  0.0396
31081W        W46550   4.575   0.297  11.485  0.2178 -0.0387 -0.2455
31082W        W46551  17.534  10.225   0.213 -0.0026  0.3316 -0.0673
31083W        W46552  17.102   0.913  13.941 -0.1403 -0.0215 -0.2041
31084W        W46553   3.742   5.571  12.638 -0.1964 -0.1781 -0.0134
31085W        W46554   9.963  14.205   2.575  0.2859  0.2596 -0.0206
31086W        W46555   6.660  11.847  15.078  0.2375  0.1821 -0.0266
31087W        W46556  10.850  17.690   6.052 -0.2304 -0.0592 -0.1594
31088W        W46557   4.966  17.230  14.450  0.1010  0.1821 -0.3169
31089W        W46558  17.101   6.091  15.794  0.1123 -0.0590 -0.0584
31090W        W46559  13.357  17.678   4.334 -0.0912  0.1157 -0.0261
31091W        W46560   1.542   2.552   3.719 -0.0188 -0.0138 -0.2669
31092W        W46561  11.567  13.198  16.018  0.2497  0.3521  0.2709
31093W        W46562  12.023  10.502   4.479  0.2409 -0.3164  0.0614
31094W        W46563  16.807   8.905  12.139 -0.0952 -0.1801 -0.0073
31095W        W46564   4.571  12.193   4.970  0.2179  0.2297  0.1253
31096W        W46565   3.301   3.485   2.150 -0.0110  0.1957 -0.1036
31097W        W46566   9.099  17.214   1.459  0.1765 -0.2641 -0.1036
31098W        W46567  17.527  14.562  13.389 -0.2991  0.2061  0.0355
31099W        W46568  11.331  12.096  12.724 -0.1256 -0.3690  0.5114
31100W        W46569  10.034  15.592  16.170 -0.2476  0.0855 -0.0591
31101W        W46570  11.513  17.387   3.728  0.2543  0.1738  0.1969
31102W        W46571   0.464  10.738   1.864  0.3229 -0.0111  0.0867
31103W        W46572   8.493   2.250   6.093  0.1363 -0.1277 -0.2824
31104W        W46573   8.605  17.618  14.793  0.1063  0.0648  0.2872
31105W        W46574   1.592  14.079  13.426 -0.1507  0.2447  0.0569
31106W        W46575   1.896   2.472   4.748 -0.2243 -0.1387 -0.2045
31107W        W46576   4.736  14.874   0.718  0.0064 -0.2721 -0.1601
31108W        W46577  13.792  16.055   5.764  0.0722  0.1708 -0.0274
31109W        W46578   0.160   7.919   4.764  0.0739 -0.0169 -0.0844
31110W        W46579   8.757   0.566   3.618 -0.1690  0.0936  0.2002
31111W        W46580   2.550   1.813  15.709 -0.3632  0.3163 -0.2497
31112W        W46581  16.804  17.728   5.576  0.2200  0.2332  0.2579
31113W        W46582  15.283  13.542   0.359 -0.2783  0.3187 -0.2687
31114W        W46583  11.830   3.880  14.950  0.1699 -0.1886  0.0095
31115W        W46584  13.472  15.674  12.269  0.0888 -0.0860  0.1234
31116W        W46585   2.603  17.611  12.119  0.0042 -0.0278  0.0804
31117W        W46586  14.859   8.709  14.387  0.3628  0.0113  0.3881
31118W        W46587   5.482  15.302  14.386 -0.0720 -0.2165  0.0029
31119W        W46588  13.319   3.840   4.059  0.0041 -0.2322  0.1711
31120W        W46589   4.368  13.595   4.604 -0.2646 -0.0843  0.1109
31121W        W46590   0.260   4.884   3.191 -0.0431  0.2195  0.1359
31122W        W46591  10.550  16.223   0.293 -0.0195 -0.1030 -0.3320
31123W        W46592   1.677   2.633  12.267  0.0958  0.1096 -0.0692
31124W        W46593   9.473  17.274   5.128  0.0301 -0.0584 -0.0731
31125W        W46594  17.391  11.248   0.577 -0.4230  0.1372 -0.0812
31126W        W46595  17.276   6.688  13.136  0.1102  0.3169 -0.0825
31127W        W46596   2.021   3.996  13.055 -0.0871 -0.1470 -0.0587
31128W        W46597   9.989  16.781   1.061 -0.2107 -0.1035  0.0462
31129W        W46598  12.990   1.537   4.153 -0.0448  0.1125  0.1955
31130W        W46599  10.315   7.033   4.005  0.2620 -0.0590 -0.0262
31131W        W46600   0.827   6.874   1.940  0.1862  0.3140  0.0572
31132W        W46601  12.316   0.460   1.856  0.2002  0.0133 -0.3053
31133W        W46602   6.761   9.876   3.344 -0.1010  0.0370 -0.0634
31134W        W46603   4.992  15.740  13.674 -0.1458 -0.1447  0.0606
31135W        W46604   5.213  10.713  11.971  0.0405  0.1946  0.0832
31136W        W46605  13.945   1.617   0.598  0.1773 -0.1208  0.0980
31137W        W46606   4.124  13.780  13.403  0.1304  0.2850  0.2026
31138W        W46607  17.141   8.093   9.847 -0.1374  0.0458 -0.1711
31139W        W46608  10.323   3.933  15.185 -0.0806  0.0572  0.0357
31140W        W46609  15.181   6.628  15.792  0.1702 -0.0403 -0.0787
31141W        W46610  17.628   5.144  13.132  0.0137 -0.1803 -0.2374
31142W        W46611   9.778   9.574  14.013  0.1301 -0.2397  0.0318
31143W        W46612  10.202   0.877   1.957 -0.0207 -0.0861  0.2186
31144W        W46613   6.181  13.228   5.707 -0.0191 -0.0177  0.2442
31145W        W46614   1.736   5.540  13.587 -0.3058  0.0199  0.0147
31146W        W46615  12.211  16.910   3.540 -0.2758  0.2773  0.0873
31147W        W46616   3.586  13.078   2.606  0.3204  0.0905 -0.1348
31148W        W46617   6.655   1.286   4.095  0.1094 -0.0926 -0.1241
31149W        W46618   4.039   0.906  10.521  0.1496  0.1824 -0.0089
31150W        W46619   8.497   9.017   2.232  0.0685 -0.0240  0.1110
31151W        W46620   7.107  11.488   3.482  0.3653 -0.0991  0.2265
31152W        W46621   8.897   0.011   2.815 -0.0908  0.1395 -0.1778
31153W        W46622   7.863   7.911  12.079 -0.0075  0.0220 -0.1274
31154W        W46623   6.313   0.640  12.610 -0.1233  0.1262  0.2358
31155W        W46624   5.980   3.293  14.754  0.1370 -0.1553 -0.0447
31156W        W46625  11.797  11.005  12.874  0.0613  0.2554  0.2202
31157W        W46626  15.889   6.779  11.073  0.2716  0.0007  0.0204
31158W        W46627   0.107   7.711   0.774  0.0586  0.2344 -0.0542
31159W        W46628   0.595  11.479   1.094 -0.2226  0.0941 -0.0357
31160W        W46629   1.843  17.150   0.978 -0.0325 -0.0718 -0.1316
31161W        W46630   1.993  11.120   5.224 -0.0261 -0.0433 -0.0356
31162W        W46631  11.856  10.353   2.943  0.2971  0.1618 -0.1447
31163W        W46632  12.617  15.285   1.105 -0.0762 -0.0013  0.2668
31164W        W46633  17.876   4.246  15.207 -0.1702 -0.2382  0.1305
31165W        W46634  10.639  16.607   0.957  0.1287  0.0054 -0.2456
31166W        W46635  15.077   6.259  13.525 -0.2461  0.3190 -0.1839
31167W        W46636   9.154  16.766   4.914  0.2492 -0.0517  0.1811
31168W        W46637  12.669  10.821   5.062 -0.0866 -0.0236  0.0419
31169W        W46638   9.088   9.604  14.840 -0.1275 -0.0457 -0.2357
31170W        W46639   7.815  14.176   5.120 -0.0718  0.0140  0.0258
31171W        W46640  10.181   7.011  13.335 -0.2569  0.1026  0.3323
31172W        W46641  10.983  13.009   5.774  0.0689  0.0612  0.0021
31173W        W46642   5.898  13.788  11.785  0.0798  0.1430 -0.5059
31174W        W46643   4.204  11.324   0.484 -0.0201 -0.2147  0.0356
31175W        W46644  15.548   5.247  14.505 -0.0717 -0.1139 -0.2291
31176W        W46645  14.421   3.055   2.709 -0.2655  0.1923  0.3000
31177W        W46646   6.564   6.411  16.234 -0.0546 -0.2320 -0.0684
31178W        W46647   2.017   7.161   3.216 -0.1686 -0.1924 -0.1885
31179W        W46648   7.507  12.656  12.194  0.1115  0.0205 -0.2400
31180W        W46649   4.828   0.350  12.570 -0.0496 -0.0582 -0.3665
31181W        W46650   5.741  17.026  13.773  0.0290  0.1196  0.0933
31182W        W46651   6.751  14.743  11.803 -0.1158 -0.0248  0.2433
31183W        W46652  13.878   4.815  11.387 -0.3598 -0.1524  0.0697
31184W        W46653  16.351   0.011   3.956 -0.2903 -0.2495  0.0265
31185W        W46654   2.519   5.651  10.652 -0.0366  0.0546  0.0025
31186W        W46655  16.652   1.498  14.121 -0.0926  0.1076  0.0020
31187W        W46656   4.667  15.433  13.456 -0.0457  0.1961 -0.0887
31188W        W46657   8.392   9.404   1.876 -0.0627 -0.1638  0.0696
31189W        W46658   5.520  14.629   5.724 -0.1074 -0.0707 -0.3314
31190W        W46659   7.547   2.969   1.654  0.2439  0.2088  0.1662
31191W        W46660   1.052   1.881  16.208 -0.1278 -0.0960  0.0258
31192W        W46661  14.220   5.192   2.592  0.1141 -0.1664  0.0442
31193W        W46662   0.467  12.365   5.422  0.1019 -0.1900 -0.1200
31194W        W46663  12.324   4.262   1.045  0.0281  0.0614 -0.0817
31195W        W46664  11.787  10.733   1.828 -0.1016  0.1139 -0.1288
31196W        W46665  13.499  15.546  13.159 -0.2136  0.2128 -0.3567
31197W        W46666   0.103   3.108  14.311 -0.1161 -0.0269 -0.0313
31198W        W46667  15.598   3.577  12.800 -0.3590  0.0961 -0.2197
31199W        W46668   5.286  10.356   6.144  0.1288 -0.0276  0.2093
31200W        W46669  12.210   8.214   6.339 -0.1015 -0.2386 -0.0897
31201W        W46670   8.488   0.233   1.848 -0.0952 -0.0474  0.2840
31202W        W46671   5.608   5.908  12.549 -0.0184  0.1188  0.2410
31203W        W46672   9.356   7.792   6.297  0.1265 -0.0919  0.0768
31204W        W46673  14.863  16.579  12.059 -0.0518  0.0744  0.2579
31205W        W46674   7.528  13.990   4.267  0.2067 -0.1526  0.0656
31206W        W46675   2.907   4.479   2.298 -0.1465 -0.0869 -0.0158
31207W        W46676  13.411  17.075  12.414  0.2089  0.0802 -0.1221
31208W        W46677  17.544  15.432   1.005  0.0646 -0.0229 -0.2273
31209W        W46678   9.676   1.121   3.827  0.4289 -0.2258 -0.0909
31210W        W46679  17.561  15.933   5.352  0.2224 -0.3182  0.0535
31211W        W46680   7.648   3.222  15.730  0.1904  0.2138 -0.0815
31212W        W46681   5.415  17.171  16.256  0.0672  0.1405 -0.0282
31213W        W46682   9.676  13.872  11.790  0.0656 -0.4326  0.1315
31214W        W46683   5.872   7.856   3.244 -0.1740  0.0886  0.1058
31215W        W46684  12.909  15.731  13.861 -0.1503 -0.0646  0.0698
31216W        W46685   4.884  12.056   3.418  0.0342  0.0113 -0.2835
31217W        W46686   0.534   5.890   2.942  0.0473  0.2570 -0.0473
31218W        W46687   9.921  14.152   5.233 -0.2659  0.0048  0.0347
31219W        W46688  14.122   7.362   2.123 -0.0186  0.0050 -0.1925
31220W        W46689   5.138   5.834   6.046 -0.0626 -0.0561 -0.0581
31221W        W46690  12.480  15.925   5.474 -0.1766  0.1859 -0.2275
31222W        W46691  13.489   4.344   4.707  0.3097  0.1943  0.0759
31223W        W46692   7.054   8.972  16.120 -0.0475  0.0839  0.1472
31224W        W46693  13.445  11.735   1.921  0.0799  0.0003 -0.1769
31225W        W46694  16.129  14.031   5.078 -0.2732  0.1220 -0.0033
31226W        W46695   6.991   8.420   0.440  0.0761 -0.1180  0.2377
31227W        W46696  11.972  10.664  11.523 -0.1063 -0.1623  0.0819
31228W        W46697  11.717   9.131  12.214  0.3167 -0.1879  0.3614
31229W        W46698  12.721   2.366   3.146  0.2199  0.3104 -0.2119
31230W        W46699  14.806   8.925  11.017  0.1597  0.1814  0.0805
31231W        W46700  17.595   4.145   5.025  0.3164  0.2259 -0.5175
31232W        W46701  12.392  16.004   4.494  0.2571 -0.0966 -0.1579
31233W        W46702   8.173  10.611   3.713  0.1826  0.1228  0.0513
31234W        W46703  10.070  12.280   3.283  0.0076  0.0024  0.2270
31235W        W46704   5.292  14.094   5.767 -0.0409  0.1308  0.0152
31236W        W46705  17.199   2.873   3.120 -0.0818  0.2019  0.1283
31237W        W46706   8.026   8.174  14.796 -0.0934  0.1324  0.0070
31238W        W46707  13.271   1.176  13.612  0.2403 -0.0125 -0.0325
31239W        W46708   0.437  15.521  12.863 -0.0851 -0.1293 -0.0214
31240W        W46709  17.724  17.824  14.266  0.2190  0.0248  0.2227
31241W        W46710   9.876   4.821  13.346  0.1818  0.1945  0.0520
31242W        W46711   3.930   5.281   3.036  0.0569 -0.2195  0.0104
31243W        W46712  15.912   2.033  15.403 -0.1458 -0.1998  0.3505
31244W        W46713  16.905  17.891   0.845 -0.1129 -0.3334 -0.1465
31245W        W46714  11.714   6.807   0.478 -0.0778  0.1106  0.1414
31246W        W46715   3.626   3.914  16.130  0.0676 -0.1166 -0.3533
31247W        W46716   9.534   9.441   1.031 -0.1099  0.0833  0.3231
31248W        W46717   1.606   6.205  12.974  0.2775  0.2448  0.2055
31249W        W46718  10.543   4.524   0.327 -0.1345  0.0152 -0.0827
31250W        W46719   2.570  16.198   2.080 -0.3223 -0.0924  0.3955
31251W        W46720   8.539   7.670  12.426 -0.1016  0.1977  0.2036
31252W        W46721   2.848   5.867  12.844 -0.0964 -0.0848 -0.0925
31253W        W46722   1.123  17.661   2.981  0.0890  0.1472  0.1067
31254W        W46723   9.074   6.509   1.168 -0.0750 -0.0993 -0.0980
31255W        W46724  12.909   4.955   5.080 -0.0345  0.0413 -0.1123
31256W        W46725  14.142  11.078   0.806 -0.0303  0.0306  0.1517
31257W        W46726  12.367  12.521   1.195 -0.2810  0.3140 -0.1374
31258W        W46727  15.599   8.722   4.409  0.0076  0.2201 -0.1008
31259W        W46728   8.440   1.947  16.559 -0.2556 -0.1096 -0.0943
31260W        W46729   1.966   1.524   1.761 -0.0508 -0.5080  0.2904
31261W        W46730   2.531  14.443   1.463 -0.1869 -0.0703 -0.3007
31262W        W46731   5.146  15.019   0.940  0.1738  0.2614  0.1183
31263W        W46732   9.749  14.749   1.531 -0.2587 -0.1408 -0.0482
31264W        W46733   9.854   4.708  16.461  0.1529  0.0355 -0.0083
31265W        W46734   0.177  11.938  12.358 -0.1961  0.0906 -0.1805
31266W        W46735  16.940  14.049  14.139 -0.0634 -0.0992  0.0708
31267W        W46736   1.159  10.561   5.061 -0.1846 -0.0438 -0.0196
31268W        W46737   5.306  13.759   1.772  0.0832  0.1265  0.0593
31269W        W46738   2.024  10.143   4.068 -0.3833 -0.0761  0.0714
31270W        W46739   5.629  12.211   0.444 -0.0825  0.1337  0.1732
31271W        W46740   5.148  13.094   0.495  0.0877  0.0515  0.3179
31272W        W46741  16.989   4.512  11.875 -0.0302 -0.1192  0.1731
31273W        W46742  15.542   9.072  12.421 -0.1367 -0.0454 -0.1549
31274W        W46743  11.571  14.937   3.501 -0.1144  0.0185 -0.2258
31275W        W46744  15.918  16.789   5.122 -0.2941 -0.1014 -0.0346
31276W        W46745   9.691  16.775  14.375  0.1486  0.2068 -0.2593
31277W        W46746  10.023  15.562  14.347 -0.0610 -0.0463 -0.0474
31278W        W46747  11.584   3.457   6.257  0.1209 -0.2227 -0.1910
31279W        W46748   0.926  14.430   1.683 -0.3792 -0.0628 -0.0396
31280W        W46749   2.689  11.002  15.339  0.1913 -0.0377  0.0362
31281W        W46750   6.134  13.952  14.823  0.2147  0.2806 -0.0871
31282W        W46751  17.760   5.636  16.381 -0.2496 -0.0209 -0.0506
31283W        W46752   3.501  17.274  15.965 -0.2472 -0.3754  0.1306
31284W        W46753   0.207   4.142   4.507  0.1360 -0.4631  0.3408
31285W        W46754   7.338   1.887  12.282  0.0711  0.0131  0.0662
31286W        W46755  11.688  11.025   3.528 -0.2114  0.2082 -0.1765
31287W        W46756  17.262  16.630  15.096  0.0478  0.2395 -0.0200
31288W        W46757  12.963   5.052  13.221 -0.3289  0.0870  0.0619
31289W        W46758   0.587  17.977  14.043  0.3245 -0.0181 -0.0583
31290W        W46759   3.085   8.958  13.442 -0.0291  0.3318 -0.2417
31291W        W46760   6.939   6.565  16.480 -0.1690 -0.2717  0.0077
31292W        W46761   0.647  12.263   3.341  0.0120 -0.2742 -0.0704
31293W        W46762  14.907  12.807  12.108 -0.0508  0.0224  0.1633
31294W        W46763  11.631  12.194  12.238 -0.1371 -0.0793  0.1865
31295W        W46764  11.005   2.324  12.431  0.0440 -0.1320 -0.0415
31296W        W46765   9.085   1.821  15.854  0.3887  0.1085  0.0997
31297W        W46766  11.641   3.322  13.522  0.2409  0.0509  0.1990
31298W        W46767  15.954   2.214   3.156 -0.0034  0.0754 -0.1522
31299W        W46768   5.001  13.161  15.497  0.0124  0.1556  0.0483
31300W        W46769   3.528  17.925   5.477 -0.0032  0.1296  0.0001
31301W        W46770  16.464  11.965  14.588 -0.2661 -0.1211  0.1081
31302W        W46771  12.994   5.543  14.727 -0.0490 -0.0962  0.0801
31303W        W46772  12.803  12.166   4.654 -0.0737  0.2507  0.1482
31304W        W46773   6.662  12.877   2.503 -0.1251 -0.0870 -0.1425
31305W        W46774   6.804  10.485   2.709  0.3672  0.2438  0.1534
31306W        W46775   4.036  12.824   4.960  0.1511  0.0652  0.0411
31307W        W46776   4.653  15.633  11.803 -0.6169  0.1012 -0.2294
31308W        W46777  11.077   5.497   2.234 -0.0865 -0.2560 -0.1732
31309W        W46778  16.883  14.025  11.764 -0.0439 -0.0796  0.3321
31310W        W46779  17.436   6.650  11.734  0.2488  0.0568 -0.2221
31311W        W46780   1.489   3.724  11.277 -0.1061 -0.2133 -0.1739
31312W        W46781   0.742  12.127  13.727  0.3415  0.2139  0.4513
31313W        W46782   6.580  15.075  12.820  0.0175 -0.1555  0.0385
31314W        W46783   7.054  17.916  15.833 -0.2680  0.0179  0.0493
31315W        W46784  17.702  12.028  12.997 -0.2491  0.2302  0.2418
31316W        W46785   4.407  14.763   3.295  0.4714  0.1831 -0.0306
31317W        W46786  17.323   7.987   2.736  0.0254 -0.1693  0.4511
31318W        W46787  14.509   6.422  15.417  0.1658 -0.0649  0.1422
31319W        W46788  11.578   6.407   0.214  0.2697  0.0636  0.0541
31320W        W46789  11.702   0.427   4.317 -0.0683 -0.0450  0.1208
31321W        W46790   8.154  10.879   4.477  0.0481 -0.0900  0.0685
31322W        W46791  16.668   7.467  15.739 -0.1201 -0.1714  0.0267
31323W        W46792  13.970  17.257   2.272 -0.1630 -0.0953  0.0820
31324W        W46793  16.103   0.776  15.121 -0.1863  0.1019 -0.2498
31325W        W46794  15.671  14.188  13.802  0.2120  0.0272 -0.0888
31326W        W46795   2.242   2.647  14.361  0.2419  0.2591 -0.1496
31327W        W46796   7.700  14.314  13.203  0.4897  0.2471  0.1194
31328W        W46797   2.460   4.356  15.905  0.3049  0.2566  0.1188
31329W        W46798   7.151  10.459  14.171 -0.0016  0.3157 -0.0253
31330W        W46799   6.562  10.886  11.208  0.2119 -0.0536 -0.0839
31331W        W46800   8.997  10.166  15.626  0.3426 -0.0619  0.1766
31332W        W46801   0.241  14.749  12.968 -0.0350  0.1469  0.1900
31333W        W46802  12.212  16.920   4.675  0.2785  0.2300  0.2687
31334W        W46803   2.231   0.552  14.966 -0.0891 -0.2889 -0.0838
31335W        W46804  12.867   1.249   2.150  0.0043  0.3675 -0.1832
31336W        W46805   1.351   6.188  16.051  0.1203 -0.4181  0.1157
31337W        W46806   9.153   5.685   4.910 -0.4024 -0.0112 -0.2040
31338W        W46807   9.118   4.595   5.664  0.0155  0.0561 -0.0845
31339W        W46808  17.547   7.078  12.838 -0.1866  0.1905 -0.0543
31340W        W46809   6.060   4.903   0.426 -0.0969 -0.4177 -0.0690
31341W        W46810  15.559   2.077   0.378 -0.0656  0.0192  0.0096
31342W        W46811  11.714  12.029   2.121  0.1051 -0.1659  0.0517
31343W        W46812   5.964   0.970   1.597  0.1711  0.0369  0.1943
31344W        W46813  13.449  17.350  15.903  0.1178  0.2237 -0.4534
31345W        W46814   7.364  14.536  15.482  0.0588 -0.1617 -0.1316
31346W        W46815   7.556  12.730  11.183  0.0778 -0.0760  0.0494
31347W        W46816   3.386  17.921  13.336  0.0049 -0.1839 -0.0962
31348W        W46817   1.829   5.806   0.800 -0.2083 -0.2714  0.2668
31349W        W46818  16.644  10.279   5.135  0.3692  0.1782 -0.0875
31350W        W46819   6.427  16.675  12.537  0.3500  0.2047 -0.1110
31351W        W46820   2.415   8.807   1.951  0.6502 -0.2308 -0.3623
31352W        W46821   1.462   0.157   2.931 -0.0770 -0.0332 -0.0568
31353W        W46822   7.391   1.300   5.574 -0.2868 -0.0113  0.0871
31354W        W46823   5.565  15.156   5.736 -0.2168  0.2835  0.1572
31355W        W46824  11.347   9.903  12.590  0.1171  0.2271  0.1337
31356W        W46825  13.392   8.548   1.976 -0.1723 -0.1101  0.3054
31357W        W46826   6.274  13.321  16.333  0.0182 -0.0009 -0.1084
31358W        W46827  17.802  10.152   4.928  0.2252  0.1235 -0.1813
31359W        W46828   0.474  15.188   4.885  0.0086  0.2658  0.0495
31360W        W46829  16.558   5.477   0.792 -0.1496 -0.0927  0.1664
31361W        W46830  16.659  13.698  15.658 -0.2588 -0.0406 -0.1771
31362W        W46831  13.871  17.838   1.163 -0.3974 -0.2602 -0.1109
31363W        W46832   5.103   7.591   5.227 -0.1906  0.2655  0.0405
31364W        W46833  10.090  14.869  15.809 -0.0121  0.1591 -0.0203
31365W        W46834   4.749  12.886  11.187  0.0337  0.0924  0.1610
31366W        W46835   4.606  15.629  13.976  0.3661 -0.2395 -0.1186
31367W        W46836   7.936   8.142  12.611  0.1135  0.1119  0.0119
31368W        W46837   3.327  17.724   2.673 -0.1593 -0.2522  0.2773
31369W        W46838  14.508  13.319   4.198  0.1581 -0.2159  0.0607
31370W        W46839   8.528   9.098  14.981 -0.1318  0.1710  0.1323
31371W        W46840   0.492  13.612   0.801  0.2805 -0.1857 -0.0815
31372W        W46841   6.685  11.315  15.436  0.1119  0.1734 -0.1815
31373W        W46842   8.079   2.339   3.300  0.3220 -0.1556 -0.0071
31374W        W46843  16.263   5.142   2.569 -0.0716  0.1206  0.2659
31375W        W46844   3.156  17.793  14.439  0.2365  0.1418 -0.1513
31376W        W46845   8.913  11.945  13.007 -0.3524 -0.0945 -0.1706
31377W        W46846   9.254   5.450  15.257  0.1282 -0.2821  0.0992
31378W        W46847   6.013  12.468  11.830  0.0962 -0.1812  0.2624
31379W        W46848   5.508   7.575  16.206  0.0869  0.6444  0.0376
31380W        W46849   1.532  17.023   2.662 -0.1843 -0.0973 -0.2905
31381W        W46850   5.675  14.054  15.920  0.1647  0.1003  0.1427
31382W        W46851   3.131   9.854  15.671  0.2217 -0.0302 -0.1171
31383W        W46852  11.112  13.796   1.173  0.2525  0.0120  0.2297
31384W        W46853  12.900  14.533  11.440  0.1317  0.1687 -0.0922
31385W        W46854  11.836  17.601   6.353  0.2483 -0.1968 -0.3340
31386W        W46855  13.053   2.340   0.120  0.3136  0.1569  0.1122
31387W        W46856   0.978  17.818   3.825 -0.1836  0.0498  0.1615
31388W        W46857   3.606   9.591  15.669  0.2826 -0.2666 -0.2195
31389W        W46858   6.128  17.877   2.387 -0.1870  0.1287 -0.0389
31390W        W46859   5.853  16.152   3.785  0.2393  0.4353 -0.0180
31391W        W46860  13.291   2.930  16.134  0.0630 -0.2482 -0.0905
31392W        W46861   9.496   9.586   4.625  0.0890 -0.1888  0.3442
31393W        W46862  14.997  11.599  14.253 -0.2958 -0.0106 -0.1538
31394W        W46863  14.301  17.938   2.180  0.0438 -0.2617  0.0698
31395W        W46864   0.688   0.464   2.447  0.5944  0.3228 -0.0963
31396W        W46865  17.233  16.726   0.183 -0.1660 -0.1166 -0.0665
31397W        W46866   7.474  15.216   0.086 -0.2554  0.1591  0.0482
31398W        W46867  12.055   9.044   5.869  0.1315 -0.0585  0.0294
31399W        W46868  16.790  10.586  16.209  0.0883  0.1939 -0.1767
31400W        W46869  15.931  10.816   2.879  0.0327  0.1254 -0.0831
31401W        W46870  14.135   9.691  14.898  0.4462 -0.1041  0.0829
31402W        W46871   3.162  13.150  14.484  0.0880  0.0144 -0.0793
31403W        W46872  11.856   9.702  15.674 -0.0063 -0.1753 -0.0526
31404W        W46873  16.819  11.828   5.860 -0.0805 -0.2085 -0.3485
31405W        W46874  10.276   1.709  15.638 -0.1056  0.0966 -0.0208
31406W        W46875   6.266   4.881  12.123  0.1697 -0.1843 -0.0764
31407W        W46876  16.173  13.705  14.518 -0.0899 -0.1711 -0.0733
31408W        W46877  17.021   8.639  13.925  0.0483 -0.0540 -0.0285
31409W        W46878   4.065   3.666  14.376 -0.0920  0.1028  0.0597
31410W        W46879  16.854   0.375   1.144  0.0348  0.0426  0.1773
31411W        W46880  16.682   9.981  15.498 -0.0967  0.0011 -0.1710
31412W        W46881  17.773  10.581   3.292 -0.0388 -0.0652  0.2314
31413W        W46882  10.860   7.257   2.575 -0.0938  0.1599  0.2401
31414W        W46883  13.312   7.586   5.370  0.1897  0.0527 -0.1836
31415W        W46884  12.364   4.211  14.383 -0.1364 -0.2523 -0.1590
31416W        W46885  17.691   3.023   0.412  0.1430  0.1524 -0.1907
31417W        W46886   8.531  15.110   1.688  0.2216 -0.0125  0.0094
31418W        W46887  17.372   8.981  13.030  0.5346 -0.1397  0.0883
31419W        W46888  11.828   8.743  13.154  0.2143 -0.2135  0.1463
31420W        W46889   9.874  10.509   4.504  0.0173 -0.0083 -0.0503
31421W        W46890   4.221  10.296   1.999 -0.0798 -0.2946 -0.2338
31422W        W46891   9.208  17.210   0.962 -0.1369 -0.1565 -0.3029
31423W        W46892   7.128  11.747  12.207  0.0346  0.0912 -0.0057
31424W        W46893  14.730  13.537   4.657 -0.1420 -0.0866 -0.3157
31425W        W46894   7.811   7.889   5.040  0.0044  0.0630  0.2186
31426W        W46895  14.844  14.587  15.247  0.1590 -0.2329 -0.0872
31427W        W46896   3.777  15.800   3.567 -0.0539 -0.1701  0.1603
31428W        W46897  16.420  12.589  13.196  0.0665 -0.1876  0.0274
31429W        W46898   4.991   8.978  12.303 -0.1528  0.0041 -0.0851
31430W        W46899   8.247   0.622  13.249  0.0295 -0.0180  0.2606
31431W        W46900   6.837   3.740   0.760  0.1036  0.2197  0.1265
31432W        W46901  14.533  11.710   4.332  0.1212 -0.1534 -0.0860
31433W        W46902  13.924   3.240  15.360  0.0404 -0.3490 -0.1787
31434W        W46903  14.736   6.085   2.798 -0.1603 -0.2723  0.0446
31435W        W46904   5.783  13.504  16.521 -0.2618 -0.1281  0.3255
31436W        W46905  17.641   9.417  13.114 -0.0091  0.0226  0.0866
31437W        W46906  11.342   1.461  13.865 -0.1159  0.2753  0.0318
31438W        W46907  14.450  13.004  12.774 -0.0009 -0.3553  0.3572
31439W        W46908  12.768   4.073   4.875 -0.2510  0.0829  0.2204
31440W        W46909  15.947  14.584  15.891 -0.1273  0.2271 -0.0168
31441W        W46910   7.090  14.091  16.356 -0.1920 -0.0603  0.0434
31442W        W46911   4.274   2.944  13.668 -0.5150 -0.0650 -0.0744
31443W        W46912  13.522  11.090   2.378 -0.2741  0.0221 -0.2968
31444W        W46913  13.766  17.735   0.112 -0.1367 -0.0011 -0.1824
31445W        W46914  16.601  14.423   3.842  0.1186 -0.1300 -0.2407
31446W        W46915   1.244   2.088   0.556  0.0133 -0.1088  0.1134
31447W        W46916   3.539   6.114   0.522  0.2412 -0.0362 -0.1512
31448W        W46917  13.393  14.437   2.887  0.1484  0.1825  0.0626
31449W        W46918   4.462   0.535   2.437  0.0332  0.1060  0.0915
31450W        W46919  10.229  15.072  11.848 -0.2467 -0.0889  0.0450
31451W        W46920  17.033   1.747  11.904 -0.0293  0.0773  0.2704
31452W        W46921   6.538   9.120   2.127  0.0941 -0.2003  0.2638
31453W        W46922   4.065  15.150  15.225  0.3168 -0.1329  0.0610
31454W        W46923   6.461  15.329  13.247 -0.0351  0.0387  0.2170
31455W        W46924  14.618   0.317   2.192  0.0581 -0.0928  0.0809
31456W        W46925  15.496  12.876  15.424  0.0504  0.0848 -0.0786
31457W        W46926  12.657   4.851   4.625  0.0537 -0.1050 -0.1637
31458W        W46927   3.615  12.202  14.513 -0.3188  0.2176 -0.1098
31459W        W46928  11.657   1.944  10.405 -0.1182  0.2372 -0.0641
31460W        W46929  11.704   7.254  13.457  0.1783 -0.2831 -0.1372
31461W        W46930  14.152   7.041   4.348 -0.0399  0.2933 -0.0577
31462W        W46931  15.705   4.463  16.203 -0.0079  0.1939  0.1572
31463W        W46932  10.793   2.946   1.190 -0.2512  0.1901  0.1824
31464W        W46933  16.222   6.900   4.997  0.0581  0.2041 -0.0950
31465W        W46934  13.874   1.455  14.402  0.0685 -0.1601 -0.5461
31466W        W46935   0.592   0.883   0.737  0.0242  0.0805  0.0067
31467W        W46936  17.357   4.493   4.667 -0.3069  0.0118 -0.0954
31468W        W46937   4.900   2.113   0.934 -0.0224 -0.2512 -0.1939
31469W        W46938  17.438   4.090  13.994 -0.0109  0.0464  0.3719
31470W        W46939   2.044   3.242  15.042  0.2062  0.2634  0.2328
31471W        W46940  11.776   4.983   1.936  0.1594  0.1822  0.1786
31472W        W46941   3.439   4.552  15.598  0.5231  0.1912 -0.3630
31473W        W46942  17.348   7.192   4.283  0.2792  0.1599  0.3524
31474W        W46943   5.165  17.844   2.641 -0.2963 -0.3449 -0.0316
31475W        W46944  12.214   8.405  13.807 -0.1765 -0.2221  0.0350
31476W        W46945  12.790  11.747   2.800  0.3417  0.2148  0.1409
31477W        W46946   4.979  16.480   4.065 -0.0409  0.0750 -0.0641
31478W        W46947   9.653   5.072   4.314  0.3249  0.1654 -0.1261
31479W        W46948  14.063  16.721  14.227 -0.0257 -0.3279  0.1274
31480W        W46949  11.558   1.382  15.405 -0.1846 -0.1818 -0.3379
31481W        W46950   1.888  17.404  14.565 -0.0912  0.0330  0.0592
31482W        W46951   8.526  16.609   2.134 -0.4614 -0.0534  0.1990
31483W        W46952   0.527   2.046   0.765 -0.2184  0.1048  0.0737
31484W        W46953   6.023  16.941   1.644  0.1893 -0.1142  0.2672
31485W        W46954  13.231  11.083   1.948  0.0170  0.0819  0.0798
31486W        W46955  14.975   5.437  15.178  0.0556  0.0187  0.1152
31487W        W46956   2.283  12.720   1.664 -0.2517  0.0870  0.0616
31488W        W46957  13.408   9.074   2.796 -0.0006  0.0646 -0.1446
31489W        W46958   3.442   7.727  10.688  0.1025  0.0986  0.1471
31490W        W46959  12.427   8.219   3.360 -0.0158 -0.3246  0.2467
31491W        W46960  10.682  16.559  14.378  0.0404  0.1829  0.0632
31492W        W46961  12.694   8.346  16.508  0.3500 -0.2261 -0.2404
31493W        W46962  17.167  11.321  11.409 -0.0902  0.1286  0.2594
31494W        W46963   8.603   6.117  13.291  0.1046 -0.3130 -0.3225
31495W        W46964   8.739  16.316   1.276  0.3955  0.3046  0.2863
31496W        W46965  12.124  16.864  15.388 -0.0390  0.0242 -0.1840
31497W        W46966   0.343  11.732   3.021 -0.3181 -0.0172 -0.2383
31498W        W46967  11.470  12.644  15.687  0.0524 -0.0140  0.0983
31499W        W46968  13.100  14.013  14.737  0.0785 -0.1869  0.0618
31500W        W46969  10.862  10.036  12.787 -0.0360  0.0864  0.1474
31501W        W46970  15.391   8.468   4.019  0.2174 -0.2254 -0.1805
31502W        W46971   7.852  13.154   5.939  0.1509 -0.2699  0.1171
31503W        W46972  15.099   1.902   3.914  0.1114  0.1811  0.0787
31504W        W46973  10.928   9.468   5.078 -0.1737  0.0338 -0.4648
31505W        W46974  11.422  13.822  16.471  0.0089 -0.0977 -0.1275
31506W        W46975  13.618  15.697  16.153  0.1565  0.0131 -0.1074
31507W        W46976  12.899   9.792  12.708 -0.1693  0.1925  0.1477
31508W        W46977   8.363  12.297   5.158 -0.0336 -0.0088 -0.1732
31509W        W46978  17.763   9.220  16.011  0.0222  0.1906  0.1844
31510W        W46979   2.801  17.416   1.858  0.1027 -0.1383  0.0286
31511W        W46980  10.321  12.189  14.011 -0.1487 -0.0934  0.1425
31512W        W46981   1.856  12.771  11.887  0.2879 -0.4434  0.0732
31513W        W46982  14.465   1.047  13.998 -0.3367  0.0921 -0.0695
31514W        W46983  10.768   3.684  15.979  0.2963 -0.0190 -0.2504
31515W        W46984   5.712  12.610  14.427  0.1806 -0.1276  0.0119
31516W        W46985   8.411   0.571   0.546  0.0135  0.1995 -0.2488
31517W        W46986   7.904   2.698  15.928 -0.1382  0.0700 -0.0472
31518W        W46987   1.384  11.113   3.469 -0.0059  0.1347  0.2703
31519W        W46988  17.492   7.230   1.441  0.0426  0.0866  0.2052
31520W        W46989   3.572  15.649   3.971  0.0201 -0.0372 -0.1380
31521W        W46990  15.987  10.883  16.291 -0.2536 -0.0683  0.3768
31522W        W46991  16.968   9.088  10.812 -0.1297  0.1381 -0.0784
31523W        W46992  11.078  10.762  14.345  0.0987  0.0360 -0.1741
31524W        W46993  12.418   7.040  13.848  0.1070  0.2303 -0.0696
31525W        W46994  10.350   3.223   2.424  0.0543 -0.1387  0.2326
31526W        W46995  16.585   0.809   0.096  0.2222  0.1123 -0.0269
31527W        W46996   7.556  11.682  14.423 -0.0012  0.3949  0.1581
31528W        W46997   8.756   4.444  13.035 -0.1810 -0.2106 -0.0905
31529W        W46998   7.541   1.072   2.665 -0.2047 -0.2154 -0.1594
31530W        W46999   7.871   7.936   1.519 -0.2320 -0.4537 -0.1638
31531W        W47000   3.110   5.649  14.405 -0.2336 -0.2282  0.3466
31532W        W47001  15.757   8.469  12.517  0.2413  0.1125 -0.0950
31533W        W47002   4.951   0.675   2.510  0.0097 -0.3512 -0.0379
31534W        W47003  15.731   5.581  15.649 -0.2028 -0.2757 -0.0844
31535W        W47004   2.698  10.933   2.316  0.4213  0.1218 -0.3252
31536W        W47005   2.715  17.790   5.241 -0.0620  0.0860 -0.0465
31537W        W47006   1.181  13.524   4.563  0.2946  0.3892 -0.0519
31538W        W47007   2.331  15.305  16.032 -0.2027  0.0119 -0.0233
31539W        W47008   0.106   5.457   5.137 -0.2369  0.0610 -0.0571
31540W        W47009  15.933   3.130  15.653 -0.2115  0.0891  0.1474
31541W        W47010  16.956   2.308   3.998  0.0725  0.1818 -0.3764
31542W        W47011  12.490   1.563   1.144  0.0767 -0.2184 -0.0391
31543W        W47012   3.418  14.436   5.443  0.1054  0.1687 -0.2179
31544W        W47013  15.823   8.548  10.778 -0.3307  0.0260  0.0929
31545W        W47014  14.949  12.953   0.283  0.2912 -0.1058 -0.0582
31546W        W47015   2.099  17.919   4.907  0.1512  0.2620  0.0363
31547W        W47016   1.521  14.111  14.824  0.0280 -0.2004 -0.2619
31548W        W47017   9.437  15.456   0.238 -0.2263  0.0293 -0.0900
31549W        W47018   9.414   5.072   2.051 -0.1577  0.2189  0.1296
31550W        W47019   4.111  13.348   4.951  0.1083  0.1872 -0.0819
31551W        W47020  12.271  10.427  16.157  0.0853 -0.0376  0.0128
31552W        W47021   7.634   6.654   1.797 -0.0686 -0.0113 -0.0888
31553W        W47022  17.132   9.366   1.614 -0.0792  0.1326  0.0535
31554W        W47023   4.770   1.813   1.991  0.0766  0.0064 -0.2048
31555W        W47024  11.480   7.328   5.187  0.0915  0.3690  0.0509
31556W        W47025  15.783  16.239   3.916 -0.1920 -0.5056  0.0744
31557W        W47026   3.067   7.120  16.391 -0.1923  0.0743 -0.2260
31558W        W47027  17.913   9.380   0.802 -0.2109 -0.0185 -0.1251
31559W        W47028   5.574   2.508  15.871  0.0822  0.2178 -0.1441
31560W        W47029  16.213  11.937   3.359 -0.1926  0.1854 -0.1455
31561W        W47030   5.678   6.411  10.785  0.1978  0.1832 -0.4044
31562W        W47031   3.062  12.847   3.622  0.1110  0.1778 -0.0395
31563W        W47032   6.241  17.311  12.848  0.3039 -0.1385 -0.1437
31564W        W47033   3.321  12.241  14.930 -0.0530 -0.2996  0.2498
31565W        W47034  15.191   4.367  15.420  0.1724  0.0565 -0.0866
31566W        W47035   4.230   2.094   5.414 -0.0109 -0.2964 -0.0627
31567W        W47036   0.738   1.307  11.174  0.1702 -0.2111  0.1861
31568W        W47037   3.445  10.366   3.840  0.2846  0.0029 -0.2267
31569W        W47038  17.078   1.399  13.829 -0.0758  0.1644 -0.1643
31570W        W47039   5.398   9.127  13.017  0.0560  0.1786  0.1698
31571W        W47040   7.860  15.450  11.761 -0.0682 -0.0847 -0.0126
31572W        W47041  14.870   7.752   3.316  0.1127 -0.0369 -0.2502
31573W        W47042  15.464  17.873  15.155  0.2130 -0.0154  0.1328
31574W        W47043   3.949  16.652  16.582  0.0177  0.0535 -0.0578
31575W        W47044   1.146   2.580   5.610 -0.2255 -0.0349  0.1734
31576W        W47045  12.799  14.187  11.855  0.1658 -0.3219 -0.0487
31577W        W47046   6.133  11.180  15.253 -0.1251 -0.3434  0.3579
31578W        W47047   1.368  14.553   2.906 -0.1271  0.3707 -0.0804
31579W        W47048  12.257   1.439  11.385  0.1623  0.1342 -0.0039
31580W        W47049   5.967  12.359   0.086  0.0656 -0.2038 -0.3804
31581W        W47050  16.097   8.874  14.964 -0.0829  0.2722 -0.1133
31582W        W47051   8.563   9.550  14.778 -0.1218  0.1468 -0.3819
31583W        W47052   8.973  15.929  11.858 -0.2127  0.0774  0.0127
31584W        W47053   9.140  11.052   4.094 -0.2304 -0.0131  0.0092
31585W        W47054   5.092  16.447   3.248  0.0018  0.1160 -0.0230
31586W        W47055  15.036  14.246  11.002 -0.0742 -0.1392 -0.1568
31587W        W47056   1.660   3.868  11.734  0.1983 -0.2459  0.1327
31588W        W47057   1.030   4.915  15.271 -0.3248  0.1098  0.2613
31589W        W47058  11.581   3.829   1.676 -0.1327 -0.0933 -0.1057
31590W        W47059  13.707   4.779  13.733  0.2883 -0.0789  0.1875
31591W        W47060   1.110  15.932  13.154  0.0540  0.1518 -0.0699
31592W        W47061   9.830  13.233   1.360  0.0312  0.1166  0.1388
31593W        W47062   1.538   1.012   2.183  0.2531 -0.0344  0.2536
31594W        W47063  12.902   5.832  15.162 -0.4625  0.0420  0.0562
31595W        W47064   7.371  12.335   4.974  0.0778  0.2232  0.1720
31596W        W47065  14.074   4.743  14.071  0.0173  0.0641  0.1949
31597W        W47066   3.169   7.509   0.627  0.0847  0.0615 -0.1211
31598W        W47067  10.123   7.437  12.177  0.0441 -0.2082  0.0278
31599W        W47068  11.521  15.053   2.985 -0.3251  0.1244 -0.2557
31600W        W47069   1.721  16.912   3.143  0.0237  0.1037  0.1661
31601W        W47070   3.625  13.727  15.406  0.2433  0.0896 -0.3263
31602W        W47071  14.315   8.119  14.735  0.0879 -0.2171  0.0670
31603W        W47072   0.116  14.342  14.956  0.0887  0.0527  0.0751
31604W        W47073  15.033  12.027   1.916  0.0275  0.0203 -0.2664
31605W        W47074  11.171  12.648   2.379 -0.0096 -0.1618 -0.1548
31606W        W47075  17.794  16.904  13.315  0.0572 -0.3529  0.1801
31607W        W47076   8.727   9.460  15.848  0.0956  0.0876  0.1534
31608W        W47077   9.679   3.162   5.189 -0.3674 -0.2054 -0.1005
31609W        W47078   0.291  11.466  10.756  0.0848 -0.4476  0.0557
31610W        W47079   5.911   6.357   3.448 -0.0816 -0.1435  0.1756
31611W        W47080  13.844   9.685   3.791 -0.2237 -0.0151  0.1609
31612W        W47081   3.558   6.925  12.317  0.0285 -0.2155  0.0130
31613W        W47082  15.877  13.988   1.785 -0.1473  0.2056 -0.0892
31614W        W47083   1.501   4.875   1.327 -0.1353  0.2027  0.0096
31615W        W47084   4.311   6.041  15.978 -0.1711  0.1691  0.0969
31616W        W47085  10.552   6.911  14.686  0.2770  0.0031 -0.1592
31617W        W47086   2.995   3.380  13.030  0.3260  0.2597  0.0702
31618W        W47087  17.017   4.133   3.325 -0.0224 -0.0405 -0.2284
31619W        W47088  13.853  11.839  15.504  0.1810 -0.6762  0.2255
31620W        W47089   1.220   6.663   2.236  0.1241  0.2342  0.0095
31621W        W47090  17.079   9.412   5.317 -0.3888 -0.0966  0.1770
31622W        W47091   3.727   7.998  15.925  0.1976  0.0228  0.1272
31623W        W47092  17.708   1.476   5.476  0.2199 -0.0757  0.3291
31624W        W47093  16.787  12.318  11.292 -0.0641  0.0226  0.0629
31625W        W47094  15.293  12.730  14.139  0.3461  0.2391  0.2727
31626W        W47095   7.479  16.474   1.258  0.2021  0.0851 -0.1136
31627W        W47096  16.788   1.831   3.907 -0.0651 -0.3272 -0.1468
31628W        W47097  11.214  11.560   1.589 -0.0146 -0.0547 -0.2090
31629W        W47098   7.827  17.996   4.853 -0.2279 -0.1614 -0.1333
31630W        W47099   7.731  15.191  13.828 -0.2409  0.1117  0.0893
31631W        W47100   8.908  14.106   4.242  0.2882 -0.2621  0.2748
31632W        W47101   4.703   9.804   1.434 -0.0590  0.1518  0.0949
31633W        W47102  14.030   6.611  15.407  0.1121 -0.0709  0.0924
31634W        W47103   6.354  14.424  15.278 -0.2627 -0.0335  0.2923
31635W        W47104  14.028  12.431  11.717 -0.0746  0.0976  0.0879
31636W        W47105   9.345  17.189  13.388  0.2339  0.0552 -0.2098
31637W        W47106   5.549   4.612  14.626  0.0339  0.0672 -0.1324
31638W        W47107   6.539  10.360  15.817 -0.1505 -0.1388  0.0366
31639W        W47108   7.923   8.130   2.963  0.2328 -0.0146 -0.1630
31640W        W47109  10.531   2.617  15.537 -0.1781 -0.0832 -0.1064
31641W        W47110   5.589  15.429  16.108  0.3339  0.0264 -0.0428
31642W        W47111  11.692   8.615   2.960  0.0416 -0.0505  0.0337
31643W        W47112   7.528   5.006  15.278 -0.2027 -0.0418  0.3393
31644W        W47113  15.007  15.848  16.257  0.2743 -0.0379 -0.1400
31645W        W47114  10.198  15.800   0.492 -0.1906 -0.1744  0.1651
31646W        W47115  17.953  10.014  14.882 -0.0955  0.1010 -0.0015
31647W        W47116  17.526  13.266  11.605 -0.0142 -0.1270 -0.0501
31648W        W47117   4.505   6.645  11.855  0.1165  0.0273  0.0504
31649W        W47118   9.150   6.756  14.888  0.1361  0.0713  0.0961
31650W        W47119   1.817  17.262  15.434 -0.3482 -0.0984 -0.1403
31651W        W47120  11.968  12.448   0.960  0.2229 -0.0572  0.0292
31652W        W47121  13.796   8.472   4.119  0.4041  0.0696  0.2481
31653W        W47122   8.115  15.792   4.609 -0.1238 -0.5867 -0.0589
31654W        W47123   4.791   0.091   0.459 -0.2299 -0.1339 -0.0461
31655W        W47124   6.512   7.643   5.121  0.0851  0.0299  0.0819
31656W        W47125   0.281   3.088   0.454  0.1420  0.1504  0.0733
31657W        W47126   3.609   2.106   3.845 -0.1643  0.2491 -0.1782
31658W        W47127  14.278  13.398  12.510  0.0590  0.1404 -0.1150
31659W        W47128  16.031   5.745   3.222 -0.0489 -0.2051  0.4566
31660W        W47129   7.108   9.009  13.716  0.2028 -0.1727 -0.0951
31661W        W47130   0.920   4.150   1.080 -0.1186 -0.1498  0.0659
31662W        W47131   7.650   9.322   3.510 -0.1061  0.0565 -0.1243
31663W        W47132  13.017   2.836  15.177 -0.1209  0.1958 -0.3900
31664W        W47133   2.662  17.073   0.510  0.0278  0.0766  0.1089
31665W        W47134   2.562  11.617   2.410  0.0322  0.2789 -0.0146
31666W        W47135  14.610   8.367  11.525  0.1619  0.0430 -0.0641
31667W        W47136  14.625   3.795  12.658  0.4865  0.1181  0.2472
31668W        W47137  14.232  17.937  16.021  0.2036  0.0948  0.0817
31669W        W47138  16.042   4.245  15.328  0.0440 -0.1215  0.1073
31670W        W47139   7.899   1.847   1.020  0.1306  0.2511  0.0907
31671W        W47140   4.761   6.945   0.430 -0.0456  0.1747  0.1653
31672W        W47141   9.724   3.636  12.461  0.0422  0.3548 -0.2271
31673W        W47142   0.443  14.240  16.437 -0.1800  0.0343  0.0051
31674W        W47143   8.142  14.696   1.873  0.2703 -0.1913 -0.0492
31675W        W47144   3.224   9.846   4.568  0.1498  0.1921  0.2613
31676W        W47145   3.960  14.476  12.105 -0.0864  0.1227  0.3852
31677W        W47146   5.871   6.894  13.515 -0.0655 -0.0738  0.0658
31678W        W47147  14.980  14.346   2.670 -0.0550  0.1723  0.0619
31679W        W47148  12.507  11.863  16.176 -0.1112 -0.0661  0.2147
31680W        W47149   6.565   7.513  11.192  0.0125 -0.3093 -0.1368
31681W        W47150   9.159   1.929  13.052  0.1033 -0.0117 -0.0639
31682W        W47151   5.179  17.040  14.023  0.1133  0.2195 -0.0160
31683W        W47152   7.169  17.030   5.885 -0.2009  0.3020 -0.0370
31684W        W47153   7.631   6.592   4.360 -0.0013  0.3280  0.2401
31685W        W47154   5.945  15.126  15.961  0.5226 -0.3144 -0.2012
31686W        W47155  16.188  14.596   0.221 -0.2158 -0.0529  0.0433
31687W        W47156   7.921   0.413   3.977  0.0136  0.0108  0.0935
31688W        W47157  17.381  13.247   1.217  0.1653 -0.0198  0.1089
31689W        W47158   0.889  11.304  16.161  0.3060 -0.2283  0.2932
31690W        W47159   5.335  11.036   4.357 -0.1851  0.2282  0.0199
31691W        W47160   3.243  16.913  14.638 -0.3721 -0.3691 -0.1429
31692W        W47161   8.398   3.846   1.673 -0.0347  0.1604  0.1942
31693W        W47162   1.807   1.757  14.633  0.1318 -0.1808  0.1504
31694W        W47163   6.894  10.351   2.179  0.2239 -0.0069 -0.1207
31695W        W47164   1.621  14.510  14.505 -0.1596 -0.2467 -0.0440
31696W        W47165   8.557   2.644   1.933  0.1848  0.2375  0.3085
31697W        W47166   3.064   2.481   4.459 -0.0216  0.1121 -0.2364
31698W        W47167   4.914  15.836   2.103 -0.2949  0.1169  0.1153
31699W        W47168   1.825   2.318  14.400  0.0394 -0.0961  0.1097
31700W        W47169   4.599   9.559  10.767 -0.1183  0.2744  0.0590
31701W        W47170   1.628   5.184  11.566 -0.0262 -0.0164 -0.2122
31702W        W47171  14.489   2.043   3.325 -0.0305 -0.1998  0.0870
31703W        W47172   4.524  14.393   4.293  0.5069 -0.0376 -0.1089
31704W        W47173  12.394  17.728  14.122  0.1584  0.2625  0.2211
31705W        W47174   4.161   1.916   2.794 -0.0228 -0.3962  0.0155
31706W        W47175  17.484   8.510   2.264  0.1344  0.0172 -0.0063
31707W        W47176  11.976  12.376  14.855 -0.0543  0.4159 -0.1023
31708W        W47177   9.668  12.129  15.359 -0.1378 -0.1587 -0.1255
31709W        W47178  15.576   2.671  16.582  0.1327  0.4273 -0.0880
31710W        W47179   0.315  11.640   2.416  0.1539  0.2950  0.1177
31711W        W47180   4.741   7.154   2.279  0.1959  0.1861  0.0086
31712W        W47181   3.735   5.118   0.446 -0.1597 -0.0665  0.0089
31713W        W47182  10.612   1.971   3.270 -0.1508  0.2040  0.2903
31714W        W47183  12.669   1.100   4.431  0.2043 -0.0001  0.0575
31715W        W47184   3.452  15.165  12.213 -0.0510  0.1410  0.1465
31716W        W47185   4.681  15.592   2.716  0.1895  0.1137  0.1156
31717W        W47186   9.024  10.246  14.279 -0.0017 -0.0413  0.1798
31718W        W47187   6.082   7.222   3.875  0.2658  0.1554  0.1082
31719W        W47188  17.604   5.356   3.695  0.1242 -0.0049 -0.1365
31720W        W47189   6.646  16.014   6.096  0.3403 -0.1371  0.3256
31721W        W47190  16.530  12.829  12.712 -0.3386  0.1975  0.1735
31722W        W47191  13.151   9.477   4.543 -0.1466 -0.0334  0.2403
31723W        W47192   6.738  14.628   0.286  0.0818 -0.2736 -0.0823
31724W        W47193   6.243  10.014   4.489 -0.1817 -0.1238 -0.1706
31725W        W47194  13.264  16.533  15.781  0.0158 -0.2012  0.2456
31726W        W47195   6.657  16.591  14.362 -0.1740  0.2407 -0.4100
31727W        W47196   8.485   6.316   0.498  0.1272 -0.2353 -0.3454
31728W        W47197  16.729  10.996  15.048 -0.0002 -0.1832 -0.2153
31729W        W47198   4.385  13.504   2.414 -0.0309  0.0463  0.3086
31730W        W47199   8.155   4.473   0.607 -0.0691  0.2303 -0.2664
31731W        W47200  16.619   4.569  14.357  0.4464  0.0763 -0.2740
31732W        W47201   2.221   4.987  13.075  0.0148  0.0764 -0.4661
31733W        W47202   2.356  13.727   3.310 -0.1197 -0.0264  0.0957
31734W        W47203  11.500  11.603  14.655 -0.0014 -0.0261 -0.2465
31735W        W47204  13.635   9.458  15.145  0.3452 -0.3928 -0.0724
31736W        W47205  10.198  15.387   3.666  0.3311  0.0062  0.4296
31737W        W47206   2.143  11.239  11.702 -0.0939  0.1671 -0.0486
31738W        W47207   2.772   0.615  11.481  0.3086 -0.0493  0.0784
31739W        W47208   6.117   9.934   4.978 -0.6807  0.0144  0.3006
31740W        W47209   1.707   2.489   3.261  0.3350  0.0622 -0.1721
31741W        W47210   6.391  10.822   1.526 -0.3038  0.1199  0.0543
31742W        W47211   1.526  17.906   1.643  0.2098 -0.2646  0.1562
31743W        W47212  12.697   7.011  11.895 -0.1379 -0.0909 -0.0652
31744W        W47213   1.968  16.155  12.256  0.3607  0.2866  0.1875
31745W        W47214  13.031   2.018  14.527  0.1457  0.2671  0.0741
31746W        W47215   1.784   9.561  12.455  0.0169  0.1784 -0.0162
31747W        W47216   4.246   9.577  12.470  0.2650 -0.0145  0.2347
31748W        W47217  16.501  12.313  12.759  0.2026  0.1262 -0.0942
31749W        W47218   2.184  17.636  13.691 -0.3963  0.0792 -0.2481
31750W        W47219   2.861   6.417  11.910 -0.2117 -0.1290 -0.0015
31751W        W47220   1.086  11.555   3.444  0.0172  0.0941 -0.0297
31752W        W47221  15.390  11.609   2.052  0.1692  0.3081 -0.1612
31753W        W47222   2.750   1.974  12.515  0.0052  0.1725  0.0307
31754W        W47223  10.848   7.452   3.603  0.1519 -0.2110 -0.0431
31755W        W47224   4.898  16.848  15.359 -0.0800  0.2438  0.1090
31756W        W47225   0.030   9.751  13.008 -0.2927 -0.2360  0.1051
31757W        W47226  15.377   2.364   3.953 -0.0053 -0.1694 -0.2980
31758W        W47227  14.308  10.744   3.128 -0.0959  0.2101  0.0146
31759W        W47228  14.054  14.914  13.306 -0.2759 -0.0747  0.1211
31760W        W47229  17.252  16.268  15.418 -0.0970 -0.0976 -0.3215
31761W        W47230   6.670  11.787  11.263  0.1200 -0.0780  0.1247
31762W        W47231   2.381   4.070  13.406  0.2971 -0.3933 -0.3538
31763W        W47232   1.411   6.510   2.716 -0.2054 -0.1892 -0.0155
31764W        W47233   0.797   8.887   2.854 -0.0855  0.2783 -0.2064
31765W        W47234  16.613  13.813   3.321 -0.0735  0.0459 -0.2298
31766W        W47235   8.907   4.923  12.807  0.0279 -0.0157 -0.1819
31767W        W47236   5.379   4.137   3.208  0.1081 -0.2795 -0.2539
31768W        W47237   8.637   1.382   1.435  0.0014  0.0936  0.1354
31769W        W47238   0.795   4.175   2.476  0.2701  0.0367 -0.5732
31770W        W47239   0.962  11.802  16.270 -0.1609 -0.1938 -0.1689
31771W        W47240  11.400   3.901   0.664  0.0042 -0.0011  0.0167
31772W        W47241  10.284   2.247  15.797  0.1336  0.1489 -0.1747
31773W        W47242  15.155   8.618  13.986  0.0133 -0.0641  0.1808
31774W        W47243   0.111  14.121  12.673  0.1519  0.0519 -0.1475
31775W        W47244   4.227   5.814  12.522 -0.0059 -0.1003 -0.4473
31776W        W47245   3.487   1.271   1.351  0.0044 -0.2063 -0.3224
31777W        W47246  12.805   8.783   5.896  0.1646  0.0951  0.1195
31778W        W47247   4.964  10.818  13.596 -0.1518 -0.0551 -0.3129
31779W        W47248   9.632   6.732  13.079 -0.1512 -0.1453 -0.0996
31780W        W47249  17.039  11.025   1.591 -0.1925 -0.0211  0.2190
31781W        W47250  17.183   3.670   2.641 -0.0206  0.1369  0.2401
31782W        W47251   0.818  16.852   3.772  0.4012 -0.0773 -0.3086
31783W        W47252   2.136  14.679  12.820  0.2197 -0.3138 -0.0693
31784W        W47253   5.473   3.728   4.961  0.2467  0.2555  0.2235
31785W        W47254   0.392  15.728   0.460  0.1964 -0.1664  0.0278
31786W        W47255   2.576   3.755   1.134  0.3529  0.0647 -0.1784
31787W        W47256   3.102  14.751  12.111 -0.3748  0.0808  0.1053
31788W        W47257  16.871   5.114   2.755  0.1843 -0.2644  0.1639
31789W        W47258  15.965   8.446  11.266  0.1764 -0.0331 -0.3196
31790W        W47259  12.476  12.921  12.612  0.0020 -0.0442  0.2988
31791W        W47260   7.799  14.501  16.072 -0.3419  0.0038  0.1933
31792W        W47261   4.561  12.450  12.042  0.0437  0.0018 -0.0282
31793W        W47262   3.632  15.747   1.494  0.0818  0.0322  0.0716
31794W        W47263   5.221   0.827  13.868  0.1212  0.1387  0.2356
31795W        W47264   5.718  11.846  13.728  0.2193 -0.2414 -0.2566
31796W        W47265   7.863   2.072  13.334 -0.0762 -0.1083  0.0242
31797W        W47266   4.830   8.529   4.961 -0.2346  0.0301 -0.0520
31798W        W47267   8.949   4.547   4.837  0.0371  0.1663  0.0656
31799W        W47268   3.443  11.736   4.176  0.1937  0.0537 -0.4831
31800W        W47269   4.564   7.305  12.623  0.2685 -0.0699  0.1203
31801W        W47270  13.896   1.817   1.074 -0.0045 -0.0929  0.0529
31802W        W47271  17.875   4.976  12.010  0.4514 -0.2760  0.0623
31803W        W47272   9.258   5.098   5.615 -0.2659  0.1342  0.0809
31804W        W47273   2.094  13.577   4.369 -0.1088 -0.2991 -0.0198
31805W        W47274   0.854  15.757   2.202  0.0579  0.0805  0.1056
31806W        W47275   2.377  16.073   6.005  0.1307 -0.1788  0.1616
31807W        W47276  17.681   9.525   5.638 -0.1675  0.0510  0.0016
31808W        W47277  11.902  15.080  13.231  0.0853 -0.2874 -0.0521
31809W        W47278   8.394   0.123   0.303  0.0698 -0.0636 -0.1628
31810W        W47279  12.979   0.961   5.347  0.2662  0.3282 -0.1094
31811W        W47280  16.064  17.522   5.647  0.1004 -0.3915 -0.1517
31812W        W47281  17.891   2.343  14.731  0.3167 -0.0568 -0.0389
31813W        W47282   9.035  17.899  14.611  0.4315 -0.0320 -0.0296
31814W        W47283  16.376   6.010   4.115  0.0956 -0.0452  0.5507
31815W        W47284   7.889  14.789  13.069  0.0031  0.0009  0.1691
31816W        W47285  10.865  13.986   0.323  0.1348 -0.1336  0.1350
31817W        W47286   8.894  15.939   5.374  0.3675  0.0476  0.0255
31818W        W47287  12.283  13.952   6.369  0.1174  0.0765  0.1288
31819W        W47288  14.442   5.168   1.254 -0.3428  0.0013 -0.0634
31820W        W47289  16.794   1.451   5.285 -0.0596 -0.0335 -0.2053
31821W        W47290  11.157  10.541  13.948  0.3301  0.2877 -0.0389
31822W        W47291   1.865  11.675  15.877  0.0588  0.0147 -0.0373
31823W        W47292  13.814  13.764   6.708 -0.0776  0.0112  0.0940
31824W        W47293  15.574  16.567   6.174  0.1166  0.0442 -0.1414
31825W        W47294   9.668  11.154   4.858 -0.0689 -0.0652  0.1280
31826W        W47295  14.254  12.466   4.219 -0.0132  0.1089 -0.0121
31827W        W47296  12.646   6.942  13.414  0.0827 -0.0616  0.1539
31828W        W47297  15.407   3.561   3.425  0.0058 -0.1646 -0.0971
31829W        W47298  17.649   7.965   1.458 -0.0525  0.0914  0.0428
31830W        W47299  15.437   6.478  14.352 -0.2660 -0.3709  0.0050
31831W        W47300   2.887   8.491  13.437  0.0098 -0.1035  0.0851
31832W        W47301   6.757  10.983   4.987  0.0961  0.2683 -0.0184
31833W        W47302  10.184  11.916   2.229  0.0568 -0.2094 -0.0827
31834W        W47303   3.296  10.288  13.155 -0.2352 -0.0132 -0.1365
31835W        W47304  13.193  17.430   5.331  0.1843  0.0720  0.1273
31836W        W47305   6.162  17.463  15.914 -0.0729 -0.0538  0.1101
31837W        W47306  13.811   1.513   2.943 -0.1764 -0.0752  0.0640
31838W        W47307   3.845   2.672   4.759  0.0752 -0.0652 -0.2457
31839W        W47308   8.215  13.761   1.361  0.1214 -0.2310 -0.3841
31840W        W47309   2.076   8.449  15.708 -0.3018  0.1467  0.1001
31841W        W47310  10.768   8.870  11.834 -0.3167 -0.0919  0.0481
31842W        W47311   7.899  10.354   3.328 -0.1264 -0.1489  0.1638
31843W        W47312   7.241  13.172   0.025 -0.1224 -0.0353 -0.1303
31844W        W47313  16.366   6.773   1.150  0.2383  0.1695  0.2879
31845W        W47314  12.035   4.545  13.519 -0.1738  0.0961  0.2704
31846W        W47315  11.792  10.353  16.424  0.1942 -0.0863 -0.0017
31847W        W47316  14.446  16.971   5.502 -0.0306 -0.0937 -0.1254
31848W        W47317  15.216   9.949  12.524  0.2721 -0.1815  0.0195
31849W        W47318  17.536  14.184   1.971  0.0602 -0.2578  0.2339
31850W        W47319  12.642   1.958   3.324  0.1914  0.0183 -0.1467
31851W        W47320   1.357   0.586  14.894 -0.2807 -0.1013 -0.0936
31852W        W47321  13.517   9.084  12.312  0.0402 -0.0999  0.0685
31853W        W47322  12.683   6.677   0.535  0.0807  0.0377  0.1296
31854W        W47323   4.339  14.114  10.621  0.1240  0.1308  0.2333
31855W        W47324  11.508  11.511   0.733 -0.3666 -0.3062  0.1491
31856W        W47325   9.684  14.469   2.875  0.1248 -0.2612 -0.2174
31857W        W47326   1.767   3.252   0.625 -0.1741 -0.2872 -0.0645
31858W        W47327   5.388   7.792  13.522 -0.0000  0.1302  0.0378
31859W        W47328  10.328  15.046  15.273  0.0777  0.0254  0.0120
31860W        W47329   7.756   9.081  13.385 -0.0028 -0.2868  0.1739
31861W        W47330  11.374   6.420   2.831  0.1179 -0.1493 -0.1366
31862W        W47331  16.730   7.301  16.208 -0.0336  0.0075 -0.1310
31863W        W47332   3.635   0.736  13.975 -0.3668 -0.1519 -0.3510
31864W        W47333  12.516  18.001  15.107  0.2393 -0.1738 -0.0850
31865W        W47334  13.180  13.988   4.783 -0.3074 -0.1523  0.1030
31866W        W47335   9.405   4.820   4.886  0.0028  0.2304  0.0548
31867W        W47336   6.375  13.960   1.127  0.3473  0.0360 -0.0758
31868W        W47337  15.777   5.887  13.751  0.1374 -0.1153 -0.3107
31869W        W47338   2.651  10.976  13.460 -0.0294  0.0204  0.0822
31870W        W47339   9.483  10.254  13.221  0.2456  0.1522  0.0662
31871W        W47340  13.642  12.664   5.961 -0.1618  0.1479  0.0274
31872W        W47341   5.151   7.754   1.433 -0.1734 -0.0658 -0.1239
31873W        W47342   6.065   8.268  13.906 -0.1775 -0.0493  0.1919
31874W        W47343  15.148   4.681   5.322  0.2302 -0.1576 -0.3012
31875W        W47344   1.113   0.823   1.165 -0.2882  0.1152 -0.1945
31876W        W47345  10.933  10.276  16.000 -0.1504  0.1387  0.1302
31877W        W47346  14.049   9.546  10.704  0.5027 -0.0618  0.2786
31878W        W47347   9.852   4.185  15.871  0.0375 -0.2466  0.1491
31879W        W47348   3.299  13.316  16.300  0.0572  0.0262  0.1336
31880W        W47349   4.209  10.381   4.383  0.1185  0.0248  0.0779
31881W        W47350  11.920   6.777   3.767 -0.0319 -0.1319 -0.0015
31882W        W47351  12.910   5.536  13.262 -0.1815 -0.0001  0.1514
31883W        W47352   2.158   3.420  15.500  0.0622  0.1550 -0.2338
31884W        W47353   3.163  16.642   6.005  0.3100  0.2056 -0.1508
31885W        W47354   3.181   6.772  11.532  0.3655  0.0542 -0.0473
31886W        W47355   5.921  17.743  13.039  0.1200  0.0578 -0.1679
31887W        W47356  12.570  15.370   1.699  0.1296  0.1106  0.0069
31888W        W47357  10.127  13.404   3.656 -0.1137 -0.1900  0.1229
31889W        W47358  17.923   6.073  15.524  0.0359 -0.4552 -0.1374
31890W        W47359   8.764   3.393  15.478 -0.1671  0.0115 -0.4683
31891W        W47360  13.373  11.268  11.042  0.0344  0.0359 -0.0369
31892W        W47361  16.173  13.586   1.936 -0.2308  0.0365  0.1852
31893W        W47362  16.223   1.961  12.304 -0.0876  0.3031 -0.3122
31894W        W47363   4.376  11.290   3.396  0.1157 -0.0218 -0.1893
31895W        W47364   7.399   0.813   3.239  0.2097  0.0938  0.0388
31896W        W47365   3.317   8.496  13.738  0.1882 -0.0390 -0.2595
31897W        W47366   3.777   8.227   2.172 -0.0129  0.2888  0.1781
31898W        W47367   1.550  11.389   1.441 -0.2493 -0.0795  0.1054
31899W        W47368  15.659   3.188  11.092 -0.1371  0.0820  0.0252
31900W        W47369  15.911  13.420   4.392 -0.0396 -0.0991  0.0742
31901W        W47370  17.410  11.059  13.598  0.0305  0.0556 -0.0766
31902W        W47371   2.122  10.628  14.075  0.1134 -0.1571  0.1907
31903W        W47372   5.051   8.521  15.966 -0.2997 -0.2743  0.1947
31904W        W47373  17.365   8.997   5.037 -0.1040 -0.1882  0.0332
31905W        W47374  14.121  16.224  15.712 -0.2094  0.2555 -0.0888
31906W        W47375  14.471  17.004   1.040 -0.2794  0.2092  0.1286
31907W        W47376   2.526  15.003   2.743  0.1029 -0.0649  0.1294
31908W        W47377  14.656   5.653   1.994 -0.1165  0.0563 -0.4425
31909W        W47378  10.776  11.314   2.304  0.1605 -0.1913  0.0272
31910W        W47379   9.264  14.101   1.233  0.1442 -0.0239 -0.0125
31911W        W47380  17.732   4.725  14.469  0.1398  0.1627 -0.0926
31912W        W47381  10.124  10.636  11.874 -0.0603  0.2984 -0.1458
31913W        W47382  11.990  14.011  11.398 -0.0179 -0.0299 -0.0302
31914W        W47383  14.127   3.758  15.425  0.0433 -0.1850  0.1692
31915W        W47384  15.842  12.802   3.118 -0.0317 -0.2298 -0.0880
31916W        W47385  15.965   3.844   2.791 -0.1400 -0.0387  0.0982
31917W        W47386   5.608   6.823  15.941 -0.0470  0.0452  0.2213
31918W        W47387   2.519   4.830  16.028 -0.1571 -0.1173 -0.2736
31919W        W47388  17.530   4.775   0.093 -0.0832 -0.1111  0.2959
31920W        W47389  11.173   4.057  11.882  0.1277  0.0400  0.3356
31921W        W47390   4.836   5.187  13.474 -0.0363  0.2930  0.5433
31922W        W47391   7.860   5.052   1.927 -0.0240  0.1584  0.3411
31923W        W47392  10.789  14.648  12.797  0.1081  0.3758  0.0023
31924W        W47393  14.891  13.236   1.356 -0.1074  0.0644  0.0936
31925W        W47394  15.872   3.721  15.052  0.4174 -0.0958  0.1836
31926W        W47395   6.871  11.633   5.055 -0.1562  0.1192 -0.3420
31927W        W47396   2.518   8.074  12.528  0.0352 -0.2457  0.2709
31928W        W47397  13.515   8.434   3.570  0.1298 -0.0402  0.4457
31929W        W47398  13.299  13.104  14.421 -0.0632  0.2510 -0.3036
31930W        W47399   3.647   5.759   3.183 -0.0087 -0.0917 -0.0586
31931W        W47400  12.376  11.522  14.019  0.3184  0.1938  0.3082
31932W        W47401   5.971  14.925  15.333  0.0341  0.1430  0.1375
31933W        W47402  17.252  13.821  13.783  0.0958 -0.3048  0.1764
31934W        W47403   1.564   8.399   2.832 -0.1483 -0.0153  0.0080
31935W        W47404  17.903  13.882   5.292  0.1956  0.0690 -0.1686
31936W        W47405   3.803  14.684   6.212 -0.2099 -0.0609 -0.1821
31937W        W47406  15.643  17.401  14.554  0.1384 -0.0608 -0.1143
31938W        W47407   6.234   4.561  13.778  0.2702 -0.2174  0.0077
31939W        W47408   1.898  13.175   5.141  0.2863  0.3692 -0.1662
31940W        W47409   3.274   0.991   5.039  0.1301  0.1730 -0.2377
31941W        W47410   6.121  17.967  12.042 -0.0184 -0.2296 -0.1742
31942W        W47411   6.802   0.325   1.348  0.0555  0.0661 -0.1404
31943W        W47412  10.052   0.233   3.984  0.2861 -0.1216 -0.1706
31944W        W47413  11.342  17.221  14.973 -0.0583 -0.0179  0.0239
31945W        W47414  15.477   7.077   3.034  0.2442  0.0384 -0.0964
31946W        W47415   3.567   2.205   4.620  0.1579 -0.0395 -0.2847
31947W        W47416   5.632   6.631  13.144  0.1117 -0.1717 -0.1300
31948W        W47417  11.812   2.129  14.103 -0.3781 -0.0273 -0.1139
31949W        W47418   5.657  10.734  16.314 -0.0430 -0.1457  0.2061
31950W        W47419  12.274   9.029   3.336 -0.4199 -0.0907 -0.0220
31951W        W47420   0.238  16.984   0.018  0.1514  0.0650  0.2320
31952W        W47421   4.989  10.042  15.904  0.0319 -0.0341 -0.0571
31953W        W47422   0.087   0.947   1.598  0.2510 -0.2539 -0.1144
31954W        W47423   1.511   4.749   1.819 -0.1159  0.0168  0.3879
31955W        W47424  14.258   5.171  11.466  0.1207 -0.0344  0.0926
31956W        W47425   8.184   3.236  14.891 -0.0226  0.1311 -0.0547
31957W        W47426   3.144  15.413  15.599  0.2758  0.1235 -0.3039
31958W        W47427  15.430  15.792  16.583  0.1295  0.2808 -0.2425
31959W        W47428   9.136  10.106   2.049 -0.0571  0.2768 -0.1417
31960W        W47429  15.053   4.184   9.995  0.1852  0.0293  0.0782
31961W        W47430   5.530   4.843   0.910 -0.1932 -0.2971 -0.0135
31962W        W47431   5.073  17.818   3.569  0.0239  0.2923 -0.2057
31963W        W47432   9.120   3.692   1.178  0.1418  0.1079 -0.1693
31964W        W47433  12.976   6.896   1.937 -0.2430  0.2750 -0.1895
31965W        W47434   3.374  13.978   1.472  0.0632 -0.6640  0.0793
31966W        W47435   6.517   0.444   4.914 -0.1883  0.0878  0.2492
31967W        W47436   3.648   8.555  12.695  0.3807 -0.0192  0.0502
31968W        W47437  17.154   0.128  13.525 -0.0037  0.1387  0.1942
31969W        W47438  17.052  13.151  11.663  0.0532  0.3553 -0.0675
31970W        W47439  11.841  14.856  13.913  0.1919  0.1121 -0.6430
31971W        W47440   8.622   7.771   3.534  0.0009  0.0759  0.0505
31972W        W47441   6.810   8.374   1.564 -0.1168  0.0280 -0.0211
31973W        W47442   6.232  12.171   2.627 -0.2359  0.2732 -0.1059
31974W        W47443  16.165  16.853  15.011 -0.0022 -0.1136 -0.1336
31975W        W47444  17.747  11.350  13.881  0.1077 -0.1416 -0.0242
31976W        W47445   7.329   7.921   6.220  0.0915 -0.0177  0.1098
31977W        W47446   8.956  12.670  14.586  0.2836  0.0105 -0.1968
31978W        W47447   0.337   3.687  16.379  0.0659  0.0949  0.2410
31979W        W47448   3.923  17.882   0.513 -0.1046 -0.1869 -0.1304
31980W        W47449  10.931  17.195  16.289 -0.3248 -0.2888 -0.2460
31981W        W47450   3.200   3.188  11.672  0.4481  0.0267 -0.2307
31982W        W47451  14.150   5.865  14.779  0.1143 -0.1203 -0.1268
31983W        W47452  13.407   0.142   2.500  0.0548 -0.2334  0.5290
31984W        W47453  17.646  11.785  16.219 -0.0753 -0.1910  0.1919
31985W        W47454  11.751  15.379   4.219  0.0423  0.1742 -0.1026
31986W        W47455  17.995   3.939  16.096 -0.3683 -0.2116  0.0528
31987W        W47456  11.542  15.037  15.223 -0.1480  0.0157  0.1572
31988W        W47457   1.559   1.009  12.562  0.3104 -0.1562 -0.1456
31989W        W47458  16.154   9.385  14.966  0.0808  0.1504 -0.1561
31990W        W47459   1.274  12.166   2.107 -0.0284 -0.1940  0.1187
31991W        W47460  10.267   6.493  15.701  0.1482  0.3599 -0.0193
31992W        W47461   5.397  13.560  11.344  0.1491 -0.0364  0.1317
31993W        W47462  10.951   7.905  13.314  0.2836  0.0030 -0.0098
31994W        W47463  15.699   0.607  13.030 -0.0014 -0.0832 -0.0440
31995W        W47464   9.799  15.244   3.962  0.0783  0.3634  0.0490
31996W        W47465   1.341  13.993   0.142  0.0767  0.2297  0.0902
31997W        W47466  12.222   8.327  16.434 -0.3588  0.0416 -0.5266
31998W        W47467   0.760   9.964   4.732  0.0473  0.0498 -0.1896
31999W        W47468   6.733  11.639   4.482  0.1470  0.1050  0.2464
32000W        W47469   6.777   5.653  11.958 -0.0154  0.0227 -0.1918
32001W        W47470   1.472  12.082   5.668 -0.0381  0.0961  0.0242
32002W        W47471  14.995  17.392  12.394  0.1729  0.2254 -0.0776
32003W        W47472   2.622  10.446   1.462  0.2518  0.0274  0.0778
32004W        W47473   5.790  16.370   5.168  0.2523 -0.0553  0.2617
32005W        W47474   5.043   1.213   0.275  0.2050 -0.1192 -0.0898
32006W        W47475   9.727  12.956  14.134  0.0865  0.3381  0.0097
32007W        W47476   7.174   3.280   1.572  0.0210  0.0006 -0.2452
32008W        W47477   1.219   9.038  10.787 -0.0683  0.0072 -0.0608
32009W        W47478  14.077  16.460   2.853 -0.1518 -0.4329  0.5471
32010W        W47479  13.184   2.802   3.440  0.0671  0.0996 -0.2750
32011W        W47480   6.579   9.697  12.074  0.2708  0.4219 -0.3001
32012W        W47481   4.281   7.110   5.315  0.0017 -0.1940 -0.3801
32013W        W47482   8.876   3.683  16.527  0.2440  0.1092 -0.1466
32014W        W47483   0.641  16.690   1.775 -0.2197  0.2304  0.1243
32015W        W47484   8.663   9.965  16.022 -0.1104  0.0067  0.3034
32016W        W47485  15.636  12.489   1.149 -0.0085  0.0844  0.1531
32017W        W47486   7.418   6.189  12.085 -0.0676  0.3230 -0.1770
32018W        W47487   9.539  17.605  13.617 -0.1735 -0.0175 -0.0443
32019W        W47488   7.642   7.653   6.622 -0.0413  0.1584 -0.0072
32020W        W47489   7.075   2.418   3.519  0.0767  0.0666 -0.0826
32021W        W47490   1.361   1.475   2.288 -0.0850  0.0435 -0.1185
32022W        W47491  15.750  14.475   1.870  0.0283 -0.1572  0.3185
32023W        W47492  16.332   7.697   0.674  0.3391  0.0203 -0.0580
32024W        W47493   4.871   6.418   3.531 -0.0764  0.0891 -0.0262
32025W        W47494  15.197  14.407   1.427 -0.0911 -0.2827 -0.0068
32026W        W47495  16.708  17.744  12.252 -0.1728 -0.2094  0.0527
32027W        W47496   1.341  12.630   2.042  0.1022  0.1216  0.0756
32028W        W47497  15.581   6.363   2.970  0.1001 -0.0440 -0.1071
32029W        W47498  17.546  11.511  15.732 -0.2706 -0.1951  0.0490
32030W        W47499   8.977  11.296  15.526 -0.1044 -0.1757  0.1145
32031W        W47500  10.318   3.613   1.542 -0.1270  0.4043 -0.0664
32032W        W47501   9.488   5.079  12.573  0.1366  0.2373  0.1661
32033W        W47502   9.950  11.782  15.701  0.1943 -0.0384 -0.0971
32034W        W47503  12.774   9.730   3.480 -0.0750 -0.1894  0.0295
32035W        W47504   7.308   8.683   5.598 -0.1120 -0.1136 -0.0162
32036W        W47505   1.463  13.846  10.592  0.0899  0.0400 -0.2562
32037W        W47506   7.701   9.986   4.833 -0.2068 -0.0879  0.0925
32038W        W47507  11.779   5.670   4.450  0.3726  0.1804  0.0028
32039W        W47508   3.391   8.608  11.753 -0.2159  0.2509 -0.0296
32040W        W47509   1.949  14.709  15.334  0.1073 -0.0803 -0.0743
32041W        W47510  15.434  13.602   1.840 -0.1008 -0.1996 -0.0010
32042W        W47511   4.034  10.709   1.324  0.0813 -0.0545  0.0960
32043W        W47512   4.149   4.877  12.952  0.2227 -0.1679  0.0899
32044W        W47513   7.408   9.463  12.617  0.3603  0.1865  0.2195
32045W        W47514  14.973  15.220  14.531  0.1828 -0.2479  0.1831
32046W        W47515  14.950  16.660   3.928 -0.4055 -0.0874 -0.0212
32047W        W47516  10.731  12.706  14.492 -0.0657 -0.1292 -0.0036
32048W        W47517  10.516   1.557  12.178 -0.0683  0.2362  0.0291
32049W        W47518   1.364  13.611   0.548  0.0327 -0.0427  0.2087
32050W        W47519  17.669  13.965  11.341 -0.1193  0.1075 -0.1727
32051W        W47520  11.402  14.519   3.239 -0.1814  0.0519  0.2034
32052W        W47521   7.721   5.636   4.493  0.0576  0.2536 -0.0336
32053W        W47522   0.069   1.086   0.602 -0.1767  0.0427 -0.2204
32054W        W47523   9.260   6.010   2.573 -0.3399  0.0837 -0.0029
32055W        W47524   2.956  15.479   4.328  0.0920  0.2907 -0.0797
32056W        W47525  13.821   2.361  13.067 -0.3604 -0.2457 -0.2580
32057W        W47526   3.522  14.941   1.803 -0.0877 -0.1583  0.1740
32058W        W47527   4.221  15.803   5.096 -0.0961  0.1931 -0.0415
32059W        W47528   9.645   2.054  13.544 -0.1384 -0.1387  0.0607
32060W        W47529   9.180  13.497   5.311  0.0783 -0.0241  0.0078
32061W        W47530  10.681  12.701  12.653  0.1798 -0.0274  0.4419
32062W        W47531  14.150   3.493  14.728 -0.0822 -0.0501  0.3491
32063W        W47532   9.921   7.869  11.297 -0.1306 -0.1468 -0.2739
32064W        W47533  17.083   9.231  14.455  0.3332 -0.0758  0.1580
32065W        W47534  15.041   7.479  10.456 -0.2070 -0.1206 -0.1224
32066W        W47535  15.684   1.705   1.415 -0.0984 -0.0161  0.1797
32067W        W47536  16.791   3.206   0.259 -0.2130 -0.2723  0.0778
32068W        W47537   2.688  10.826  12.971  0.2641 -0.1697 -0.2646
32069W        W47538  11.699   7.178  10.950 -0.3670 -0.2138  0.1501
32070W        W47539   1.736   8.214   2.254 -0.1071 -0.2026  0.5088
32071W        W47540   8.655   3.527  13.946  0.0413  0.1557 -0.0479
32072W        W47541   6.677   6.917   0.771 -0.2903  0.1315 -0.2855
32073W        W47542   2.671   8.000   3.546 -0.1226  0.0711  0.3405
32074W        W47543  15.683   5.462   2.077 -0.0427 -0.0106 -0.2785
32075W        W47544  15.674   9.792  11.126 -0.0533 -0.1810  0.0684
32076W        W47545  16.107   4.784   2.905  0.0303 -0.1531  0.2109
32077W        W47546   7.765   3.498   3.651 -0.0349  0.2531  0.0651
32078W        W47547   4.648  17.513   1.023  0.4045 -0.0287  0.2408
32079W        W47548   9.469  17.322  15.213 -0.5201  0.3473 -0.0604
32080W        W47549  17.732   9.706  12.594 -0.3710  0.1696 -0.2095
32081W        W47550   2.714   3.334   2.314 -0.0104  0.0965 -0.1333
32082W        W47551  14.387   3.614   1.922 -0.1116 -0.3024  0.0399
32083W        W47552   3.491   6.497   4.391  0.1597  0.2441 -0.0852
32084W        W47553   7.282   6.672   5.713 -0.2469  0.0259 -0.0692
32085W        W47554   2.927   0.509   2.408 -0.1274 -0.0005 -0.0604
32086W        W47555   6.161  10.653  10.973 -0.0982  0.0108 -0.1390
32087W        W47556   9.951  16.052  11.586  0.0974 -0.1213  0.0268
32088W        W47557  17.243   9.885  12.465  0.2043  0.1697 -0.3489
32089W        W47558  15.017   7.998   1.458 -0.0852 -0.3045  0.0430
32090W        W47559   2.762   7.871  12.921 -0.2924  0.1176 -0.2719
32091W        W47560  14.659  15.655   2.267  0.0617 -0.1893  0.0397
32092W        W47561  11.326  11.746   5.715  0.0283 -0.0435 -0.0135
32093W        W47562  13.945  11.665   1.566  0.0111 -0.0437  0.1874
32094W        W47563   8.142   0.077   3.106 -0.0543  0.1674  0.2178
32095W        W47564   7.778  11.257   2.128 -0.0331  0.1546 -0.5133
32096W        W47565   7.188  14.308   5.750 -0.1032 -0.2825  0.2708
32097W        W47566   2.226   8.773   5.032 -0.0139  0.0130 -0.1321
32098W        W47567   6.895   1.235   0.406  0.0644 -0.0181  0.0016
32099W        W47568   1.457  14.019   2.302 -0.0523 -0.0368  0.0416
32100W        W47569   9.042  17.070  15.436  0.1848  0.1996 -0.0001
32101W        W47570   2.483  16.508   1.668  0.0247  0.0210  0.1435
32102W        W47571  17.572  17.405  15.565  0.0752  0.1135  0.1854
32103W        W47572  15.376   0.415  14.541  0.1521 -0.0159 -0.2442
32104W        W47573   9.897   6.480  14.303 -0.1723  0.3786 -0.4503
32105W        W47574   9.078   0.722   2.072  0.0548  0.1656 -0.0846
32106W        W47575   8.111  14.347   1.259 -0.1614  0.0469 -0.0125
32107W        W47576   5.686   2.804  15.435 -0.0789  0.6109 -0.2460
32108W        W47577  11.108  15.029  12.736  0.0566  0.0316  0.0714
32109W        W47578  10.048   4.533   2.942 -0.2869  0.0845  0.0459
32110W        W47579   6.289   6.994   4.351 -0.1716  0.1849  0.0627
32111W        W47580  12.161  11.771   4.116  0.0817 -0.0220 -0.1389
32112W        W47581   7.885  10.933  15.954 -0.1633  0.0535  0.0399
32113W        W47582  17.586  14.580   0.716 -0.1528 -0.0655  0.0938
32114W        W47583  15.545  17.950  15.735 -0.1779 -0.1805 -0.0043
32115W        W47584   1.687   8.652  10.898 -0.1209 -0.0006 -0.2235
32116W        W47585   7.661  14.513   4.741 -0.1785 -0.0671 -0.0342
32117W        W47586  14.628   5.038   0.772 -0.1283  0.1225 -0.0550
32118W        W47587  13.115  13.439  12.301 -0.1011 -0.2541  0.0843
32119W        W47588   4.456   6.527   0.606  0.0333  0.1809  0.0775
32120W        W47589  10.724  11.727   1.511 -0.1045 -0.2351 -0.1988
32121W        W47590   9.390   6.237  16.536  0.1211  0.2604  0.1705
32122W        W47591  14.084   9.316   0.292  0.1361  0.0532  0.0322
32123W        W47592   4.964   0.971  14.962 -0.3259 -0.0136  0.4026
32124W        W47593  16.768   3.388  11.246  0.1186  0.0936 -0.0364
32125W        W47594   5.665   2.845  14.938 -0.1080  0.0732 -0.0908
32126W        W47595  17.425   6.046  12.701 -0.0971 -0.1082 -0.1366
32127W        W47596   8.066   1.087  13.774  0.1112  0.0274  0.2455
32128W        W47597  12.310  10.489   3.926  0.2018 -0.0923 -0.0818
32129W        W47598  12.186  12.865  14.942 -0.3307  0.0246 -0.4328
32130W        W47599  14.700   4.173   4.107 -0.0216 -0.1603  0.0037
32131W        W47600  14.809   7.058   1.489 -0.0871  0.0066  0.0357
32132W        W47601   1.804   6.411  15.943  0.0077  0.1050  0.0561
32133W        W47602  16.894   8.061   1.768 -0.2407  0.0185  0.1921
32134W        W47603   7.725  11.628   2.530  0.1335 -0.1945 -0.0941
32135W        W47604   0.574   6.153  14.642  0.0587  0.2920  0.1571
32136W        W47605  10.582   6.632  13.580  0.0060  0.0033  0.2215
32137W        W47606   1.948   5.575   4.473 -0.2089 -0.0213  0.0944
32138W        W47607  10.454  17.829  13.280 -0.1316 -0.0630  0.0365
32139W        W47608   6.724   8.759   1.132  0.0343 -0.1294 -0.1043
32140W        W47609  14.154   7.027  14.276 -0.3754 -0.0332  0.1524
32141W        W47610  15.519   7.611   0.708  0.1402 -0.1646  0.0265
32142W        W47611  11.193   4.000  10.921 -0.3466 -0.0888  0.0654
32143W        W47612  15.436   8.229  11.346  0.0699 -0.2280  0.0922
32144W        W47613  16.982   2.945  11.379  0.0529  0.0061  0.0760
32145W        W47614  16.872  16.824  15.380 -0.2600 -0.1982  0.0633
32146W        W47615   1.970  14.915  14.603 -0.0696 -0.2018 -0.0854
32147W        W47616  12.246   0.400  12.427  0.0851 -0.3906  0.0195
32148W        W47617  12.276   0.995   3.968 -0.0798 -0.0964 -0.2767
32149W        W47618   5.230  12.789   3.174 -0.0386 -0.3507  0.2227
32150W        W47619  12.587  12.169   3.676  0.1221 -0.0192 -0.3025
32151W        W47620  14.909  13.218  15.041 -0.0649  0.0133 -0.0942
32152W        W47621  17.269  17.933  11.592  0.1772 -0.1378 -0.1347
32153W        W47622  11.283   1.437   2.724  0.1417  0.1154  0.2923
32154W        W47623   9.013  12.897  11.174  0.1594  0.0268  0.0101
32155W        W47624   4.101   0.567   0.917  0.0187  0.1292 -0.0720
32156W        W47625   5.022   0.970  12.959 -0.1507 -0.0907 -0.3223
32157W        W47626  12.380  15.818   0.800 -0.2267 -0.0192 -0.0262
32158W        W47627   1.903  13.928   5.737 -0.2913  0.3927 -0.6213
32159W        W47628  13.925  10.605  11.985  0.2272 -0.0913 -0.0795
32160W        W47629   3.355   5.644  14.926 -0.1290 -0.3059 -0.0499
32161W        W47630   6.366   8.306  10.922 -0.4294  0.0736 -0.1844
32162W        W47631  13.599   4.183   5.981  0.0154 -0.0615 -0.0932
32163W        W47632  15.317  15.314  15.883 -0.1187  0.0208  0.0324
32164W        W47633   4.625  13.618  13.207 -0.1681 -0.1825 -0.1959
32165W        W47634  10.752  14.333   5.850 -0.2136  0.0223  0.2237
32166W        W47635   3.968  10.205   5.145  0.2923 -0.1522 -0.1063
32167W        W47636   4.595   1.851   5.626  0.1078  0.0269 -0.3681
32168W        W47637   4.688   4.163  13.801  0.1563 -0.3809 -0.2212
32169W        W47638  12.454  15.221  15.907 -0.0728 -0.0069  0.2712
32170W        W47639   0.924   7.482  11.182  0.0340  0.1496  0.0518
32171W        W47640   5.688   0.333  13.127  0.0206  0.2651  0.1246
32172W        W47641   3.502  12.012   2.026 -0.1767 -0.2599  0.1171
32173W        W47642  16.804  11.438  13.052  0.1774  0.0920 -0.0930
32174W        W47643   4.306   9.348  11.958 -0.0896  0.1223 -0.2322
32175W        W47644   2.596  16.372   2.574  0.2058 -0.0692  0.2001
32176W        W47645  17.273  17.646  15.209  0.0307  0.1965 -0.1009
32177W        W47646  14.254   3.986  14.016  0.1404 -0.0650 -0.0794
32178W        W47647   6.834   2.367   0.306  0.2176  0.1765  0.0046
32179W        W47648  14.356   0.248   1.769 -0.0769 -0.2111 -0.0921
32180W        W47649   0.925  17.573   0.419 -0.0910  0.0969  0.0399
32181W        W47650   4.903   1.074   3.468 -0.0811  0.1421 -0.1573
32182W        W47651  16.235   3.131  13.029 -0.0009 -0.1900  0.2610
32183W        W47652   7.251  15.348   4.978  0.0350  0.0170  0.1656
32184W        W47653   9.926   6.584  10.837 -0.2403 -0.0349  0.0887
32185W        W47654  17.673   0.760   0.570  0.1485 -0.1267  0.1290
32186W        W47655   4.294   6.217  12.095  0.4041 -0.1206  0.1328
32187W        W47656   8.049   3.510   4.065 -0.1824 -0.0473  0.2250
32188W        W47657   4.765   6.090   3.944 -0.1224 -0.1118  0.1508
32189W        W47658   8.845   9.055  14.173  0.0299  0.0435 -0.1474
32190W        W47659   6.336   8.942  12.794 -0.0040  0.1688  0.1883
32191W        W47660   9.463  16.046   0.102 -0.1347  0.1559  0.1861
32192W        W47661  10.102  17.714  12.260 -0.0191 -0.4104 -0.1116
32193W        W47662   1.588   0.119  15.929 -0.1625  0.0701 -0.0956
32194W        W47663   6.875   5.868  11.476 -0.0627 -0.0329  0.0735
32195W        W47664   9.503  11.989  14.032 -0.0645 -0.2999  0.2700
32196W        W47665   1.957   6.622   4.140 -0.3887  0.0274 -0.0400
32197W        W47666   9.501   0.848   2.906 -0.2000  0.1056 -0.0310
32198W        W47667   8.969  17.074   5.977  0.1860  0.1198 -0.2986
32199W        W47668   7.814   4.004   3.442  0.0585 -0.0904  0.1632
32200W        W47669   3.012  13.532   3.093 -0.0902 -0.1123  0.0412
32201W        W47670   9.091   2.487   4.645  0.0204 -0.2321  0.0918
32202W        W47671  14.434  16.646   4.030 -0.0688  0.3322 -0.2595
32203W        W47672  14.610   9.305   0.914  0.3836 -0.1406  0.2332
32204W        W47673   2.393   9.247  16.213  0.2072  0.2271  0.0685
32205W        W47674   9.946   8.098   2.850  0.0773 -0.0259 -0.2230
32206W        W47675   9.883   9.390  14.528 -0.3806  0.1684 -0.2047
32207W        W47676  10.921  14.589  12.197  0.0440 -0.0798  0.2467
32208W        W47677  11.777   4.885   4.297  0.1809  0.2839  0.2843
32209W        W47678   0.911  15.542  13.034  0.2026  0.0301 -0.1851
32210W        W47679  13.057   2.747  13.242  0.0697  0.1614 -0.1927
32211W        W47680  16.804   7.756  11.962  0.1269  0.0990 -0.1599
32212W        W47681  10.361   1.383  13.170  0.2789 -0.3219 -0.3368
32213W        W47682  16.825  12.275  14.819 -0.1387  0.0119 -0.1562
32214W        W47683  17.301  15.642  11.867 -0.1558 -0.3197 -0.0244
32215W        W47684   7.989  12.361   4.184  0.0745 -0.1340  0.1555
32216W        W47685  16.531  17.830   6.280  0.1526 -0.0633 -0.0831
32217W        W47686  17.341  10.025   1.930 -0.0985  0.0840 -0.0110
32218W        W47687  15.881  11.920  11.419 -0.0216  0.2554 -0.1001
32219W        W47688   3.500  11.427  13.431  0.3298  0.0870 -0.2089
32220W        W47689  11.695  11.050  15.623  0.2066  0.1424 -0.0174
32221W        W47690   8.180  11.581  15.101 -0.1609  0.2599  0.0216
32222W        W47691   6.051  17.706  13.632  0.1666  0.0347 -0.3012
32223W        W47692   9.123   9.246  15.506  0.1059 -0.0300 -0.0586
32224W        W47693   5.428   9.730  13.833 -0.1178 -0.3537  0.1218
32225W        W47694  17.883  17.911   5.012 -0.0877 -0.0096 -0.0312
32226W        W47695   4.541   9.283   1.959 -0.1222 -0.0694  0.3244
32227W        W47696   3.993  11.705  15.464  0.2978  0.2124  0.1555
32228W        W47697   1.958   1.131  11.450  0.2521 -0.0286  0.2743
32229W        W47698   2.980  17.748  12.443 -0.1081 -0.1330  0.0334
32230W        W47699   7.029   0.312  15.547 -0.2059  0.1347  0.0473
32231W        W47700  17.114   2.113   0.464 -0.1693  0.2236 -0.0167
32232W        W47701  16.436   8.382   3.059 -0.1694  0.0987 -0.1001
32233W        W47702   0.280   0.642  13.037  0.0044  0.1364  0.1448
32234W        W47703  14.563  13.702   1.543  0.1420  0.1492 -0.0092
32235W        W47704   1.463  14.789  15.633  0.0084  0.2894  0.0484
32236W        W47705   9.787   2.237  12.473  0.1415 -0.1031  0.1170
32237W        W47706   5.564   9.768  14.588 -0.0370  0.1318 -0.3019
32238W        W47707   5.933  16.466  11.829 -0.0187  0.2615  0.1273
32239W        W47708   0.630  16.522   2.407  0.1669 -0.0637 -0.0007
32240W        W47709  12.049   2.810  11.177  0.0401  0.2708  0.0306
32241W        W47710  14.178   6.626   0.114  0.2568 -0.0670  0.1115
32242W        W47711   4.192   8.854  15.919  0.1953 -0.4391 -0.2654
32243W        W47712  17.373  14.894   2.823  0.0513  0.0639 -0.2198
32244W        W47713  12.287   9.509   0.018 -0.1001  0.0040 -0.1675
32245W        W47714   7.986   8.291   0.619 -0.0336  0.1158  0.0316
32246W        W47715   6.722   9.225  10.989 -0.3883 -0.2144 -0.2110
32247W        W47716   1.061  16.041  15.220 -0.0004 -0.1131  0.1916
32248W        W47717   6.902   7.279  14.675  0.0022  0.0893 -0.0229
32249W        W47718  12.493   9.114   4.894  0.1227  0.2380 -0.2681
32250W        W47719  10.148   3.340   0.289 -0.2226 -0.2202 -0.0430
32251W        W47720  17.880  14.611  13.747  0.1259 -0.0101  0.0665
32252W        W47721   8.256  16.893   2.458 -0.0979 -0.0012  0.1837
32253W        W47722   0.494   2.381   3.198  0.3109  0.1428 -0.0357
32254W        W47723   6.712   4.804   3.423  0.3229  0.0444 -0.0039
32255W        W47724   6.068  15.474   2.711  0.2510 -0.0461  0.0816
32256W        W47725   1.461   2.346   4.671 -0.1002  0.1001 -0.3470
32257W        W47726   1.625   7.760  14.114  0.1608  0.1191 -0.0513
32258W        W47727  10.123   7.152   4.719  0.1909  0.0616  0.0060
32259W        W47728  12.788   4.364   0.675  0.0150  0.0667 -0.3023
32260W        W47729  10.032   2.815   4.375  0.0712  0.2684  0.1727
32261W        W47730   5.404   4.863   1.434 -0.2715  0.1228 -0.0246
32262W        W47731   4.603   7.739   5.554  0.0156 -0.0583 -0.0188
32263W        W47732   6.320  13.266   4.397 -0.0254 -0.1829 -0.1991
32264W        W47733  10.583   8.882  14.656 -0.5728 -0.1338  0.1676
32265W        W47734  13.567  12.180  13.564  0.2891 -0.0483  0.0261
32266W        W47735  11.707  11.530   3.655  0.1627 -0.0001  0.1734
32267W        W47736   2.143   3.205   3.599  0.1088 -0.1606 -0.0892
32268W        W47737  10.253  16.907   5.315  0.0272  0.3091 -0.1053
32269W        W47738   0.642   7.034   4.021  0.0017 -0.0654  0.0007
32270W        W47739  11.993  16.622  12.713  0.2520  0.2058  0.1792
32271W        W47740  10.351   1.589   1.193 -0.0130 -0.0862 -0.2798
32272W        W47741   1.793  13.911   0.482  0.2086 -0.2439 -0.2874
32273W        W47742  15.853  12.774  13.271 -0.2393  0.0951  0.0050
32274W        W47743  13.418   3.397   3.902  0.0189 -0.3883 -0.1895
32275W        W47744   7.761  14.892  16.448  0.0356 -0.0280 -0.1487
32276W        W47745   6.871  15.927  15.636 -0.0023 -0.0813  0.0427
32277W        W47746   0.674   4.332   5.437 -0.1420 -0.0616  0.0839
32278W        W47747  11.771  16.814   4.342  0.3592  0.1723 -0.0888
32279W        W47748  12.843  13.755  15.845 -0.0291  0.1737 -0.1505
32280W        W47749   8.023   7.680  15.524  0.0497 -0.0589 -0.1423
32281W        W47750  14.973   0.911  13.319 -0.3256  0.0314 -0.1210
32282W        W47751   4.037  12.770   0.709 -0.1806  0.1843 -0.1339
32283W        W47752   2.466  11.853  12.821 -0.0170 -0.0043  0.1013
32284W        W47753   6.907   5.394  15.850 -0.0976  0.0153 -0.0544
32285W        W47754   7.602  13.399   0.243 -0.1500  0.3675  0.1540
32286W        W47755   3.212  13.301   5.128  0.1001 -0.1409  0.0011
32287W        W47756  13.522  12.778  13.256 -0.0611  0.0696 -0.2056
32288W        W47757  12.083   9.048   2.195  0.0084  0.0641  0.1935
32289W        W47758  11.982  13.191   3.215  0.0829  0.2415  0.2635
32290W        W47759   2.780  15.600   4.852 -0.1497  0.1887 -0.2033
32291W        W47760  16.942   2.915   4.004  0.1640  0.2387 -0.0998
32292W        W47761   4.284   5.508   2.726 -0.1834  0.1235  0.1741
32293W        W47762  10.630   8.698  16.317  0.4153  0.0359 -0.0824
32294W        W47763   9.421   0.298   5.400 -0.0590 -0.0911  0.0216
32295W        W47764   7.041  11.803  13.620 -0.0802  0.2000 -0.1382
32296W        W47765   1.061   9.750   3.266 -0.1775  0.0702 -0.1824
32297W        W47766  13.078   1.044  14.513 -0.1908  0.0571  0.0157
32298W        W47767   3.587   5.684  13.378 -0.0394  0.4635 -0.2180
32299W        W47768   8.884   1.222  12.325 -0.0405  0.1609 -0.0031
32300W        W47769   0.736   6.789   4.418 -0.0712  0.0330  0.0310
32301W        W47770   1.700  17.541   0.656  0.1374 -0.2899  0.0642
32302W        W47771   9.636   5.078   8.007 -0.0177 -0.0789  0.2647
32303W        W47772  10.104   7.952   0.051 -0.1186  0.0199  0.0944
32304W        W47773   5.115   3.944  15.299 -0.0801  0.3793 -0.0463
32305W        W47774   5.789   4.964  13.607  0.1679 -0.0473  0.1306
32306W        W47775  10.734   3.592  13.382 -0.3015 -0.1087 -0.0842
32307W        W47776   5.486   1.813   4.411  0.1119 -0.2733 -0.1070
32308W        W47777   7.557   4.060   2.052 -0.0594 -0.1226  0.0786
32309W        W47778   4.310   9.785   1.757 -0.2551 -0.1122  0.0450
32310W        W47779  15.145   9.323  15.580  0.0211 -0.1627  0.0719
32311W        W47780   2.409  13.964   0.366  0.1791 -0.0455 -0.1425
32312W        W47781  11.545  14.294   6.047 -0.1879 -0.1352 -0.0126
32313W        W47782  17.239  13.719  16.559  0.0749  0.1855  0.0465
32314W        W47783  11.501   1.474   5.310  0.0109  0.1338  0.0215
32315W        W47784   7.993  11.601   0.663 -0.1190 -0.3552  0.2253
32316W        W47785  16.273  14.710  13.148  0.1701  0.0331 -0.0889
32317W        W47786   7.944   6.325   3.919  0.2164 -0.0650  0.3494
32318W        W47787  13.136   9.643  16.166  0.0110 -0.2851  0.1880
32319W        W47788   0.578   2.147  11.405  0.0881  0.1466  0.1242
32320W        W47789   2.371   5.298   2.211  0.2884 -0.2939  0.3915
32321W        W47790  16.030   1.228   1.210  0.1552  0.0047  0.1563
32322W        W47791   0.077  17.014  11.639  0.2172 -0.0300 -0.2956
32323W        W47792   0.083  15.304   5.728  0.1427  0.2079 -0.2416
32324W        W47793  15.384   6.599  13.567 -0.0086 -0.0445  0.1911
32325W        W47794   1.767   5.906  15.991 -0.4158  0.0010 -0.2450
32326W        W47795   2.111   1.379  13.660  0.1825  0.0638  0.2334
32327W        W47796   8.145   2.709   0.911 -0.0658 -0.1317  0.3061
32328W        W47797  16.772  12.931  15.583 -0.0113  0.0313  0.1862
32329W        W47798   1.677   3.262   5.118 -0.2674  0.0224  0.3098
32330W        W47799   0.777   2.997   6.428  0.2538 -0.0241 -0.0259
32331W        W47800   5.461  16.946  15.387 -0.2044  0.0910  0.3747
32332W        W47801   1.393  12.023  15.493 -0.3842  0.1045 -0.0702
32333W        W47802  10.613  10.391   0.794 -0.3172  0.0692  0.1476
32334W        W47803   4.796  13.018   3.123 -0.4473  0.0502 -0.0811
32335W        W47804   3.186  17.285   4.442 -0.0901 -0.0253 -0.2004
32336W        W47805  16.799  17.261  15.996 -0.0341 -0.0288 -0.1269
32337W        W47806  13.558  14.755   3.242 -0.0922 -0.2131 -0.1199
32338W        W47807  11.737   5.009   1.017 -0.2269  0.2484 -0.1875
32339W        W47808  15.793   3.110   1.256 -0.0630  0.0225  0.0515
32340W        W47809   7.850   3.197  16.245  0.1177 -0.0507  0.2522
32341W        W47810   3.761   8.102  15.408 -0.0716  0.2308 -0.0823
32342W        W47811   0.090   2.325   1.979  0.1336  0.1617  0.0807
32343W        W47812   3.986  17.731  14.754  0.1471 -0.1259  0.0203
32344W        W47813   5.978   8.158  11.200 -0.1766 -0.2642  0.0379
32345W        W47814   1.088   3.360  16.433 -0.4295  0.3321 -0.1379
32346W        W47815   2.466   0.602  12.574 -0.1808  0.0429  0.0211
32347W        W47816  14.245   2.151   2.878  0.2684  0.1148 -0.0672
32348W        W47817  13.283   9.885   5.604 -0.0997  0.0569 -0.0298
32349W        W47818  13.499  11.564   0.621 -0.1189  0.0519  0.1192
32350W        W47819  14.904  16.402  12.757  0.1473  0.2624  0.0473
32351W        W47820   0.142   1.641   3.595 -0.2444 -0.1293  0.1181
32352W        W47821  16.357  13.720   5.479 -0.2057  0.1177  0.1304
32353W        W47822   9.049   3.708   2.473  0.1938  0.1216  0.0918
32354W        W47823  16.233  10.489   1.709  0.0262 -0.0269  0.2890
32355W        W47824   6.256  17.952  15.719  0.0164 -0.1352  0.1162
32356W        W47825   5.404  13.169  15.190 -0.0449 -0.2607 -0.0403
32357W        W47826   7.577   1.493   4.164  0.0127  0.0638 -0.0581
32358W        W47827  10.386  17.488  14.189 -0.0825 -0.0649  0.1149
32359W        W47828  15.456   0.598   4.148 -0.3213  0.1601 -0.4676
32360W        W47829  16.175   5.589  14.898 -0.2260 -0.2701  0.1423
32361W        W47830  10.203   9.381  13.314  0.1434  0.0321 -0.1972
32362W        W47831  14.677  12.746  10.727  0.0964 -0.0976  0.0946
32363W        W47832  16.251  14.599   2.470  0.3065  0.0802  0.0865
32364W        W47833  16.022   4.119   2.306  0.0054  0.2980 -0.1025
32365W        W47834  16.179  13.159   2.262  0.0962 -0.0274  0.1218
32366W        W47835   2.200  12.713  12.297 -0.1248 -0.4087 -0.3961
32367W        W47836   0.117   1.301  14.903  0.1751  0.0185  0.0427
32368W        W47837   3.895   7.341  11.535  0.0115  0.2427 -0.1984
32369W        W47838   0.111   4.076  15.654  0.0484 -0.0904 -0.0568
32370W        W47839  16.139  10.186   4.103 -0.2189 -0.0511 -0.0507
32371W        W47840   0.125  12.298  14.027 -0.1919 -0.0676  0.1919
32372W        W47841   3.100   5.267  13.996 -0.2117  0.0321  0.0422
32373W        W47842  10.814  16.399  15.071 -0.1100 -0.2061  0.1656
32374W        W47843  17.573   3.762  12.639  0.0709  0.1320 -0.2182
32375W        W47844   1.712   1.832   1.450 -0.0816  0.3803  0.1264
32376W        W47845  12.035  10.890   4.120  0.0443 -0.3214  0.1252
32377W        W47846  17.310  12.344  12.273  0.1124 -0.0508 -0.0407
32378W        W47847   1.411  11.204  16.127  0.1089  0.0481  0.0354
32379W        W47848  10.284   6.708  11.263 -0.2655  0.0017 -0.0861
32380W        W47849  11.522   9.705  13.081  0.1163  0.1388 -0.1243
32381W        W47850   6.510   7.584  16.329 -0.0250 -0.0553 -0.0872
32382W        W47851   6.501   1.482  12.044 -0.0722  0.2308 -0.0251
32383W        W47852   0.051   8.979   4.459 -0.0805  0.1672  0.2945
32384W        W47853  16.018   0.846  15.664  0.1171  0.1070  0.2816
32385W        W47854   1.894  13.076  14.481  0.0789 -0.1165  0.0590
32386W        W47855  14.354   3.435   5.356 -0.0585  0.0443  0.0455
32387W        W47856  13.682   1.946   3.679 -0.3892 -0.1223  0.0967
32388W        W47857   3.173   3.572  14.892  0.0617  0.0240 -0.0951
32389W        W47858   6.377  17.656  14.319 -0.0420 -0.0125  0.2618
32390W        W47859   6.969  16.774  12.586  0.1174  0.1685 -0.3158
32391W        W47860   5.607   8.058   5.669  0.0600  0.2449  0.2008
32392W        W47861   0.649   8.230   2.771 -0.0707 -0.1798  0.0712
32393W        W47862  15.285  13.508  10.968 -0.0397 -0.1092  0.1206
32394W        W47863   0.968  16.582   4.869 -0.1037  0.0050  0.0881
32395W        W47864   3.209  17.466  12.060  0.2148  0.0248  0.2196
32396W        W47865  14.941   0.467  11.343 -0.0815 -0.0711  0.1089
32397W        W47866  10.922   4.154   1.163  0.1415  0.0297 -0.0693
32398W        W47867  13.744   5.257  11.550  0.1178  0.2233 -0.1150
32399W        W47868  13.176   5.874   4.692 -0.0959 -0.1143 -0.0815
32400W        W47869   1.750  16.414   2.869  0.1485  0.1662 -0.0689
32401W        W47870  15.653   0.725   1.737  0.1239  0.1044 -0.2529
32402W        W47871  11.601  16.258   5.166 -0.0125  0.0774 -0.1961
32403W        W47872  13.082   6.047   3.574  0.0063  0.0550 -0.2199
32404W        W47873   2.463  14.856   5.206 -0.1218 -0.0109  0.2412
32405W        W47874   9.250   5.316  16.538  0.0871  0.0888  0.0413
32406W        W47875  11.964  14.713  12.285 -0.1134 -0.0769 -0.2813
32407W        W47876  15.371   1.674   3.517  0.3751  0.1546  0.0757
32408W        W47877  16.056   6.156   1.619 -0.1725  0.0434 -0.1226
32409W        W47878  13.724  14.210   0.434  0.1814  0.0095 -0.1596
32410W        W47879  16.466  13.626   3.844 -0.1669  0.0290  0.0981
32411W        W47880   5.191   9.904  12.615 -0.1861 -0.3777  0.2072
32412W        W47881  11.216  17.128  12.106  0.1058  0.0462  0.3508
32413W        W47882   2.305  11.468  15.897 -0.2162 -0.1452 -0.2584
32414W        W47883   7.039  15.704   0.519  0.3493 -0.3748 -0.1850
32415W        W47884  14.356   1.039  12.112 -0.1521  0.0201 -0.0785
32416W        W47885  14.016  11.099   3.862  0.0097  0.3343  0.0218
32417W        W47886  13.168   4.146  15.122 -0.4556 -0.0631 -0.0594
32418W        W47887   4.009   0.468   0.049  0.2928 -0.0643  0.0260
32419W        W47888   8.642   9.111   2.751  0.1375  0.2127  0.0611
32420W        W47889   4.983   0.318   5.114 -0.0186 -0.4343  0.1137
32421W        W47890  14.389   2.137   5.215  0.2027  0.2135  0.1175
32422W        W47891  14.771   1.693   0.555 -0.1226  0.0391  0.0629
32423W        W47892   9.804   9.873  11.503  0.0159 -0.1401  0.0666
32424W        W47893   1.470  10.323   0.471  0.1495  0.1498 -0.1988
32425W        W47894   8.867   1.957   0.836  0.3294  0.0526 -0.1968
32426W        W47895   3.762  15.334  13.507  0.2425 -0.1678  0.0004
32427W        W47896  11.833   4.847  12.389  0.0915 -0.1257  0.0870
32428W        W47897  17.322  10.949  11.031 -0.0849  0.2254  0.1417
32429W        W47898   1.409   5.213   1.646 -0.3614 -0.0186 -0.1450
32430W        W47899   4.630   3.060  16.237 -0.0154 -0.1137 -0.1986
32431W        W47900  11.450   6.023  12.078  0.0129 -0.1435  0.0865
32432W        W47901   2.138   4.499   2.782 -0.1609 -0.0844  0.2949
32433W        W47902   4.129  13.206  12.258  0.3081 -0.1610  0.3387
32434W        W47903  13.827   7.154  11.783  0.2914 -0.0359  0.0077
32435W        W47904   0.690  14.498  12.821  0.2684 -0.0254  0.0764
32436W        W47905  15.851   6.475   4.712  0.0088 -0.0124 -0.2328
32437W        W47906  14.601  12.774  13.759 -0.2073 -0.0753 -0.0672
32438W        W47907   1.284   3.157  15.492 -0.0575 -0.0840 -0.0516
32439W        W47908  17.864  13.303  13.889  0.0409  0.0430 -0.3524
32440W        W47909  11.659  13.976   5.167 -0.3121 -0.0811 -0.0050
32441W        W47910  11.956   6.803  12.635 -0.0762 -0.2007  0.1627
32442W        W47911   6.486   9.792   4.083 -0.1934 -0.0830  0.0273
32443W        W47912  15.605  10.001   2.421  0.0101 -0.3984  0.0461
32444W        W47913   1.319  11.746  12.230 -0.2661 -0.1319 -0.0691
32445W        W47914   3.468  11.430   3.478  0.2136 -0.0239  0.4837
32446W        W47915   9.662   9.036   4.592  0.0725 -0.3778  0.2593
32447W        W47916  12.784  16.183  14.084  0.2200  0.2610  0.0008
32448W        W47917   6.743   1.732   3.067 -0.2166  0.3295  0.0069
32449W        W47918  13.681  11.811  13.278  0.1592 -0.2022  0.0421
32450W        W47919   1.469   8.792  15.247 -0.2900 -0.0366 -0.3031
32451W        W47920   2.753  15.145   1.785 -0.1561  0.2648 -0.0107
32452W        W47921   9.565   5.990  15.881 -0.0563 -0.1984  0.2684
32453W        W47922   0.782   6.703  12.431  0.0222  0.0150  0.3167
32454W        W47923  16.356   3.775  12.523  0.1522 -0.2183 -0.3594
32455W        W47924  10.705   6.786  14.060  0.0422  0.3474  0.2340
32456W        W47925  11.750   9.213   4.469 -0.0742  0.0956  0.1077
32457W        W47926  13.396  12.054   5.160 -0.2060 -0.1881  0.2241
32458W        W47927  12.125  14.595   1.504 -0.0271  0.0932 -0.0370
32459W        W47928   3.704  15.379   2.957  0.2328  0.0033 -0.1799
32460W        W47929   5.628   9.024  11.449  0.2948 -0.0383 -0.2717
32461W        W47930  11.123   1.825  15.546  0.1130 -0.2271 -0.0558
32462W        W47931   7.464  11.011  14.930 -0.0242 -0.0961  0.2955
32463W        W47932  10.607  15.818  15.642 -0.0427 -0.1182  0.3929
32464W        W47933  13.312   9.300   4.100  0.0774  0.2267 -0.0661
32465W        W47934   6.542   3.481   3.587 -0.1025 -0.1753  0.1270
32466W        W47935  16.252   1.340  15.826  0.0172  0.0324  0.0225
32467W        W47936  14.911   4.675  14.569  0.0565 -0.0018  0.1744
32468W        W47937   0.842  15.214  13.510  0.0118  0.1580  0.0145
32469W        W47938  12.072   3.973  15.375  0.0713  0.3065 -0.0660
32470W        W47939  13.607  15.060   4.585  0.0293 -0.2426 -0.0498
32471W        W47940  16.420  10.978  14.506 -0.0734  0.0182  0.3515
32472W        W47941   4.319  15.812   4.531  0.0686 -0.0143  0.1270
32473W        W47942   1.432  15.964  14.865 -0.0428  0.3664  0.1938
32474W        W47943   0.065   0.463   1.629  0.0684 -0.0760  0.0783
32475W        W47944   6.945   0.320   4.010 -0.1969 -0.1384 -0.0742
32476W        W47945  12.483   4.417   3.465 -0.0342 -0.0167 -0.2091
32477W        W47946   4.187   4.514  13.335  0.1128 -0.1423  0.3859
32478W        W47947  15.516   6.851  12.611 -0.0256  0.1859 -0.0780
32479W        W47948   6.276   2.303   3.912  0.0578 -0.0381 -0.2822
32480W        W47949   4.701   8.366  13.233  0.2065  0.4135  0.0754
32481W        W47950   3.366  16.239  13.973 -0.1141 -0.2636 -0.0490
32482W        W47951  15.752  13.446   2.240 -0.2307 -0.1553  0.1690
32483W        W47952  16.340   6.843   4.098 -0.1287  0.2375 -0.0421
32484W        W47953   7.966  12.096  13.312 -0.1774 -0.1096 -0.1045
32485W        W47954  11.800  16.183  13.031 -0.1741  0.1219  0.0315
32486W        W47955   5.295  16.565   5.173  0.4965  0.1001 -0.2308
32487W        W47956  12.688   2.753   2.608 -0.0255 -0.2357 -0.4343
32488W        W47957  12.272  13.460   2.771 -0.3003 -0.4498 -0.0814
32489W        W47958   6.417  11.536  14.365 -0.4406  0.4135  0.0116
32490W        W47959   4.079  10.825  15.227 -0.2847 -0.3208  0.2905
32491W        W47960  11.257   6.921   5.031 -0.0415  0.1282 -0.0048
32492W        W47961  11.543   6.942   0.009 -0.3387  0.0624 -0.1998
32493W        W47962  10.243  10.159  11.668  0.1333 -0.0073 -0.0912
32494W        W47963  10.844  13.595  12.469  0.2460  0.0558  0.1620
32495W        W47964  17.665  16.344  14.820 -0.2422  0.0900  0.2728
32496W        W47965  13.710  12.625  16.361  0.2710  0.2962  0.2434
32497W        W47966   4.400  17.612   3.222  0.2308  0.1530 -0.0869
32498W        W47967   0.231   0.638  14.292  0.1408  0.4978  0.0246
32499W        W47968   2.876   0.978  15.204  0.4523  0.2102 -0.0328
32500W        W47969   8.603   2.489  15.298  0.1171  0.1638 -0.2769
32501W        W47970   7.860   8.583   5.613 -0.1304 -0.2046 -0.1479
32502W        W47971   3.275  14.906   4.686 -0.0495  0.3000 -0.0983
32503W        W47972   1.263  15.702   0.962  0.0988  0.0710  0.2951
32504W        W47973   9.250  16.109   5.697  0.0951  0.0096  0.2191
32505W        W47974   0.685  13.806  13.363 -0.1091  0.1145 -0.0997
32506W        W47975   4.439   1.489   2.843 -0.1715 -0.0937 -0.1959
32507W        W47976   4.400   0.076   4.885 -0.0319  0.2825  0.1629
32508W        W47977  17.178   8.536   4.943  0.1598 -0.1913  0.3330
32509W        W47978   9.356  15.420   4.762  0.1093  0.1112 -0.2688
32510W        W47979  10.223   2.106   2.899  0.0596 -0.2179  0.1166
32511W        W47980   1.514   8.545  11.722 -0.1735 -0.1873  0.0971
32512W        W47981   0.910  15.229   4.387 -0.0664 -0.1786 -0.0065
32513W        W47982   2.450  17.647   0.818  0.2412  0.0338  0.0056
32514W        W47983  12.603   2.349  13.402 -0.0787  0.2852 -0.1425
32515W        W47984   8.874   6.143  16.457 -0.0630 -0.2614  0.2995
32516W        W47985  12.699  16.647  13.805  0.1228  0.1526  0.1427
32517W        W47986   6.473   0.632   4.421  0.1420  0.1872  0.2179
32518W        W47987  10.971   8.563  15.271  0.0022 -0.4367  0.3795
32519W        W47988   3.100   2.994   2.320 -0.2309 -0.2096 -0.1184
32520W        W47989  14.252  15.417  15.084 -0.1853 -0.0686 -0.0257
32521W        W47990  15.511   2.252  14.484  0.0674  0.0504 -0.1545
32522W        W47991   3.766   6.287  13.337  0.0001  0.2272 -0.1728
32523W        W47992   0.249  16.216   6.795  0.4807  0.2841  0.1025
32524W        W47993   1.157   3.151   4.311 -0.0795 -0.2436 -0.4626
32525W        W47994  10.488   1.136   1.026  0.2060 -0.1383  0.1863
32526W        W47995  17.418  14.902   4.888  0.2122 -0.0133 -0.0164
32527W        W47996   1.329   3.641  14.503  0.1476  0.0248  0.0925
32528W        W47997  12.070   5.188  15.122  0.0735 -0.0739 -0.2083
32529W        W47998   3.707  17.056   1.922  0.3695 -0.1072 -0.2097
32530W        W47999   0.619   3.435  13.954  0.0864  0.1469 -0.0551
32531W        W48000   6.177   0.334  16.012  0.5292 -0.2864 -0.0959
32532W        W48001   6.204   7.677  12.656 -0.0188  0.1726  0.0994
32533W        W48002   1.731  10.229   9.976 -0.0326 -0.3414 -0.1533
32534W        W48003   8.870  16.293   2.288  0.0968  0.2011 -0.0503
32535W        W48004  11.847  15.357   5.116  0.2851 -0.0907  0.2495
32536W        W48005  15.684  13.071  14.666 -0.0091 -0.2475  0.1072
32537W        W48006  16.941   5.405   4.630 -0.2540 -0.2572  0.1166
32538W        W48007   6.548  11.107  13.278  0.1559 -0.1847 -0.0793
32539W        W48008  13.463  14.729   3.738 -0.1306 -0.3511 -0.1333
32540W        W48009  10.764  14.334   4.041 -0.1747 -0.0877 -0.0053
32541W        W48010   2.030  15.405   2.874  0.0744  0.0588  0.1586
32542W        W48011  12.209   4.816  13.149 -0.0401 -0.1579  0.0774
32543W        W48012   7.661  14.151   0.308 -0.2155  0.2306 -0.2510
32544W        W48013   5.429   9.985  16.135  0.1025 -0.1441 -0.0226
32545W        W48014  14.138  10.623  16.606  0.1587 -0.0138 -0.1015
32546W        W48015   2.299   4.367  12.071  0.1077 -0.0745  0.0952
32547W        W48016  15.450  14.270  14.292 -0.1048 -0.0037  0.4387
32548W        W48017   0.028   3.293   5.320  0.0935  0.5009 -0.0421
32549W        W48018  12.258   0.744   1.103  0.1608  0.0438 -0.4759
32550W        W48019   5.432   7.753   4.861 -0.1973  0.1729 -0.1382
32551W        W48020   1.269  17.948   5.152 -0.0427 -0.2208 -0.1462
32552W        W48021   5.308  12.058   3.688 -0.0409 -0.0896 -0.3425
32553W        W48022  11.487   4.626   2.117  0.1762 -0.2005 -0.2815
32554W        W48023  10.079  15.776   1.743 -0.0173  0.1617  0.1979
32555W        W48024   3.647   0.508   4.738  0.0169 -0.0014 -0.2896
32556W        W48025  11.708   7.868  10.396 -0.2551 -0.1821 -0.0057
32557W        W48026  11.975   6.050  12.113  0.1128  0.2020  0.1241
32558W        W48027   5.102  16.775  16.351 -0.0405  0.3103  0.0700
32559W        W48028  11.773  17.016  12.478 -0.0025  0.2066 -0.3185
32560W        W48029   3.262  11.349   4.464 -0.3382 -0.2750 -0.2285
32561W        W48030   5.737  10.164  12.508  0.0181 -0.1101  0.0218
32562W        W48031   9.850  12.551   1.220 -0.1602  0.1287  0.5350
32563W        W48032  14.458  17.008   1.548 -0.0529 -0.0323  0.1274
32564W        W48033  16.749   2.325   0.240  0.0819  0.0743  0.3648
32565W        W48034   5.911  10.255  14.337 -0.1033  0.1607 -0.0985
32566W        W48035   6.062  14.556   5.734  0.0896  0.4247 -0.0770
32567W        W48036  10.617   9.947   5.023 -0.0149  0.2364  0.1029
32568W        W48037   7.547  16.263  14.088 -0.0405  0.2215 -0.3320
32569W        W48038   0.423  14.029  15.107 -0.2310 -0.1211  0.0734
32570W        W48039   0.378   1.451  12.702 -0.2031  0.2047  0.0954
32571W        W48040   0.110  12.339   0.523 -0.0855 -0.0559  0.1198
32572W        W48041   6.100  11.753   1.272  0.1067 -0.0203 -0.0263
32573W        W48042   9.400  15.101   1.442 -0.2519 -0.0053 -0.0163
32574W        W48043  15.397  11.384   2.511 -0.0269  0.4240  0.0132
32575W        W48044   8.882  12.420   5.207  0.1392  0.1961 -0.1030
32576W        W48045  17.516   1.201   4.729 -0.1987 -0.0151  0.1676
32577W        W48046   5.483   4.244   0.840  0.3351 -0.1779  0.0873
32578W        W48047  14.045   3.165   0.078  0.0263 -0.0726 -0.0370
32579W        W48048   3.225   2.017  12.081  0.0950 -0.1898 -0.2093
32580W        W48049   4.874   5.094   4.251  0.0552 -0.1089  0.0468
32581W        W48050   2.704  11.924   3.790  0.3036  0.1041 -0.0270
32582W        W48051   8.892   4.580   0.968  0.0054 -0.1134  0.1179
32583W        W48052   3.021   2.328  14.869  0.0457 -0.0514 -0.1545
32584W        W48053  11.837  17.170  11.474 -0.0490 -0.2396  0.0100
32585W        W48054  13.863  10.572  14.728 -0.7327  0.0884  0.1402
32586W        W48055  16.468   2.252   3.543 -0.0970 -0.0115 -0.1002
32587W        W48056   5.848  16.884   5.402 -0.2426 -0.0894  0.2407
32588W        W48057  11.476  15.444   1.694  0.0637  0.1448 -0.3790
32589W        W48058   3.149   6.416  12.689  0.0448 -0.0113  0.2274
32590W        W48059  13.962  10.981  16.230 -0.1520 -0.1936  0.0499
32591W        W48060  15.481   7.944  14.327 -0.0175 -0.2247 -0.2509
32592W        W48061   9.653   9.410   1.516 -0.1010  0.1777  0.1041
32593W        W48062  17.717   9.660  15.706 -0.3279 -0.1023  0.1322
32594W        W48063  10.569  11.020   0.016 -0.0070 -0.1035 -0.1395
32595W        W48064   8.577  13.492  12.659 -0.1457 -0.1522 -0.0817
32596W        W48065  14.466   5.732   1.496 -0.1759  0.1526  0.0900
32597W        W48066  16.908   7.406  13.592  0.2026  0.0448 -0.2704
32598W        W48067  14.438  15.492   1.335 -0.1786  0.0871 -0.2995
32599W        W48068  10.381   3.290   4.403  0.0709  0.0252 -0.0137
32600W        W48069   0.524  14.923   3.990 -0.0550  0.1255  0.4540
32601W        W48070   2.805  16.241   0.818  0.0317 -0.2521 -0.0355
32602W        W48071  13.978  14.835   4.932 -0.2982 -0.2301 -0.4626
32603W        W48072  14.770   3.193   4.065  0.0275  0.0522  0.0636
32604W        W48073   5.199  16.013  11.898 -0.2515  0.0692 -0.3672
32605W        W48074  13.000  17.118   0.287  0.0291 -0.0405 -0.1085
32606W        W48075  16.842  11.130  16.403 -0.2702  0.0601 -0.1022
32607W        W48076  12.195   1.334  13.870  0.1107  0.2290 -0.1610
32608W        W48077  17.587  14.971  15.051  0.0384  0.2625  0.0063
32609W        W48078   7.021  10.545  15.575  0.0932  0.0997  0.0720
32610W        W48079   8.826  10.280  16.340 -0.0097  0.3549  0.3399
32611W        W48080  16.829   5.360  13.558 -0.0077  0.2145 -0.1612
32612W        W48081   9.481  17.755   1.295 -0.1451  0.3656  0.1248
32613W        W48082  17.093  16.635   5.655  0.0513  0.1592 -0.0031
32614W        W48083   7.075   8.546   4.909  0.0804 -0.0258  0.2567
32615W        W48084   5.956  10.192  15.518 -0.0248 -0.4093 -0.2427
32616W        W48085   7.945  11.261   1.175  0.2973 -0.3348 -0.0666
32617W        W48086  17.125  11.597   3.509 -0.1073 -0.0286 -0.2650
32618W        W48087  11.852  17.192  14.617 -0.3320 -0.0876 -0.1984
32619W        W48088   6.972  11.919  14.359  0.2029 -0.0362  0.0251
32620W        W48089  14.184  12.856  16.348 -0.0247  0.1303 -0.1974
32621W        W48090  17.927   0.203   5.616  0.1327 -0.1307  0.1381
32622W        W48091   7.328  12.674  16.532  0.2373 -0.1970 -0.0863
32623W        W48092  16.344   9.667   5.822  0.0029  0.0198  0.0732
32624W        W48093  13.450   4.572  15.121 -0.2028 -0.2368 -0.1887
32625W        W48094  13.991  10.954   4.951 -0.0173 -0.1223  0.2524
32626W        W48095   1.331   6.083   1.680  0.1028 -0.0262 -0.4807
32627W        W48096  17.123  10.870   4.257 -0.1188  0.1262 -0.0848
32628W        W48097   1.562   9.026   0.706  0.0200  0.1545  0.1730
32629W        W48098   0.043   2.835  11.970 -0.0765 -0.0995  0.0712
32630W        W48099   7.168   4.571  14.125 -0.0279  0.1719  0.0993
32631W        W48100  13.699   5.289   1.643 -0.1313 -0.2850 -0.2782
32632W        W48101  10.178  14.373   0.896  0.1125  0.1657  0.3881
32633W        W48102   3.841  15.283   1.322 -0.0984 -0.4373 -0.0393
32634W        W48103   2.458  16.987   3.996 -0.1226 -0.0774  0.1705
32635W        W48104  13.332   0.861  11.965 -0.3168  0.0336  0.1613
32636W        W48105   3.135  10.926   2.703  0.1161 -0.3566  0.0896
32637W        W48106  17.942   3.326   3.415 -0.1675 -0.1211  0.0852
32638W        W48107  11.216  15.411   2.768  0.0337  0.0930 -0.1173
32639W        W48108  13.670   2.898   2.038  0.2348 -0.3915 -0.0069
32640W        W48109   6.071  15.732   6.181  0.4882 -0.1010 -0.0342
32641W        W48110   0.577   7.335  10.411  0.0102  0.0330 -0.0868
32642W        W48111  12.939  11.613  15.347 -0.4022 -0.2170 -0.0207
32643W        W48112   7.698   0.698   2.383 -0.1347 -0.2019 -0.0653
32644W        W48113  12.712   0.559   5.186  0.1104 -0.0659  0.0136
32645W        W48114  17.482  10.833   4.769  0.1709  0.3515  0.2968
32646W        W48115  16.468  10.980   1.338 -0.0570  0.0236  0.1085
32647W        W48116  11.353  12.421  16.201 -0.0350  0.1037 -0.0576
32648W        W48117  17.458   7.037   0.421 -0.0138  0.3049  0.0325
32649W        W48118   3.311   1.888  15.463  0.0414  0.1309  0.1905
32650W        W48119   9.689  14.434  14.699  0.2653  0.2971 -0.0747
32651W        W48120  14.869   1.989   5.279 -0.1410 -0.1614  0.0937
32652W        W48121   2.752  10.161   5.782 -0.2668  0.0598  0.0709
32653W        W48122   2.974  14.743   6.109  0.1680  0.0728  0.2283
32654W        W48123   6.508  11.311   5.337 -0.1100 -0.0063  0.0568
32655W        W48124   6.844   0.326   3.078 -0.0696 -0.1104  0.0675
32656W        W48125   4.478   1.872  11.776  0.2744  0.1445  0.1919
32657W        W48126  15.764   5.547  15.150 -0.3624  0.0999 -0.2197
32658W        W48127   3.138   7.618  11.914  0.0815  0.2131  0.0437
32659W        W48128   1.186   3.760  10.837  0.0704  0.3465 -0.0763
32660W        W48129  13.978   4.479   1.272 -0.1676  0.0686 -0.1584
32661W        W48130  14.043  16.368  15.229  0.0948  0.0649 -0.2625
32662W        W48131  12.258  17.916   2.693  0.1858 -0.1488 -0.2014
32663W        W48132   6.310   2.813  15.445 -0.1680 -0.2239  0.0946
32664W        W48133  13.452  12.644   4.969 -0.2092 -0.0370  0.1157
32665W        W48134   8.586   8.595   4.917  0.5556 -0.3426  0.0715
32666W        W48135  12.806   2.406  11.490 -0.2350  0.2766 -0.1163
32667W        W48136  11.014  10.333   0.432 -0.0457 -0.0940 -0.0133
32668W        W48137  10.841   5.689  16.487  0.0280 -0.0504 -0.2929
32669W        W48138  12.963   7.355   4.025  0.0942  0.1290  0.3926
32670W        W48139   8.625  12.564  12.204 -0.1771  0.0406 -0.0227
32671W        W48140  16.318  13.076   0.974  0.1748 -0.1141 -0.1149
32672W        W48141   5.625   7.394  15.325  0.0828 -0.2025  0.0247
32673W        W48142   7.569   5.285  14.345 -0.0067 -0.1392  0.0566
32674W        W48143   0.637  13.601   4.562  0.0854 -0.0690  0.1425
32675W        W48144   7.681   8.435  14.486  0.0647 -0.1158 -0.0729
32676W        W48145   9.272  13.175  14.401 -0.0472 -0.1277 -0.0447
32677W        W48146  11.506  15.516  14.996 -0.1461  0.1049 -0.2049
32678W        W48147  14.011  13.967   1.557  0.3223 -0.1769  0.2155
32679W        W48148   1.768   5.204  15.224 -0.0665  0.2512 -0.0169
32680W        W48149  16.372   1.314  14.996  0.1245 -0.0528 -0.1255
32681W        W48150   2.845  10.211  15.467 -0.0335 -0.0662  0.0281
32682W        W48151  16.619   6.973  14.601 -0.0667 -0.2309 -0.0966
32683W        W48152   0.402   2.309  15.786  0.1047  0.2816  0.1555
32684W        W48153   8.163  15.995   3.772 -0.3567 -0.1124 -0.0772
32685W        W48154  14.727  13.995   3.850 -0.1884 -0.3697  0.3330
32686W        W48155   9.072   9.660  14.341  0.1247 -0.0674 -0.0369
32687W        W48156   5.322   6.495  12.078 -0.2362  0.2755 -0.1068
32688W        W48157  14.176  17.992   0.786 -0.1663  0.0276  0.2084
32689W        W48158   0.161   5.551   2.516 -0.1663 -0.1195 -0.2081
32690W        W48159  16.525   7.017   2.185 -0.0297  0.2359 -0.0379
32691W        W48160   6.666   2.338  11.905  0.0212 -0.0428 -0.0229
32692W        W48161   2.073   4.251   0.032  0.0918 -0.1516  0.0069
32693W        W48162  15.030   1.254   3.483 -0.1731  0.1653  0.0236
32694W        W48163   8.002   8.039  14.285 -0.0258  0.3066  0.0848
32695W        W48164  16.621   3.776  14.696  0.2214  0.1948 -0.0975
32696W        W48165   6.186   1.097   0.677 -0.0247 -0.4145  0.0238
32697W        W48166   2.269   5.023   4.114 -0.3617 -0.1264 -0.0738
32698W        W48167   4.832   3.665   3.679  0.1317 -0.1050  0.1302
32699W        W48168  13.993   0.887   5.566  0.1060  0.1851 -0.0314
32700W        W48169   7.888  17.105   2.281 -0.2323 -0.1570 -0.0012
32701W        W48170   1.471   5.927   2.644 -0.2073 -0.0872 -0.0816
32702W        W48171  11.707  10.047  15.392  0.1162  0.1811  0.1000
32703W        W48172   2.745   9.356  13.801  0.1735  0.1443  0.0810
32704W        W48173  16.701   5.542  14.959  0.0308 -0.1085 -0.0869
32705W        W48174  13.114   8.568  16.138  0.1707  0.0999  0.0727
32706W        W48175  13.961   8.859  16.352  0.2367 -0.2969  0.0087
32707W        W48176  16.849  13.833   5.337 -0.0481  0.0798  0.0573
32708W        W48177  11.107   8.245   2.334 -0.0164  0.2819  0.1596
32709W        W48178   8.171  13.339  15.616  0.2399 -0.1030  0.4320
32710W        W48179  13.605   5.003  11.014  0.0981 -0.1679 -0.2062
32711W        W48180  12.189   4.564   3.000  0.2491  0.4281 -0.2706
32712W        W48181  14.480  17.036  13.014  0.1994 -0.0982  0.1104
32713W        W48182   3.187  17.010   1.935  0.1226 -0.0572  0.4624
32714W        W48183   1.839  11.883  12.374  0.0709  0.0625  0.4034
32715W        W48184   8.209   5.299   1.533  0.1590  0.1838 -0.1099
32716W        W48185   1.975   6.090  12.072  0.0239  0.0203  0.2146
32717W        W48186  11.190   0.655   1.203  0.1597  0.1806  0.4168
32718W        W48187   1.575   5.485   1.190 -0.1506  0.2365 -0.0307
32719W        W48188   9.590   3.713   3.979  0.0409  0.2592  0.0640
32720W        W48189  14.049   9.327   5.105 -0.2434  0.0643  0.2528
32721W        W48190   6.881  11.501   2.816  0.1679 -0.2000 -0.0436
32722W        W48191   5.309  13.182   1.020 -0.1064  0.3307  0.1120
32723W        W48192  15.603  10.053   4.481 -0.2497  0.1270 -0.1119
32724W        W48193   2.894   5.497   2.939 -0.0389  0.0421  0.2537
32725W        W48194   6.905   5.978   5.485  0.1322  0.1319  0.0012
32726W        W48195   0.630   4.957  14.890 -0.0035  0.5240 -0.1373
32727W        W48196   3.466  16.492  11.577 -0.0747 -0.1103  0.0459
32728W        W48197  10.229   4.376  15.571 -0.1556  0.1283  0.1187
32729W        W48198   1.913   0.576  12.586 -0.4656  0.1317 -0.0519
32730W        W48199   5.180  14.220  12.485 -0.0375  0.3168 -0.1490
32731W        W48200  13.579   5.298   3.099 -0.0656 -0.2000  0.0913
32732W        W48201  16.031  15.904  16.326 -0.3107  0.0503  0.0209
32733W        W48202   2.089  16.532   6.114 -0.1079 -0.0410  0.0558
32734W        W48203   1.530   3.758   1.839 -0.5125 -0.0129 -0.2437
32735W        W48204   5.230  14.089   2.177 -0.0683 -0.1427 -0.0275
32736W        W48205  10.562  16.166  12.812 -0.0423 -0.4275 -0.1179
32737W        W48206  13.243   4.600   0.815  0.0928 -0.0773 -0.1405
32738W        W48207  10.681   3.690   4.193  0.1274 -0.1311  0.1500
32739W        W48208  13.417   1.116   5.025  0.2215  0.2080  0.0518
32740W        W48209  16.070   9.554   1.849  0.1514 -0.1452 -0.2510
32741W        W48210  14.268   6.174  14.353 -0.1157  0.1111 -0.0392
32742W        W48211   9.818   1.491  15.859 -0.3198  0.1188 -0.0694
32743W        W48212  13.573  10.956  15.931  0.0856  0.0853 -0.1151
32744W        W48213   7.523  10.372   3.894  0.1342  0.1642  0.2079
32745W        W48214  13.510  13.046  12.308 -0.0533  0.0039  0.3894
32746W        W48215   3.735   6.477   1.546 -0.2020 -0.2558  0.1401
32747W        W48216   1.618  10.954  14.857 -0.0635  0.0285  0.0152
32748W        W48217  11.272   8.378   3.998  0.2194  0.2975 -0.4853
32749W        W48218  17.070   0.429   0.714  0.2084  0.1067 -0.2506
32750W        W48219  16.493   7.738  16.308  0.0648 -0.0165 -0.3693
32751W        W48220  17.373  16.989   2.189 -0.0361 -0.1043  0.1340
32752W        W48221   1.391  16.122   4.847  0.0289 -0.1590  0.0866
32753W        W48222  14.938  11.712  14.693 -0.0745 -0.1620  0.2329
32754W        W48223   5.116  12.434  15.264 -0.0840 -0.2627  0.1226
32755W        W48224   5.114   6.849  15.754 -0.0881 -0.0088 -0.1985
32756W        W48225   0.365   4.384   1.303 -0.3477 -0.0158  0.0176
32757W        W48226   6.388  13.721  16.014  0.1280  0.1042  0.4257
32758W        W48227   0.528  12.690   1.283 -0.0447  0.2445 -0.3329
32759W        W48228  11.370  15.231   4.857 -0.1752 -0.1959 -0.3135
32760W        W48229   8.197   8.274  13.826 -0.0674 -0.3145 -0.1120
32761W        W48230  15.840  17.953  12.740  0.0222  0.0380 -0.2582
32762W        W48231  15.928   8.710   1.612 -0.1557  0.1042 -0.0033
32763W        W48232  17.198   9.467   2.088  0.1902  0.0377  0.0520
32764W        W48233   5.068   5.469   3.325  0.0379 -0.0025  0.3084
32765W        W48234   5.928   8.874  12.371 -0.2261 -0.2620  0.1390
32766W        W48235   3.838   1.731   0.331 -0.0936  0.3116  0.0266
32767W        W48236   5.093  17.514   4.647  0.2315 -0.1851  0.0350
32768W        W48237   9.294   3.729  12.650  0.1938  0.2027 -0.1880
32769W        W48238  14.396   5.258   1.756  0.0450 -0.2982  0.1865
32770W        W48239   9.443   8.587  11.250  0.3639  0.0284  0.1323
32771W        W48240   3.230   3.403  12.180 -0.1035  0.1129  0.0233
32772W        W48241   7.603   7.611   1.240 -0.0497  0.0440  0.0016
32773W        W48242   8.672   9.800  15.498  0.0587  0.0048 -0.3692
32774W        W48243   4.191  17.057   4.755 -0.0287 -0.2104  0.0787
32775W        W48244  14.562  15.648  12.342  0.0079 -0.1816 -0.1902
32776W        W48245   7.451  12.896   2.190  0.2108  0.3496  0.0012
32777W        W48246  12.219   7.885   4.683 -0.1746 -0.3551  0.1100
32778W        W48247   8.189  13.378   1.804 -0.0580 -0.4178  0.1055
32779W        W48248  13.650   5.354   4.857 -0.1828  0.1398 -0.1091
32780W        W48249   2.585   9.627  13.424  0.0329  0.3269  0.0729
32781W        W48250   7.090   1.316   3.393 -0.2431  0.0696  0.0481
32782W        W48251   6.492   8.731   4.280  0.3101 -0.1634  0.1930
32783W        W48252  13.832  11.017   4.493  0.0678 -0.0085  0.2052
32784W        W48253  14.496   6.442   0.795 -0.0606 -0.0662 -0.4077
32785W        W48254   7.404   1.721   6.468  0.3527 -0.0874  0.0653
32786W        W48255  15.484   1.622   0.575 -0.0812  0.1209 -0.2159
32787W        W48256   2.891   7.017  11.187 -0.0811  0.0951  0.2176
32788W        W48257   9.968   9.458   4.784 -0.2010  0.0943 -0.2185
32789W        W48258   5.434   2.442   2.660 -0.2152 -0.1459 -0.3266
32790W        W48259  16.386   0.696  13.704 -0.1211 -0.0594 -0.1671
32791W        W48260  15.167   8.832   4.769 -0.1651 -0.0090  0.3443
32792W        W48261   4.627   6.874  10.728 -0.1592  0.1727  0.1169
32793W        W48262  16.324   2.172  16.034  0.0504 -0.2544  0.2234
32794W        W48263   5.951  15.916   0.612  0.1257  0.0146  0.1894
32795W        W48264  12.581  11.354   2.092  0.1974  0.2333  0.2508
32796W        W48265   4.991  15.376  15.349 -0.0570 -0.1766  0.1355
32797W        W48266  12.051   1.619   0.074  0.0701  0.0669  0.1787
32798W        W48267  18.002   1.867  11.973 -0.0253 -0.0724  0.1832
32799W        W48268   4.017   2.612  15.602 -0.1784  0.0411  0.1807
32800W        W48269   7.646   8.254   2.562  0.1099 -0.0009 -0.2272
32801W        W48270   1.133   1.317  14.029  0.4021 -0.0012  0.1113
32802W        W48271   8.929   9.722   1.731  0.1440 -0.1518 -0.1960
32803W        W48272  12.225   0.032   6.266 -0.1259  0.0451  0.0852
32804W        W48273  13.349  10.271  14.603  0.1881 -0.1224  0.1023
32805W        W48274   2.259  12.481  16.446  0.1261 -0.1728  0.2484
32806W        W48275   5.774  11.396  13.545 -0.1165  0.1527 -0.2162
32807W        W48276   5.734   6.815   0.406 -0.2477  0.1741  0.0651
32808W        W48277   9.077  16.123  14.260 -0.0694 -0.0330 -0.2358
32809W        W48278   7.875  14.038   3.867  0.0462  0.5658 -0.0354
32810W        W48279  12.474  10.293   1.115 -0.2958  0.1093 -0.1803
32811W        W48280   2.580   7.829   1.463  0.2123 -0.0201 -0.2051
32812W        W48281  12.563   0.289   0.599  0.2999 -0.0259 -0.2270
32813W        W48282   6.371  14.984   6.454 -0.1851  0.2527  0.2608
32814W        W48283   4.029  15.745   5.583 -0.0138  0.1534 -0.0345
32815W        W48284  13.090   8.749   3.592 -0.1099 -0.1948 -0.0374
32816W        W48285  10.876  11.197   1.308  0.0893  0.1114 -0.2278
32817W        W48286   2.825  11.090   5.131  0.0006 -0.0661 -0.2042
32818W        W48287  17.231  12.175  12.764 -0.0032  0.1393 -0.4563
32819W        W48288   3.783   3.925  13.950  0.2631 -0.2232 -0.0749
32820W        W48289   3.514   7.024  16.125 -0.0707  0.2257  0.1791
32821W        W48290   6.231  16.382   6.012  0.1863 -0.4832 -0.1793
32822W        W48291  13.089   3.598   1.711 -0.2313 -0.0247  0.1455
32823W        W48292   2.314  11.471  13.129  0.1839  0.1281 -0.1484
32824W        W48293   1.388   3.918   1.065 -0.3276 -0.0891 -0.0524
32825W        W48294  15.537  16.033   2.205 -0.1435 -0.0113 -0.0188
32826W        W48295  13.620   7.115  10.567  0.0792  0.2627 -0.0678
32827W        W48296   6.585   6.407   4.395 -0.0218 -0.0286  0.1068
32828W        W48297   6.534   8.097  14.655 -0.0715  0.2274  0.0809
32829W        W48298   7.778   4.854  11.773  0.0275 -0.2007  0.3857
32830W        W48299  12.235   1.510   5.725  0.4414 -0.0865  0.0919
32831W        W48300  13.753  17.221  13.449  0.2403 -0.1495  0.0200
32832W        W48301   8.588  17.063   5.584 -0.1517  0.0346 -0.2657
32833W        W48302   3.689   5.189  14.910  0.0158 -0.0902  0.4524
32834W        W48303  15.801   0.866   5.007 -0.0450 -0.1098 -0.1680
32835W        W48304  17.075  15.573   0.944  0.2900 -0.2698  0.0561
32836W        W48305   5.613  10.313   1.815  0.2835 -0.0615 -0.0879
32837W        W48306   5.828   1.080  10.785  0.1444  0.0301 -0.1261
32838W        W48307   3.743   8.375  13.132 -0.2673 -0.1208  0.0238
32839W        W48308  17.300   5.910   1.171  0.1283 -0.2423  0.2256
32840W        W48309  12.796   4.963  10.650  0.1368  0.0177 -0.0306
32841W        W48310   9.092   1.789  15.198 -0.1612  0.2875  0.1992
32842W        W48311   3.534   8.199  11.450 -0.1588 -0.0471 -0.0233
32843W        W48312   9.596   4.796   5.380  0.1011 -0.1955  0.1506
32844W        W48313  17.924  13.004   1.736 -0.6567  0.1282 -0.3988
32845W        W48314   6.586   8.168   0.594  0.1616  0.0190 -0.1616
32846W        W48315  16.386  15.025   5.829 -0.1412  0.1336  0.0979
32847W        W48316  15.169  17.501  16.319  0.1993  0.0045 -0.0505
32848W        W48317   8.191  13.554   2.302  0.1087 -0.1674 -0.1611
32849W        W48318   3.885   9.635  12.097  0.1420 -0.1528 -0.1027
32850W        W48319  15.812   2.344  11.443 -0.1876  0.2246  0.0830
32851W        W48320   1.743   5.648   2.926  0.0272 -0.1176 -0.0896
32852W        W48321   9.530  11.416  14.882  0.1399 -0.0241 -0.0255
32853W        W48322   3.924   5.778   4.867  0.3106 -0.0753 -0.0067
32854W        W48323  16.442   3.459   4.742 -0.0450 -0.0994 -0.0816
32855W        W48324   1.143   1.914  12.519 -0.1372 -0.1367 -0.3103
32856W        W48325   8.399   7.483   1.755 -0.2583 -0.0785  0.2431
32857W        W48326  17.561  13.094   0.730 -0.0756 -0.0738 -0.1402
32858W        W48327   1.549  17.477   1.212 -0.0510 -0.0123  0.5503
32859W        W48328   5.524   4.247  15.056 -0.1362 -0.0954  0.0218
32860W        W48329  13.032  11.234   3.406 -0.2675  0.1516 -0.0579
32861W        W48330   0.979  16.337   2.081  0.0417 -0.0802  0.0573
32862W        W48331  13.304   0.407  13.545 -0.1190 -0.2021  0.1374
32863W        W48332   3.469  17.414   3.154  0.1314 -0.1716  0.1238
32864W        W48333  17.587   0.963   5.621  0.1296 -0.0366 -0.2272
32865W        W48334   2.180  13.680  12.961 -0.2157  0.1553  0.2439
32866W        W48335   7.326   6.981   2.732 -0.0149  0.0424 -0.2705
32867W        W48336  12.095  15.562   2.491  0.3647  0.2477  0.0313
32868W        W48337   0.845   6.894  13.693 -0.0943 -0.3236  0.1983
32869W        W48338   3.687   3.541   6.007  0.0955  0.0386 -0.0368
32870W        W48339  16.133   1.276   4.972  0.1044  0.0172  0.0471
32871W        W48340   9.342   0.654  14.479  0.0700  0.1547 -0.1689
32872W        W48341  14.940   2.525  16.311 -0.3685  0.0313  0.0860
32873W        W48342   8.601  16.334   0.687 -0.1500 -0.0732 -0.0794
32874W        W48343  17.917   3.379  12.633 -0.1779  0.2292  0.5731
32875W        W48344   9.018   0.985   1.368 -0.1072 -0.1398 -0.3203
32876W        W48345   0.719  11.880  12.325 -0.0175 -0.1180 -0.0370
32877W        W48346  16.732   0.967   4.763  0.1317 -0.1857  0.0961
32878W        W48347   9.257   4.290   6.050 -0.0372  0.1126  0.2409
32879W        W48348   6.111  10.552  16.414  0.2752 -0.0491  0.0468
32880W        W48349   8.753  11.212   3.968 -0.0215  0.2329  0.1509
32881W        W48350  17.471   8.209  13.846  0.2440  0.1758 -0.1016
32882W        W48351  15.123   4.998   4.895 -0.1288  0.0629 -0.0093
32883W        W48352   0.820  10.449   2.681  0.3993 -0.0466 -0.0275
32884W        W48353  14.708  12.133   5.238  0.1997  0.0009  0.2089
32885W        W48354  14.995   9.890   1.180  0.2018 -0.0716 -0.3006
32886W        W48355   3.695  15.104   4.794  0.0065  0.0291 -0.0919
32887W        W48356   6.999  16.337  15.317 -0.0621  0.1197 -0.1609
32888W        W48357   1.010  11.440   4.357 -0.0396 -0.2957 -0.0761
32889W        W48358  16.804   1.803  12.858  0.0728  0.1469  0.0610
32890W        W48359   1.045  10.960   4.516 -0.0710  0.1745 -0.1211
32891W        W48360  15.205   4.511  12.460  0.0612  0.2421  0.0907
32892W        W48361   5.776  16.453  13.567 -0.2601  0.1607  0.0993
32893W        W48362  10.709  10.014  11.394 -0.1700  0.1779 -0.0709
32894W        W48363  11.748   3.648   1.221 -0.0651 -0.1365  0.0659
32895W        W48364   8.872  11.041  13.508 -0.0079  0.2550  0.0533
32896W        W48365  12.583  14.090  15.589  0.3046  0.0567  0.0427
32897W        W48366   2.419   6.478  12.687  0.2297 -0.0208 -0.1819
32898W        W48367   6.997   1.451   6.567 -0.0379  0.0123  0.0085
32899W        W48368   8.163  16.548  12.860 -0.3330 -0.2279  0.1271
32900ION     NA48369   5.524   7.593   5.496 -0.0328 -0.1902  0.2050
32901ION     NA48370  16.249  15.502  11.026 -0.0762  0.3178  0.0547
32902ION     NA48371   2.412   3.093  14.746 -0.0824 -0.3636  0.0914
32903ION     NA48372   0.288   2.329  10.240  0.0727 -0.1813  0.3472
32904ION     NA48373   9.023   4.921  10.658  0.1705 -0.0399  0.0934
32905ION     NA48374   7.208  15.372  11.199 -0.2362 -0.6071 -0.2359
32906ION     NA48375   9.620   0.033  11.108 -0.2562 -0.1168 -0.1561
32907ION     NA48376   2.053  17.902  10.710  0.0510  0.0879  0.1230
32908ION     NA48377  17.495  13.173  10.321  0.1718  0.3808  0.2779
32909ION     NA48378  13.640   2.349  10.469  0.1053 -0.1013 -0.0364
32910ION     NA48379  14.217   0.448   5.381 -0.3401 -0.0710 -0.2357
32911ION     NA48380  16.946   7.563   9.863  0.2497  0.0001 -0.0782
32912ION     NA48381   3.997  14.541  10.710  0.1538 -0.0872 -0.0624
32913ION     NA48382   2.942   1.481  10.633  0.0257  0.0118  0.1926
32914ION     NA48383   8.853   3.099   2.313 -0.0001 -0.2309  0.1585
32915ION     NA48384   9.086   3.745   6.000  0.1988 -0.2105  0.2134
32916ION     NA48385   0.778   2.690   6.046 -0.1449  0.1278 -0.0345
32917ION     NA48386  13.944   3.157  10.183 -0.0678  0.3702 -0.0541
32918ION     NA48387  11.773   5.809  13.074 -0.0021  0.1031 -0.0139
32919ION     NA48388   6.663  12.684   1.890 -0.1308  0.1507 -0.2620
32920ION     NA48389  11.098  16.646   5.020 -0.3271  0.0116 -0.1804
32921ION     NA48390  11.402   0.643  10.904  0.0660  0.1095 -0.0295
32922ION     NA48391   8.778   2.380  10.876 -0.0270 -0.1152 -0.4032
32923ION     NA48392   2.114  17.877  16.049 -0.0807 -0.0213  0.3533
32924ION     NA48393   3.122   4.212  10.436 -0.3598  0.3512 -0.4371
32925ION     NA48394   2.239   6.494  10.013 -0.2236 -0.0466  0.0467
32926ION     NA48395  11.286   4.788   5.593  0.0207  0.0101 -0.1779
32927ION     NA48396   7.158   3.091   6.018  0.4080  0.0483  0.0947
32928ION     NA48397  13.576   0.184   0.974 -0.0246  0.1021  0.1157
32929ION     NA48398  12.708  11.057  10.705 -0.1125 -0.1258 -0.2226
32930ION     NA48399  16.762   7.092   5.534 -0.0026  0.2157  0.2240
32931ION     NA48400  12.046   6.562  10.166 -0.0164 -0.2916  0.1795
32932ION     NA48401  14.713  12.338  10.439 -0.2863  0.1341  0.0568
32933ION     NA48402  17.979   6.746   5.055  0.0265  0.0753 -0.0224
32934ION     NA48403  10.433   4.820   3.104  0.2888  0.0587  0.2570
32935ION     NA48404  11.503   4.687  10.287 -0.1634  0.0445 -0.0113
32936ION     NA48405  15.292  10.630   1.262  0.1030  0.2183 -0.2338
32937ION     NA48406   4.481   0.846  10.698  0.1784 -0.1765  0.0392
32938ION     NA48407   2.105   2.911  10.371 -0.1602 -0.3026 -0.0390
32939ION     NA48408  13.288   1.989  10.661  0.1340  0.4916 -0.1906
32940ION     NA48409  14.944   8.710   9.900  0.1049  0.1570 -0.3016
32941ION     NA48410   5.829  16.280  11.350  0.2135 -0.0240 -0.3760
32942ION     NA48411   9.935   3.540   5.954  0.1091  0.1563 -0.2594
32943ION     NA48412   5.234   4.279   3.683 -0.0112  0.0206  0.3523
32944ION     NA48413   7.382   9.575  10.292 -0.2326  0.0763 -0.1283
32945ION     NA48414  16.686  17.452  11.234  0.4241  0.0676  0.0687
32946ION     NA48415   3.691   5.133  10.335  0.1372  0.2290 -0.1484
32947ION     NA48416   4.508  15.838  10.855 -0.0311 -0.3370  0.1067
32948ION     NA48417  12.776   3.914   6.031 -0.0890 -0.2646  0.1497
32949ION     NA48418   1.035  12.337   3.050  0.0430  0.0424  0.0304
32950ION     NA48419   1.982   0.726  11.708  0.0923 -0.1985  0.1016
32951ION     NA48420   2.923   4.865  10.282 -0.0172  0.0498  0.0069
32952ION     NA48421  11.998   3.214   6.098  0.1523 -0.1056 -0.1595
32953ION     NA48422   8.467  14.366  10.930  0.1480 -0.0821 -0.1773
32954ION     NA48423   9.942   4.664  10.606  0.1902  0.2583 -0.1616
32955ION     NA48424  12.819   5.956  14.523  0.0426 -0.1583  0.0114
32956ION     NA48425   4.141   9.003   2.121 -0.2915 -0.2834  0.0431
32957ION     NA48426   4.759  13.834  12.337 -0.0541  0.2831 -0.2830
32958ION     NA48427   6.746   6.601   5.925  0.0263 -0.0240  0.0759
32959ION     NA48428  14.457  16.927  11.006  0.0005  0.1531  0.0949
32960ION     NA48429   3.057  10.919  10.227 -0.1078 -0.2057 -0.1191
32961ION     NA48430  11.180  10.942   2.682 -0.0478  0.1875 -0.2895
32962ION     NA48431  10.160   3.899  10.864  0.0389  0.2064  0.1186
32963ION     NA48432  17.758   2.671   1.760  0.0717  0.1967  0.3811
32964ION     NA48433   2.836   6.384   9.997  0.1762 -0.1936 -0.1555
32965ION     NA48434   9.543   3.834  15.598 -0.2533 -0.1608  0.1021
32966ION     NA48435   9.609   9.221  12.689  0.1600  0.5037  0.0611
32967ION     NA48436  16.546   3.183  10.302 -0.1886  0.0529 -0.1305
32968ION     NA48437  13.619   5.788  10.125 -0.0874 -0.4371 -0.2274
32969ION     NA48438   4.551  11.081  10.121 -0.1476 -0.1129  0.0616
32970ION     NA48439  13.869   8.172  15.116  0.0707  0.1033 -0.0655
32971ION     NA48440  17.640  15.662  11.023  0.0575 -0.1884 -0.1450
32972ION     NA48441   4.145   7.520   5.629 -0.1082  0.1426  0.0948
32973ION     NA48442  16.717   8.428   9.802  0.0631  0.0781  0.1383
32974ION     NA48443   7.060   6.153   3.641 -0.0833  0.2304  0.2414
32975ION     NA48444   7.065  12.533  12.622  0.0469 -0.0670  0.2180
32976ION     NA48445   4.300   5.514  11.321 -0.0918 -0.0827  0.0079
32977ION     NA48446  12.189  17.023   1.324  0.1821  0.0519  0.1793
32978ION     NA48447  10.755  10.976  10.360  0.4242 -0.1613  0.2002
32979ION     NA48448   5.097   4.688  14.330  0.0505 -0.0260 -0.0317
32980ION     NA48449   1.559  17.640   6.093 -0.2328 -0.1199 -0.0006
32981ION     NA48450  15.295   3.875   6.021  0.3343 -0.1827 -0.1877
32982ION     NA48451   9.286   4.082  10.626 -0.1780  0.1066 -0.2131
32983ION     NA48452   1.640   2.880   2.177 -0.0623  0.1723  0.0097
32984ION     NA48453   7.019   7.767  10.419 -0.1927  0.0370  0.2040
32985ION     NA48454   7.676  13.666  11.957 -0.0194  0.0161  0.0907
32986ION     NA48455  10.290   6.802  15.316 -0.3618 -0.4137  0.6099
32987ION     NA48456  12.979   5.132  10.154  0.1370  0.1403 -0.1688
32988ION     NA48457   7.251  13.421   1.974  0.2422  0.0704 -0.0278
32989ION     NA48458   1.215  12.372  10.546  0.0776  0.1277 -0.0363
32990ION     NA48459   9.066  11.582   5.425  0.3015 -0.1590 -0.1160
32991ION     NA48460  13.210   9.260  10.110  0.0299  0.1350  0.1421
32992ION     NA48461  10.567   0.470  11.105  0.0719  0.0287  0.0392
32993ION     NA48462   0.429  11.820  10.453 -0.1860 -0.0569 -0.0344
32994ION     NA48463   8.254   8.733   6.217  0.0264  0.1483 -0.0020
32995ION     NA48464   2.447  15.117   1.375 -0.0562 -0.1427 -0.0434
32996ION     NA48465   5.537  14.416  11.251 -0.3049 -0.2911 -0.0496
32997ION     NA48466   6.206  17.658  10.690  0.1413  0.1476  0.3116
32998ION     NA48467   6.066   5.941  10.316 -0.0563 -0.4403 -0.0109
32999ION     NA48468  14.714  10.376   5.791  0.0406  0.1201 -0.0240
33000ION     NA48469  15.545  17.900   3.835  0.0659 -0.1565  0.0735
33001ION     NA48470  16.092  13.025   6.125  0.3027 -0.1734 -0.0191
33002ION     NA48471   0.295   7.456  10.004 -0.1415 -0.0599  0.2288
33003ION     NA48472  14.559   6.330   5.570  0.2422  0.2421 -0.2558
33004ION     NA48473   6.344  10.486  12.507 -0.0602 -0.2720 -0.0192
33005ION     NA48474   6.449  10.947   6.173  0.0618  0.2700  0.2131
33006ION     NA48475   7.334  17.269   6.279  0.0499 -0.0211 -0.1107
33007ION     NA48476  13.784   9.261   2.503 -0.1693  0.0516 -0.1822
33008ION     NA48477  11.320   2.480  11.538  0.1255  0.2211  0.2507
33009ION     NA48478  15.208   3.676  10.193 -0.0139 -0.2423  0.3750
33010ION     NA48479   1.974   5.157   5.785  0.0426  0.1817 -0.2955
33011ION     NA48480  15.268   1.182  10.886  0.0506 -0.3827  0.0401
33012ION     NA48481  11.415   9.782  10.385  0.0990  0.2565  0.2919
33013ION     NA48482  17.512  13.919  10.845  0.0240 -0.2200  0.5612
33014ION     NA48483  16.886   1.538  10.938 -0.0338  0.3086  0.0218
33015ION     NA48484   4.917   1.417   1.602 -0.3363 -0.0468 -0.2058
33016ION     NA48485   9.732   2.148  10.759  0.2192 -0.0720 -0.2518
33017ION     NA48486   1.750  13.888  13.913  0.0263 -0.1196  0.2405
33018ION     NA48487  11.721  15.282   0.795  0.0423 -0.0593 -0.1523
33019ION     NA48488  14.290  13.024   6.481  0.2155  0.1730  0.0128
33020ION     NA48489  13.310  13.331  10.695 -0.0791 -0.0562  0.1650
33021ION     NA48490  16.241   9.989  15.835  0.1229 -0.0526 -0.1244
33022ION     NA48491  16.265   1.036  10.747  0.1921  0.4850  0.0118
33023ION     NA48492  11.296  16.104  10.999 -0.0532  0.0128  0.1570
33024ION     NA48493  17.044  16.667   5.145 -0.0406  0.2219  0.1462
33025ION     NA48494   7.908  10.470  15.651  0.2040  0.1955  0.1669
33026ION     NA48495  17.920  15.906  11.414  0.0599  0.1179 -0.2107
33027ION     NA48496   0.631   9.468  15.408  0.0725  0.0049 -0.1553
33028ION     NA48497   6.931  17.535  14.059 -0.1393  0.2518  0.0183
33029ION     NA48498   6.849  16.982  10.751  0.2281  0.1617  0.2100
33030ION     NA48499  15.072   0.827  16.267 -0.0783  0.2244 -0.0983
33031ION     NA48500   7.105  11.320  10.335 -0.0934 -0.0348 -0.0089
33032ION     NA48501  13.958  16.142  11.014 -0.0631 -0.1958 -0.0459
33033ION     NA48502   0.592   1.988  10.367 -0.1042  0.5437 -0.0179
33034ION     NA48503   6.542  10.777  13.686  0.1876 -0.0695 -0.3243
33035ION     NA48504  16.940   2.612  10.263 -0.1996 -0.0716 -0.1251
33036ION     NA48505  11.745   7.851   1.177  0.2168  0.3220 -0.2189
33037ION     NA48506   5.805   0.579  10.958 -0.4657 -0.1700  0.1138
33038ION     NA48507   5.869   3.218   5.839  0.0336 -0.1386  0.0349
33039ION     NA48508  10.406  14.917  10.835  0.0840  0.0089  0.1205
33040ION     NA48509   9.992  14.217  10.628  0.0221  0.0622  0.1443
33041ION     NA48510   8.135   9.218   4.246  0.0033 -0.3241  0.0761
33042ION     NA48511   2.282   9.487  10.256 -0.3594  0.1868  0.0585
33043ION     NA48512   4.023  16.940   6.413  0.0939 -0.2437  0.3677
33044ION     NA48513   8.547  17.659   0.531  0.1808 -0.0341 -0.0911
33045ION     NA48514  16.006   2.064  10.478  0.0841  0.0611 -0.4066
33046ION     NA48515  13.063   3.581  10.485  0.3446 -0.0755  0.1132
33047ION     NA48516   1.425   4.314  10.084 -0.0754 -0.3815 -0.3162
33048ION     NA48517  11.066  12.596  10.547 -0.3451 -0.3548 -0.2207
33049ION     NA48518   8.735   3.272  14.898 -0.0520  0.0197 -0.2751
33050ION     NA48519   5.861   1.958  10.987 -0.0464  0.1305 -0.1491
33051ION     NA48520   5.334  12.677  10.512  0.0684 -0.2710 -0.0127
33052ION     NA48521  14.270   7.364   9.988  0.0679 -0.2249  0.1821
33053ION     NA48522   7.252   8.594   0.892  0.0624 -0.3045  0.1412
33054ION     NA48523   2.476   7.266   9.939  0.2340 -0.1703 -0.2983
33055ION     NA48524  14.617   0.204  12.095  0.2137  0.1170 -0.1890
33056ION     NA48525   3.761  17.384  10.885  0.3614 -0.0230  0.0380
33057ION     NA48526  10.266  11.359   0.454  0.1441 -0.1687  0.1310
33058ION     NA48527   5.120   8.000   2.330 -0.1135  0.3119 -0.0562
33059ION     NA48528   6.656   3.109  10.763 -0.0266  0.3314 -0.0010
33060ION     NA48529  11.114  14.988   3.212 -0.3995  0.1208  0.1857
33061ION     NA48530   1.212  17.995  10.943  0.0672  0.0042 -0.1472
33062ION     NA48531   0.218  10.154  10.088  0.1940  0.1210 -0.2774
33063ION     NA48532   4.912   5.818   5.554  0.0734 -0.3238  0.0383
33064ION     NA48533   4.571  13.358   5.827  0.0872  0.0979 -0.3292
33065ION     NA48534   5.917   5.286  11.406 -0.0641  0.1260  0.0075
33066ION     NA48535  13.769   3.752  10.326 -0.0145 -0.1114 -0.1915
33067ION     NA48536  16.278  15.045  11.264 -0.0213  0.1263  0.1052
33068ION     NA48537  13.264  13.160  11.286  0.2322 -0.2457 -0.2620
33069ION     NA48538   3.063  15.048  10.750  0.5654 -0.1161  0.0120
33070ION     NA48539  15.335  15.207  10.996 -0.1900  0.1227 -0.1341
33071ION     NA48540  17.719   3.236  13.256 -0.1757  0.1098  0.4518
33072ION     NA48541  12.723  14.211  13.883 -0.0856  0.4045 -0.0233
33073ION     NA48542   2.858   5.534  10.166 -0.2057  0.1866 -0.0952
33074ION     NA48543  13.543  16.515  10.837 -0.3906  0.0007 -0.2097
33075ION     NA48544   5.078   3.603   5.850 -0.0640  0.0995  0.2747
33076ION     NA48545  11.897  14.333  10.776  0.0621 -0.2545 -0.1681
33077ION     NA48546   2.571   5.805   1.302  0.2669 -0.2031  0.1880
33078ION     NA48547   8.865  15.362   0.897  0.2541  0.1241 -0.1830
33079ION     NA48548  12.653  16.774  10.718  0.0269  0.0648 -0.0686
33080ION     NA48549   3.719   7.807  10.192 -0.3647 -0.2670 -0.4044
33081ION     NA48550   0.518   1.677   6.094  0.0589  0.0361 -0.0216
33082ION     NA48551   5.589   5.168  10.334  0.0418 -0.0514  0.0991
33083ION     NA48552  12.990  10.298  10.265  0.1692 -0.2087 -0.4057
33084ION     NA48553   7.500  10.349  10.213 -0.0502  0.1994  0.3830
33085ION     NA48554   7.821  16.992  10.814  0.0884  0.1849  0.2720
33086ION     NA48555   8.938   5.864   5.845  0.1613  0.0188 -0.2451
33087ION     NA48556   6.159   6.186  15.974 -0.1805  0.0953 -0.1683
33088ION     NA48557  16.500  13.814  10.896 -0.0878 -0.0507  0.2985
33089ION     NA48558   1.911   8.737   5.726  0.2135  0.3517  0.0205
33090ION     NA48559  10.354  11.786  10.681 -0.2538  0.0287 -0.0929
33091ION     NA48560  12.392  12.202  10.568  0.2277  0.0986 -0.2498
33092ION     NA48561  17.949   7.715  12.553 -0.0656  0.0168  0.0811
33093ION     NA48562   4.355   0.036  10.641  0.2211  0.0364  0.0249
33094ION     NA48563  12.674  17.818  10.758  0.0093  0.2233 -0.0320
33095ION     NA48564  16.201  11.085  10.179 -0.0546 -0.0013  0.1636
33096ION     NA48565   0.514  10.836  10.271  0.2504 -0.0478 -0.0254
33097ION     NA48566   7.978   9.595   6.103 -0.1533 -0.3634 -0.2237
33098ION     NA48567  15.841   8.678   9.826  0.2148  0.0386  0.0999
33099ION     NA48568  11.638  12.603  10.657 -0.1787 -0.0152  0.0018
33100ION     NA48569   3.373   2.302  10.546  0.0167  0.2868 -0.2904
33101ION     NA48570   0.003  11.293  10.410  0.4442  0.1440 -0.2936
33102ION     NA48571   8.199  12.398   1.753  0.2561 -0.0822 -0.0566
33103ION     NA48572  13.088  16.320  10.808  0.2569  0.2059 -0.2033
33104ION     NA48573  17.530   8.221   5.534  0.0552  0.0414  0.2030
33105ION     NA48574   5.579  10.890  10.339  0.0648  0.0354 -0.2454
33106ION     NA48575   6.380  10.806  14.971  0.0044  0.2679  0.4027
33107ION     NA48576   8.152   3.201  15.834 -0.0772 -0.0741 -0.0086
33108ION     NA48577   8.190  14.446   5.456 -0.2982 -0.2414  0.1568
33109ION     NA48578  12.030  15.750   5.943 -0.1134  0.2928 -0.1518
33110ION     NA48579   6.150   8.328  10.445 -0.1431  0.0908  0.0095
33111ION     NA48580  12.050   7.172  15.895 -0.2450 -0.0184 -0.0581
33112ION     NA48581   2.239   4.216   5.989  0.1403 -0.1265 -0.1465
33113ION     NA48582   9.182   5.462  10.731 -0.0336 -0.2363  0.0982
33114ION     NA48583   8.666   6.695  10.450  0.2584  0.0116  0.2039
33115ION     NA48584   0.350   4.268  10.143  0.0675  0.3590  0.1169
33116ION     NA48585  16.128   0.562   6.012  0.2962 -0.3344  0.0972
33117ION     NA48586  15.179   6.996   9.780  0.0740 -0.3659  0.1767
33118ION     NA48587   1.733   6.877   2.328 -0.0383 -0.0198 -0.0710
33119ION     NA48588   8.393  11.655  10.493 -0.0116  0.0094 -0.2656
33120ION     NA48589  11.818   3.840  10.157 -0.0899  0.2085  0.0156
33121ION     NA48590   1.417  10.400   5.442  0.1256  0.0128  0.0641
33122ION     NA48591   3.375  13.934  10.806  0.0962  0.1423 -0.0116
33123ION     NA48592  13.262  12.387  10.694 -0.0906 -0.2078 -0.1024
33124ION     NA48593   2.922   3.174  10.244 -0.0497  0.1453  0.2716
33125ION     NA48594  13.204  10.180  13.159 -0.0724  0.1811 -0.0495
33126ION     NA48595   8.177  15.324  10.568  0.4701 -0.1735  0.1030
33127ION     NA48596  11.744  10.998   6.041 -0.0095  0.3641  0.1459
33128ION     NA48597   2.992  17.521  10.785 -0.0789 -0.3395 -0.2520
33129ION     NA48598   0.169   0.363   3.960 -0.0207  0.0000 -0.0560
33130ION     NA48599   4.441   3.216   1.494 -0.0998 -0.1455 -0.0092
33131ION     NA48600   9.408   3.879  14.758 -0.2196  0.3221 -0.0710
33132ION     NA48601   7.419   8.548  10.103  0.0968 -0.0579 -0.1638
33133ION     NA48602  16.396   6.882  10.212 -0.0133  0.1384 -0.0110
33134ION     NA48603  12.638  12.881  10.753  0.2002 -0.2571  0.2146
33135ION     NA48604   9.294  10.470   6.285  0.1482 -0.0030 -0.2851
33136ION     NA48605  14.581   1.820  12.940  0.1125  0.2400  0.1725
33137ION     NA48606   0.958  15.995   5.683  0.0015  0.0607  0.1427
33138ION     NA48607   2.383  16.334   6.456  0.0560  0.0360  0.1548
33139ION     NA48608   2.825   8.109   9.935 -0.1518  0.2632  0.1563
33140ION     NA48609  12.565   2.472  11.048 -0.2902 -0.0455  0.0181
33141ION     NA48610   7.405   1.098  11.111 -0.0530 -0.0939  0.2560
33142ION     NA48611   3.610   6.890  10.229  0.1169 -0.1864  0.4915
33143ION     NA48612   8.965   5.045   3.852  0.0361 -0.1303  0.1192
33144ION     NA48613   1.672   6.600   5.711 -0.2138  0.2519  0.1823
33145ION     NA48614  15.571  12.741  10.667 -0.0338  0.1549 -0.0674
33146ION     NA48615   8.859   5.835  11.020  0.1069 -0.0956  0.0737
33147ION     NA48616  10.660  14.896   1.503  0.0182 -0.2050 -0.0234
33148ION     NA48617   2.868  17.773   3.057 -0.2391 -0.1080  0.2164
33149ION     NA48618  15.222  15.859   1.818 -0.1667  0.2421  0.0589
33150ION     NA48619  13.248  15.583  10.976 -0.1105 -0.0160  0.1148
33151ION     NA48620   7.845   0.888   6.281  0.0131 -0.0575 -0.0443
33152ION     NA48621  16.121  12.040  10.453 -0.3189 -0.3085  0.2184
33153ION     NA48622  15.797   4.452  10.172 -0.0568 -0.1844 -0.1470
33154ION     NA48623   2.426  11.284  10.963 -0.0902 -0.0922  0.0093
33155ION     NA48624  15.123   7.695   9.951  0.1505 -0.0354  0.0792
33156ION     NA48625  16.712   5.994   9.782  0.1741 -0.0449  0.2226
33157ION     NA48626  12.880   1.133   6.382 -0.1433 -0.0812 -0.0657
33158ION     NA48627  10.157   6.100  10.856 -0.1495 -0.1303  0.2023
33159ION     NA48628   0.430   1.500  15.233 -0.0974 -0.0878  0.0123
33160ION     NA48629  16.743   2.693   4.374 -0.0845 -0.2756 -0.1137
33161ION     NA48630   6.230  10.879  10.447  0.0596 -0.1967 -0.0634
33162ION     NA48631  10.372   5.410  10.441 -0.0672  0.4840  0.0090
33163ION     NA48632  11.306  16.731  10.853 -0.0891  0.2048  0.0224
33164ION     NA48633  13.841  13.992  10.810 -0.2455  0.0917  0.1159
33165ION     NA48634   1.557   9.402   9.858  0.0828  0.1880 -0.1144
33166ION     NA48635   9.389  15.034  10.852  0.0195  0.0698  0.3056
33167ION     NA48636  12.198  10.418  10.505  0.5797  0.1902  0.0953
33168ION     NA48637   7.463   5.814  10.678  0.1163  0.2664 -0.1270
33169ION     NA48638  14.285   1.009   2.264  0.3898 -0.3667  0.2023
33170ION     NA48639   6.593   0.852  10.890  0.0624  0.1900 -0.0550
33171ION     NA48640  10.260  16.917  11.027  0.0552 -0.0438 -0.1977
33172ION     NA48641   9.858  10.172  10.410 -0.0571  0.2678  0.0608
33173ION     NA48642   7.773   7.141  14.552  0.2749  0.1018  0.3381
33174ION     NA48643   0.469   6.207  15.527 -0.3050  0.0371  0.0289
33175ION     NA48644  14.516  14.837  10.935  0.1710 -0.1736 -0.1205
33176ION     NA48645   1.444   7.080   1.014  0.1517  0.0772  0.0832
33177ION     NA48646  13.911   3.281  12.821 -0.0975  0.0196 -0.1341
33178ION     NA48647   5.819  15.503  10.794  0.4169 -0.4442 -0.1530
33179ION     NA48648   6.491   9.186  10.442 -0.3585  0.1930  0.1541
33180ION     NA48649  12.842  17.011  13.435 -0.1947  0.1444 -0.0100
33181ION     NA48650  14.917   6.628  10.889  0.1331  0.3011  0.3972
33182ION     NA48651   4.135  10.243  10.247 -0.0677 -0.1339  0.4038
33183ION     NA48652   5.701   0.391   1.315  0.1593  0.0690  0.1565
33184ION     NA48653   4.347   7.232  10.052  0.0865  0.0664  0.0570
33185ION     NA48654   6.060  15.506   1.327  0.1278 -0.0432 -0.2583
33186ION     NA48655   3.860   8.788  10.343  0.0250 -0.0784  0.2442
33187ION     NA48656   6.154  14.519   1.025 -0.0072 -0.3289 -0.1556
33188ION     NA48657  13.437   0.210  10.901  0.0232  0.0472 -0.0700
33189ION     NA48658   4.713   2.616  10.604  0.1109 -0.1108  0.0725
33190ION     NA48659   4.795  17.265  10.697  0.2097 -0.0579  0.1870
33191ION     NA48660   2.348  17.289   6.331 -0.0285 -0.4245  0.3651
33192ION     NA48661   1.679  11.097  11.763  0.0171  0.4990 -0.1037
33193ION     NA48662   6.280  12.934  10.606 -0.0689  0.2208  0.0441
33194ION     NA48663  15.731   6.276   9.653  0.3023 -0.1792 -0.4071
33195ION     NA48664  15.300   9.605  10.103 -0.1419  0.1721 -0.3180
33196ION     NA48665   0.742   7.626   5.341 -0.0009  0.0494 -0.2032
33197ION     NA48666  14.197  15.283  10.971 -0.1889  0.3679 -0.0853
33198ION     NA48667  15.341  12.145  11.435 -0.0242  0.0273  0.0943
33199ION     NA48668   9.827   9.297   5.503 -0.0786 -0.1679 -0.1824
33200ION     NA48669  14.331   0.819  10.812 -0.3902 -0.1539  0.0460
33201ION     NA48670  13.309  13.626  15.841 -0.2741 -0.0463 -0.2250
33202ION     NA48671   0.738  15.396   1.005 -0.0586 -0.0334  0.0447
33203ION     NA48672   6.067  13.381  12.024  0.0583 -0.0664 -0.2534
33204ION     NA48673  12.144   9.695  10.327  0.1973 -0.1873 -0.6132
33205ION     NA48674  17.756   6.065   9.977 -0.1086  0.0613 -0.1304
33206ION     NA48675  16.452  11.945   1.104 -0.1453 -0.3756 -0.0930
33207ION     NA48676  15.351   0.120   1.276 -0.1495  0.3251  0.0649
33208ION     NA48677  14.652   5.439   5.605  0.1439 -0.1367  0.1408
33209ION     NA48678  16.094   0.136  11.009  0.1881 -0.0344  0.0609
33210ION     NA48679   8.170  12.712   6.027  0.3406 -0.0409  0.1391
33211ION     NA48680  14.937   6.522   4.713  0.0117  0.2253  0.0189
33212ION     NA48681   1.924  13.600  10.876 -0.0044 -0.0585 -0.2959
33213ION     NA48682   2.631  15.425   6.441 -0.1175 -0.0519  0.0286
33214ION     NA48683  12.701  13.996  10.571 -0.0520  0.1257  0.0350
33215ION     NA48684   2.054  10.974   2.884 -0.1214 -0.0413  0.0861
33216ION     NA48685   0.608  11.953  14.943  0.1538  0.0213  0.1214
33217ION     NA48686   6.498  13.859  10.688  0.1810 -0.0028 -0.3540
33218ION     NA48687  13.266   5.655   1.151  0.1853  0.0059  0.3837
33219ION     NA48688   7.004   7.437   6.089 -0.0457  0.0720  0.1750
33220ION     NA48689  14.068  13.540  10.787 -0.1423  0.1400  0.1551
33221ION     NA48690   0.196  15.721   6.678  0.2827 -0.1605  0.0373
33222ION     NA48691  15.133   0.351  10.907  0.1003 -0.0181  0.1674
33223ION     NA48692   2.031  12.858  10.570 -0.0867 -0.0154  0.2087
33224ION     NA48693   5.347  13.232  10.590 -0.0563 -0.2206 -0.1377
33225ION     NA48694   4.641  11.976  10.300  0.0638  0.1689  0.0721
33226ION     NA48695   7.117   2.585   0.841 -0.0739 -0.1787  0.2333
33227ION     NA48696   7.101  15.638   5.365  0.0465 -0.0214  0.0739
33228ION     NA48697  14.422   2.627  10.717  0.2545 -0.2471 -0.0575
33229ION     NA48698   1.152   3.769   3.081 -0.4000  0.1111  0.0871
33230ION     NA48699  14.645  14.652   6.473  0.1730  0.0686  0.0120
33231ION     NA48700   4.384  13.626  10.624 -0.0913  0.0148  0.1260
33232ION     NA48701   4.471  17.693   6.438 -0.0511  0.2266  0.0688
33233ION     NA48702   2.087  12.196   5.929 -0.2719 -0.1810  0.0338
33234ION     NA48703  11.310   7.608  10.316  0.0269  0.1809  0.0174
33235ION     NA48704  10.046  12.789  10.696  0.1418 -0.3957 -0.1793
33236ION     NA48705  16.391  16.840  11.049 -0.0491 -0.1389 -0.1318
33237ION     NA48706  15.200   5.080  10.158 -0.0195  0.0270 -0.1286
33238ION     NA48707   2.668  14.936  12.383  0.2066  0.1339  0.1018
33239ION     NA48708  13.912   0.731  12.386 -0.0965 -0.1346 -0.1551
33240ION     NA48709   9.682   9.317  10.223 -0.0662 -0.1541  0.2906
33241ION     NA48710   7.996   1.853  10.989 -0.2630 -0.2935  0.0072
33242ION     NA48711   7.339  12.685  10.446 -0.2407  0.0483 -0.0999
33243ION     NA48712  14.839  10.852  10.207  0.2592 -0.2758 -0.0042
33244ION     NA48713  11.159  11.799  10.413 -0.0780 -0.0272  0.2905
33245ION     NA48714  11.900   8.784  10.522  0.1206  0.1875 -0.0485
33246ION     NA48715   0.656  17.399  11.260 -0.0979  0.1847  0.1603
33247ION     NA48716   8.513  10.285   9.913  0.4004  0.0376 -0.0860
33248ION     NA48717   1.193   5.056  10.225 -0.0905 -0.0293 -0.1480
33249ION     NA48718   8.751  11.291   6.046  0.0511 -0.0580  0.0188
33250ION     NA48719  16.943  12.062   0.171  0.0346  0.6201 -0.3647
33251ION     NA48720  11.715   2.007  10.984  0.1175  0.1370  0.0379
33252ION     NA48721  12.981  15.178  15.807  0.2286  0.0317 -0.0960
33253ION     NA48722  10.949   9.078  10.456 -0.0025  0.0094  0.2834
33254ION     NA48723   8.724  12.335  10.403  0.1549 -0.0136  0.1709
33255ION     NA48724  16.393   9.266   9.775 -0.0383 -0.0075 -0.0289
33256ION     NA48725  15.903  12.928   2.599  0.2414  0.3275 -0.1811
33257ION     NA48726   3.378   3.281  10.429  0.1454 -0.0074 -0.2272
33258ION     NA48727  11.090   4.378  10.572  0.1571 -0.1076 -0.1246
33259ION     NA48728  11.389  14.563  10.766  0.1046  0.2265 -0.2613
33260ION     NA48729  14.630   5.729   9.952  0.0805 -0.2342  0.0339
33261ION     NA48730   6.663   5.415   1.445  0.1577  0.1860 -0.4217
33262ION     NA48731  16.427   4.074  10.301  0.0060  0.0505  0.4152
33263ION     NA48732   4.688   9.087  10.437 -0.2682 -0.2657  0.0108
33264ION     NA48733   9.907   1.317  10.819 -0.1884  0.1544  0.0785
33265ION     NA48734  16.421   2.204  10.735 -0.1104 -0.0353 -0.3038
33266ION     NA48735  14.804  15.993  10.957 -0.1545  0.1576 -0.2761
33267ION     NA48736   3.563  16.246  10.706 -0.0630 -0.0362 -0.2125
33268ION     NA48737  13.402  16.341   5.990  0.0790  0.0438 -0.1464
33269ION     NA48738   0.420   8.636   2.523  0.0682 -0.3368 -0.3375
33270ION     NA48739   4.802   3.142   0.176 -0.3070  0.0525  0.1364
33271ION     NA48740  11.375   4.481   4.247  0.1868  0.0370 -0.0133
33272ION     NA48741   8.742   4.517   6.080  0.1855 -0.0082  0.2289
33273ION     NA48742  11.654  14.717  14.789  0.1167 -0.1653  0.1920
33274ION     NA48743   7.942  16.354  14.418 -0.2671  0.0881  0.0697
33275ION     NA48744  13.087   3.726   0.187  0.2719 -0.0756  0.0877
33276ION     NA48745  10.087  13.692   6.038 -0.0744  0.1599  0.0618
33277ION     NA48746   1.413   0.768  10.552  0.0653  0.0253  0.0780
33278ION     NA48747  15.437  16.716  11.236  0.1445  0.0535  0.1559
33279ION     NA48748   0.918  12.446  13.245 -0.1861  0.3720  0.0361
33280ION     NA48749  17.918   0.996  10.832  0.0256 -0.0162  0.0130
33281ION     NA48750   6.069   3.682  10.779 -0.1899 -0.0337 -0.3362
33282ION     NA48751   1.347   5.995  10.059  0.0200  0.2347  0.1928
33283ION     NA48752  12.105   7.410   5.979 -0.0097  0.0589  0.1365
33284ION     NA48753   0.035   3.581  10.058  0.1762  0.1616 -0.2534
33285ION     NA48754   5.908  13.690   1.785 -0.1642 -0.0262 -0.0748
33286ION     NA48755   9.936  11.068  10.477 -0.3078  0.1263  0.1302
33287ION     NA48756  14.025  17.756  11.492 -0.1215  0.1082 -0.0016
33288ION     NA48757   8.357  13.728  10.580  0.2232  0.1907 -0.1043
33289ION     NA48758   6.359   5.654  12.940 -0.0455 -0.0440  0.0003
33290ION     NA48759   4.266   4.818   2.186 -0.0465 -0.0252 -0.0289
33291ION     NA48760   5.925   0.518   4.119 -0.0639 -0.2438 -0.0296
33292ION     NA48761  17.523  10.123  15.659 -0.1128 -0.3669 -0.0173
33293ION     NA48762  15.543   2.802  10.596 -0.1063 -0.3269  0.0020
33294ION     NA48763   9.884   1.149   6.664 -0.2224 -0.0060  0.2339
33295ION     NA48764  10.981  14.223  10.839  0.3461  0.2716 -0.1077
33296ION     NA48765  12.100  15.448  10.827  0.3358 -0.0714 -0.1305
33297ION     NA48766  16.082   7.879   9.584  0.1140 -0.0149 -0.3354
33298ION     NA48767   5.188  13.729  10.908 -0.3191  0.2842  0.0903
33299ION     NA48768   6.599  17.847   0.741  0.1115 -0.0969  0.2838
33300ION     NA48769   6.010  11.743  10.640 -0.2035  0.1682 -0.0162
33301ION     NA48770   6.785  10.461   6.126 -0.0470  0.0434 -0.1236
33302ION     NA48771   9.421  16.584  10.947 -0.0468  0.3190  0.0263
33303ION     NA48772   2.111   5.652  10.145 -0.0855  0.0074 -0.0922
33304ION     NA48773  12.583   7.672   3.463  0.0559  0.2347 -0.1507
33305ION     NA48774  15.907  11.387   1.587  0.2869 -0.3330 -0.2012
33306ION     NA48775  11.145   8.541   1.841  0.2665 -0.0281 -0.0726
33307ION     NA48776  10.920   6.758   2.448 -0.0562  0.1012 -0.1569
33308ION     NA48777   9.910   6.977   2.683 -0.1168  0.1824  0.0101
33309ION     NA48778   9.136  14.209  10.414  0.2752 -0.3280  0.2865
33310ION     NA48779   9.776   7.406  10.617  0.1080  0.1413  0.0023
33311ION     NA48780  12.462   7.953  10.195  0.0706  0.1784 -0.1759
33312ION     NA48781   9.001  11.281  10.294 -0.0329 -0.4144 -0.0872
33313ION     NA48782   8.526   0.415  12.811  0.2108 -0.0805 -0.2321
33314ION     NA48783   1.376  16.761  11.014 -0.1199 -0.1845  0.1915
33315ION     NA48784   4.856  12.433   5.958  0.2466 -0.1297 -0.4306
33316ION     NA48785  17.574   5.180   0.845  0.0758 -0.1473 -0.3121
33317ION     NA48786   5.295   7.489  10.387  0.2005  0.1646 -0.2382
33318ION     NA48787   8.434   7.457  10.606  0.0353 -0.1743 -0.2233
33319ION     NA48788   5.703  17.054  10.778  0.1074  0.0681  0.3116
33320ION     NA48789  11.763   0.172   0.699 -0.0075 -0.1963  0.3000
33321ION     NA48790   7.474   3.545  10.836 -0.1351 -0.2111  0.0739
33322ION     NA48791  10.420   1.787   6.225  0.0767 -0.5096  0.0148
33323ION     NA48792   8.135   0.083  14.146  0.0316  0.0470  0.0566
33324ION     NA48793  11.463   3.627  12.618 -0.0089  0.0123 -0.3363
33325ION     NA48794   9.084   0.691  10.967 -0.0912  0.0380  0.1835
33326ION     NA48795   1.151   1.451  10.960 -0.1734 -0.1524  0.0651
33327ION     NA48796   3.415  16.256   6.247  0.0633 -0.2018  0.1226
33328ION     NA48797   1.024  15.085  11.225 -0.0402 -0.3339  0.0594
33329ION     NA48798   0.522   6.478   9.969  0.1989 -0.1507 -0.1156
33330ION     NA48799   0.710   5.143  10.044 -0.1066  0.2246  0.2798
33331ION     NA48800   0.050   5.871   0.740 -0.1653  0.1340 -0.1689
33332ION     NA48801  17.432   8.984   9.717 -0.0505  0.2029 -0.0659
33333ION     NA48802   2.098   6.137  12.543 -0.2299 -0.0208  0.0634
33334ION     NA48803   6.869  14.409  13.074  0.0036 -0.1914  0.2549
33335ION     NA48804   3.647  13.006   2.065 -0.0337  0.1237  0.1198
33336ION     NA48805  13.749   4.696  10.292 -0.0232 -0.2068  0.1067
33337ION     NA48806   5.523   4.382  10.470 -0.1524  0.0394  0.0851
33338ION     NA48807   8.086   0.229  11.199 -0.1110  0.0373 -0.4154
33339ION     NA48808   4.126  10.885   5.650 -0.5546 -0.0193 -0.1201
33340ION     NA48809  11.178   8.517  12.244 -0.2299  0.0681 -0.2356
33341ION     NA48810   2.870  12.396  10.650 -0.0992 -0.0490  0.1895
33342ION     NA48811   0.703   9.154  13.522  0.1557 -0.2381 -0.0103
33343ION     NA48812   3.039   9.816  10.394  0.2298  0.0669  0.1508
33344ION     NA48813  10.475  17.666  11.135 -0.1665  0.2681 -0.3003
33345ION     NA48814   0.885   6.460   5.674  0.2503  0.0487 -0.1601
33346ION     NA48815   3.701   0.999  10.860  0.2031 -0.0324  0.2101
33347ION     NA48816   2.747   2.025   5.689  0.1409  0.0024  0.4596
33348ION     NA48817   8.347   3.606  10.829  0.0587  0.0242 -0.2340
33349ION     NA48818   1.353   9.952   2.847  0.0445 -0.0937  0.3414
33350ION     NA48819  14.284  10.617   3.754  0.1063  0.2014 -0.2974
33351ION     NA48820  17.250   5.360   9.936  0.1524  0.0534 -0.0411
33352ION     NA48821  17.238   9.109   5.706  0.2431  0.2109  0.0578
33353ION     NA48822  17.153   5.159   2.289 -0.2549 -0.1870  0.1247
33354ION     NA48823  16.253   2.748   5.999  0.1092  0.1788  0.3238
33355ION     NA48824   3.865   8.575  15.518 -0.1376  0.0893  0.0555
33356ION     NA48825   7.967   2.913   1.340  0.0969  0.1670 -0.0344
33357ION     NA48826   2.081   2.853   3.252 -0.0903  0.0034  0.2522
33358ION     NA48827   4.136  11.000   0.934  0.3072 -0.1252  0.1594
33359ION     NA48828   7.079  14.682   6.455  0.4026  0.1604  0.0441
33360ION     NA48829  17.904   8.524   4.300  0.0091  0.1050 -0.1050
33361ION     NA48830   0.555  13.759  10.814 -0.0047 -0.0814  0.2022
33362ION     NA48831  16.096   6.011   4.569 -0.1210  0.2132  0.1680
33363ION     NA48832   4.367   1.584   4.703  0.1215  0.0159  0.2982
33364ION     NA48833   8.566  13.167   2.153  0.2094  0.0586 -0.0176
33365ION     NA48834  10.323   8.305  10.616 -0.1651  0.0974  0.0300
33366ION     NA48835  11.233  17.910  11.486  0.0181  0.0064  0.3366
33367ION     NA48836  11.584  17.032   2.687 -0.0548  0.3347  0.1716
33368ION     NA48837  13.957  17.270   6.577  0.0298 -0.1168  0.2479
33369ION     NA48838  14.153  14.521   5.653  0.2109 -0.2501 -0.0333
33370ION     NA48839  14.343   0.283   6.505 -0.1746 -0.1570  0.0321
33371ION     NA48840   0.573   9.321   9.765  0.2600  0.2819  0.0959
33372ION     NA48841  15.239  10.609  10.046  0.0492  0.1923 -0.1165
33373ION     NA48842  12.141   5.512  10.150 -0.0473  0.1241  0.0328
33374ION     NA48843   0.830   5.968  10.038  0.1551 -0.1816 -0.1193
33375ION     NA48844   8.750   0.047   6.629 -0.2661  0.0794 -0.1119
33376ION     NA48845   6.197   6.947  15.130  0.1586 -0.1384 -0.2377
33377ION     NA48846  17.032  15.280  13.710  0.2583  0.0354 -0.0548
33378ION     NA48847  15.746   5.342  12.207  0.2994  0.0333  0.4389
33379ION     NA48848  16.924   4.583   4.924 -0.2617  0.0848 -0.1555
33380ION     NA48849   5.830  14.518  10.764 -0.0734 -0.0749 -0.0931
33381ION     NA48850  13.383  17.371  10.947  0.0198  0.1424 -0.3046
33382ION     NA48851   2.960   4.683  16.234  0.0840 -0.0559 -0.1693
33383ION     NA48852   8.607   4.417  10.701  0.0519 -0.0719  0.0940
33384ION     NA48853   4.123   9.843  10.526 -0.0355 -0.1209 -0.0217
33385ION     NA48854  10.636  14.315   0.610  0.4025  0.0751 -0.1608
33386ION     NA48855   7.428  13.641  10.688 -0.1231  0.0026 -0.0152
33387ION     NA48856   9.016   5.015   0.256  0.3312  0.2222  0.1327
33388ION     NA48857  12.743   7.026  10.405 -0.2018  0.0322 -0.2380
33389ION     NA48858   8.340   8.424  10.225 -0.2580 -0.0611  0.2482
33390ION     NA48859  16.871   0.445  10.696  0.0130 -0.0719 -0.0246
33391ION     NA48860   2.882  11.603  10.451 -0.2876 -0.0065 -0.0446
33392ION     NA48861  12.176   0.740  10.834  0.1202 -0.1905 -0.0101
33393ION     NA48862   8.067   6.527  10.673 -0.1251  0.0963 -0.2871
33394ION     NA48863   9.197   2.980  10.649  0.0012  0.0846  0.1354
33395ION     NA48864  13.860   4.247  13.770 -0.3162  0.0701 -0.0029
33396ION     NA48865  14.841  13.804  10.950 -0.2105 -0.3351  0.2519
33397ION     NA48866   2.314   0.017   5.786 -0.0571  0.2036  0.1822
33398ION     NA48867   9.857   2.472   2.506  0.0650 -0.4728  0.2330
33399ION     NA48868  10.402  15.289   2.994 -0.0516 -0.1016  0.0641
33400ION     NA48869  16.668   4.747   9.869 -0.0831  0.2045  0.1799
33401ION     NA48870  15.798   0.189  13.786 -0.5419  0.1735  0.0278
33402ION     NA48871  13.204   9.051  11.856  0.0819 -0.1331 -0.4078
33403ION     NA48872   7.745   4.458  10.955 -0.0940  0.2991 -0.1411
33404ION     NA48873  14.691   3.332  10.295 -0.1633 -0.2436  0.1524
33405ION     NA48874   9.852  15.464  13.054  0.1403  0.1421 -0.0133
33406ION     NA48875   7.978   7.841   4.581  0.0536 -0.1151 -0.0285
33407ION     NA48876   3.874   2.936  12.685 -0.0423  0.2055 -0.0266
33408ION     NA48877  14.682   1.614  10.789 -0.0070  0.2979  0.2838
33409ION     NA48878   9.583  10.276   5.845  0.0116 -0.0728 -0.1330
33410ION     NA48879  11.022   3.601  10.549 -0.1666  0.1002 -0.2142
33411ION     NA48880   2.342   0.819  10.340  0.0936  0.2460 -0.2331
33412ION     NA48881   3.385  17.056   5.902 -0.2107  0.1452  0.0855
33413ION     NA48882   4.347   3.382  10.522 -0.3179 -0.0452  0.1628
33414ION     NA48883  13.494  11.585  10.604  0.2458 -0.3336  0.0275
33415ION     NA48884  15.573  10.357   5.683 -0.0496 -0.0228  0.2512
33416ION     NA48885  15.684  14.309  10.787  0.0544 -0.2113  0.1649
33417ION     NA48886   4.745  14.367  10.832  0.0845  0.2938 -0.3926
33418ION     NA48887   4.671  11.100   3.698 -0.0471 -0.1229  0.1052
33419ION     NA48888  10.431  15.906  10.990  0.2522  0.1272  0.1877
33420ION     NA48889  12.093   3.926   4.887 -0.1505 -0.2232 -0.0726
33421ION     NA48890   3.708  11.101  10.338 -0.2388 -0.0302 -0.1819
33422ION     NA48891   1.267  14.067  11.055  0.0818 -0.0853  0.4139
33423ION     NA48892   4.905   1.623  10.590  0.2706  0.2724 -0.0648
33424ION     NA48893  15.048   9.582   5.706 -0.0347  0.0922  0.1120
33425ION     NA48894   8.829   5.068  11.494 -0.1448 -0.1889 -0.0140
33426ION     NA48895   8.324   9.393  10.111 -0.0700  0.2010  0.0314
33427ION     NA48896   1.493  11.012  10.413 -0.3602 -0.0811 -0.1434
33428ION     NA48897  14.812   8.219   9.953  0.3081 -0.1205  0.0784
33429ION     NA48898   7.144   2.262  10.929  0.0644  0.1031 -0.1768
33430ION     NA48899   5.600  15.469   6.178 -0.5022 -0.2685 -0.0972
33431ION     NA48900  15.360   2.096   5.379  0.0417  0.3375 -0.0416
33432ION     NA48901  13.523  14.732  10.993  0.1017 -0.5967  0.0020
33433ION     NA48902  17.884   0.404   6.094  0.0287 -0.2588 -0.0995
33434ION     NA48903   1.663  16.030  11.509  0.1797  0.2820  0.2477
33435ION     NA48904  15.689   9.238  10.911 -0.0686 -0.0783 -0.0023
33436ION     NA48905  17.563   0.084  11.079 -0.3821  0.4152  0.1083
33437ION     NA48906  12.452   3.772   4.025 -0.0276 -0.2353 -0.2469
33438ION     NA48907   5.841  11.072  13.229 -0.2319 -0.3608  0.0162
33439ION     NA48908   7.004   6.383  16.031 -0.0235  0.1225 -0.1311
33440ION     NA48909  10.241   5.836   6.020 -0.0966  0.0626 -0.1290
33441ION     NA48910  14.838   9.790  10.074 -0.2822  0.2231  0.2124
33442ION     NA48911   8.808  15.748  10.821  0.0577  0.1703 -0.1450
33443ION     NA48912   1.308   7.814  14.499 -0.1387 -0.1344  0.5869
33444ION     NA48913  17.148   1.733  13.302  0.0434 -0.1271 -0.0668
33445ION     NA48914  11.503  13.590  10.751 -0.2632  0.0505 -0.0211
33446ION     NA48915   4.017  11.894   5.952 -0.2771  0.2371  0.1300
33447ION     NA48916  17.125  10.972  10.378  0.0411  0.2315 -0.1906
33448ION     NA48917   4.383   1.791  10.859 -0.3156 -0.0251 -0.0495
33449ION     NA48918   8.884   7.939   6.100 -0.3385  0.1825  0.0830
33450ION     NA48919  12.104  16.225  10.712 -0.2183  0.0580  0.1171
33451ION     NA48920  17.410   9.815   9.936  0.0012 -0.1350 -0.1784
33452ION     NA48921   5.405   1.582   2.841 -0.4250 -0.3529 -0.0991
33453ION     NA48922   8.461   7.440  11.982  0.0433  0.0898  0.5327
33454ION     NA48923   2.847  13.337  10.657  0.1832 -0.3673  0.0961
33455ION     NA48924   5.066   9.941  10.289 -0.1245  0.1056 -0.0635
33456ION     NA48925  12.107  17.496  11.924 -0.3212 -0.0282 -0.3128
33457ION     NA48926   7.294  15.301  14.088 -0.1763  0.3236  0.0764
33458ION     NA48927  16.846  12.552  10.815 -0.0285 -0.2158 -0.3036
33459ION     NA48928  17.467   4.503   9.993  0.0055  0.2603 -0.1906
33460ION     NA48929  17.887  16.426  11.317 -0.0150  0.0568 -0.0666
33461ION     NA48930   0.998   5.300   5.436 -0.0416 -0.2750 -0.0049
33462ION     NA48931   0.007   2.796  10.298 -0.2679 -0.0238 -0.0260
33463ION     NA48932   9.018   9.290   2.002 -0.2139  0.1187  0.0716
33464ION     NA48933  12.150   7.134  11.835 -0.1079 -0.1027 -0.0199
33465ION     NA48934  13.106   2.381  16.121 -0.0713 -0.1841 -0.3064
33466ION     NA48935   8.181   0.692  11.144 -0.3586 -0.1660 -0.1693
33467ION     NA48936   0.236  15.684  12.042  0.0508  0.1151  0.4070
33468ION     NA48937   7.920  12.134   4.975  0.0970  0.1286  0.0632
33469ION     NA48938   1.883   7.815   9.921 -0.0487 -0.2267  0.1364
33470ION     NA48939   9.967  12.820   5.956  0.0163 -0.2007 -0.0812
33471ION     NA48940   3.751   8.612   1.247  0.0560 -0.0681 -0.1369
33472ION     NA48941   0.124   5.090  10.137  0.1149 -0.0054  0.0245
33473ION     NA48942   8.274   4.257  15.946  0.1662 -0.2091 -0.0024
33474ION     NA48943  11.718  14.483   3.709  0.0025  0.0588 -0.4953
33475ION     NA48944   5.123   3.697  10.823  0.0529 -0.0417 -0.0864
33476ION     NA48945   8.755  17.281  10.984 -0.1482  0.0642  0.0831
33477ION     NA48946   9.552  11.887  10.448  0.4062  0.2042 -0.1188
33478ION     NA48947   6.080   8.863  10.331 -0.0732 -0.2627 -0.2603
33479ION     NA48948   1.985   8.679   9.952  0.0514  0.0122  0.0724
33480ION     NA48949   9.037   9.640  11.957 -0.2567  0.1849  0.1194
33481ION     NA48950  10.467   9.315  10.492 -0.2858  0.0184 -0.0441
33482ION     NA48951   8.011  15.190   6.332 -0.2037 -0.2052 -0.1223
33483ION     NA48952  11.863  12.237  10.994 -0.1969 -0.0722  0.2547
33484ION     NA48953  15.470   5.497  10.120 -0.2305 -0.1865  0.0382
33485ION     NA48954  16.047   0.384  15.369  0.1453 -0.1034 -0.1306
33486ION     NA48955  10.824  10.433   6.238 -0.0214  0.0739 -0.1524
33487ION     NA48956   4.312   3.913   3.528 -0.4197 -0.1834 -0.1055
33488ION     NA48957   2.769   9.085   5.738  0.0834  0.2353 -0.0307
33489ION     NA48958   6.561  11.534   1.096  0.0661  0.0817 -0.2316
33490ION     NA48959   6.495  12.932   6.069  0.5231  0.1392  0.0961
33491ION     NA48960  12.117  14.884   6.266  0.0490 -0.1457  0.0934
33492ION     NA48961   6.008   4.762   5.708  0.0645 -0.1704  0.0101
33493ION     NA48962   0.236  17.504   1.762 -0.3291  0.0672 -0.2082
33494ION     NA48963   8.307  15.571  13.034 -0.1916  0.2668 -0.2011
33495ION     NA48964   4.110  17.681   0.065  0.2643 -0.0335  0.0352
33496ION     NA48965  12.374   4.545  10.177 -0.1603  0.3615  0.0457
33497ION     NA48966   2.634   1.738   4.938 -0.1561  0.2539 -0.1567
33498ION     NA48967  16.873  14.292  11.024 -0.0178 -0.0348  0.1425
33499ION     NA48968   2.102  17.299   2.918 -0.1214  0.0716 -0.0951
33500ION     NA48969   4.182   8.616   5.878  0.1161 -0.1631  0.1281
33501ION     NA48970   5.239   6.486  10.051  0.2798  0.1200 -0.0890
33502ION     NA48971  17.143   7.238   5.256 -0.0423  0.0656  0.3522
33503ION     NA48972   7.520  13.906   5.602  0.1789 -0.1765 -0.1234
33504ION     NA48973   1.896  14.650  10.972 -0.0864  0.2681 -0.1917
33505ION     NA48974   3.580  12.968  10.583 -0.0793 -0.2833 -0.1093
33506ION     NA48975  11.051   6.036  10.604  0.0679 -0.1329 -0.0873
33507ION     NA48976  13.118   7.126   5.447 -0.0272  0.1938 -0.2743
33508ION     NA48977   5.763   2.975  10.985 -0.1666 -0.1965 -0.2533
33509ION     NA48978   0.869   0.110  13.647  0.0246 -0.0313 -0.1539
33510ION     NA48979  14.339  11.562  10.419  0.1896  0.1418  0.1086
33511ION     NA48980   1.463   2.319  10.246 -0.1470 -0.0407  0.2079
33512ION     NA48981   0.575   0.333  10.856  0.0638 -0.2002 -0.0855
33513ION     NA48982   1.503  11.435  15.009  0.2286 -0.2329  0.0864
33514ION     NA48983   8.326   2.577  10.903  0.3355 -0.1057 -0.0781
33515ION     NA48984  16.610   8.694   5.666  0.1219  0.3420 -0.0152
33516ION     NA48985  17.467   2.635   5.965  0.1981  0.0191  0.1389
33517ION     NA48986  14.806   6.684   9.950 -0.1556  0.0275 -0.0519
33518ION     NA48987  13.315   9.307  13.543 -0.2559 -0.0203 -0.4822
33519ION     NA48988   5.566   9.642  10.322 -0.1225  0.0845 -0.0027
33520ION     NA48989  13.687   4.816  15.605 -0.1831 -0.0599 -0.0941
33521ION     NA48990   5.947   2.405   5.907 -0.0686 -0.1376 -0.0973
33522ION     NA48991   6.717  16.855  11.671  0.0723 -0.3887  0.1585
33523ION     NA48992  10.006   5.630  16.001  0.0629  0.0226  0.0520
33524ION     NA48993  12.144   3.038  10.364 -0.0330 -0.2691  0.1766
33525ION     NA48994   6.241   4.996  10.257 -0.0465 -0.1907 -0.0578
33526ION     NA48995  10.748   3.145  10.945  0.2606  0.1112 -0.2154
33527ION     NA48996  12.211   6.349   5.841  0.2419 -0.1295 -0.3965
33528ION     NA48997  13.479   1.067  11.035 -0.1783  0.0049  0.1989
33529ION     NA48998  11.330  15.642  10.837  0.0319  0.1896  0.0776
33530ION     NA48999   5.715   6.718  10.348 -0.2127  0.1260 -0.0433
33531ION     NA49000   6.707  16.062  10.854 -0.0445 -0.0555 -0.5502
33532ION     NA49001  10.915   1.467  10.810  0.1313  0.0242  0.2140
33533ION     NA49002   1.381  13.271  10.652  0.2129 -0.4212  0.2011
33534ION     NA49003   8.348   7.289  15.269 -0.0541  0.1000  0.0669
33535ION     NA49004  17.371  11.216   5.685  0.2756  0.1371 -0.0137
33536ION     NA49005   1.222  13.279   6.083  0.2381 -0.0589  0.1191
33537ION     NA49006   2.879  14.339  10.825 -0.0982 -0.2289 -0.1495
33538ION     NA49007   2.512  15.518  11.203 -0.1543 -0.2420  0.2172
33539ION     NA49008  13.989   8.620   9.890 -0.0928 -0.0572 -0.2583
33540ION     NA49009   0.516   8.293   9.789  0.2339 -0.2654 -0.3048
33541ION     NA49010  16.969   7.668   2.036  0.1076 -0.1570 -0.2110
33542ION     NA49011  17.329  14.955  11.395 -0.0370  0.3759  0.1468
33543ION     NA49012  15.785  17.656  11.171 -0.4626  0.1292 -0.3333
33544ION     NA49013  10.933  15.826   6.093 -0.3293 -0.3074 -0.1604
33545ION     NA49014  17.911  12.902  11.767 -0.0010 -0.0943 -0.2296
33546ION     NA49015   5.405  15.195  10.728 -0.0789  0.1351  0.1152
33547ION     NA49016   9.144  10.832  10.520 -0.3096  0.0521 -0.1764
33548ION     NA49017  17.215   3.616  10.299 -0.3047 -0.2920  0.2080
33549ION     NA49018  11.658  11.096  10.571  0.1032  0.1986 -0.2141
33550ION     NA49019  13.434   8.443   9.956 -0.0101  0.2153 -0.2816
33551ION     NA49020  13.453   2.796  14.803 -0.0799  0.0082 -0.1395
33552ION     NA49021  17.359   6.773   9.995  0.1390 -0.2091 -0.0354
33553ION     NA49022   8.967   1.550  10.925  0.1248  0.1213  0.1980
33554ION     NA49023  16.677   9.240   5.112  0.0315 -0.1486 -0.2035
33555ION     NA49024  17.689  12.251  10.453  0.2070 -0.0403 -0.2116
33556ION     NA49025  10.766   9.836  14.490  0.2333 -0.1418  0.2001
33557ION     NA49026  12.629   8.889   1.013  0.2545 -0.0444  0.2012
33558ION     NA49027  11.414  16.670   6.472 -0.1354  0.0283  0.1014
33559ION     NA49028  16.363  16.322  11.210 -0.2242  0.0318 -0.0162
33560ION     NA49029   4.684   4.504  10.503 -0.0962 -0.0950  0.2409
33561ION     NA49030  10.628  13.387  10.610  0.2986 -0.0363 -0.1461
33562ION     NA49031   2.566   5.940  13.891 -0.1312 -0.0877 -0.0093
33563ION     NA49032   0.863  16.868   6.204  0.1037  0.0781 -0.1141
33564ION     NA49033   7.192   5.318  10.692  0.1978  0.0758  0.0871
33565ION     NA49034   0.513   1.696   4.930 -0.1750  0.0660 -0.2660
33566ION     NA49035   0.032   3.245  16.603  0.1565 -0.2487  0.2159
33567ION     NA49036   2.760   9.077  15.396  0.0644 -0.0116  0.2380
33568ION     NA49037  16.457   5.946   2.504 -0.3824 -0.1131  0.0366
33569ION     NA49038   3.864   4.653  10.649 -0.0273  0.0073 -0.2466
33570ION     NA49039   3.810  12.077  10.546 -0.1947 -0.1254 -0.0795
33571ION     NA49040  17.287   4.025   1.763 -0.2502  0.0181  0.1398
33572ION     NA49041  12.910   0.310  10.888  0.0482 -0.0136  0.3774
33573ION     NA49042   2.131  10.357  10.220 -0.1381 -0.0984  0.3707
33574ION     NA49043  10.346   5.943  12.915 -0.2479 -0.0067 -0.1893
33575ION     NA49044   0.799   9.860  10.050 -0.1004 -0.0006 -0.0303
33576ION     NA49045   9.325   8.321  10.299  0.1226 -0.1918 -0.0968
33577ION     NA49046   9.068  13.047  10.643 -0.1786  0.0608 -0.0410
33578ION     NA49047  14.669   4.410  10.262 -0.4394 -0.0417 -0.0561
33579ION     NA49048  17.297  11.171   1.089  0.2376 -0.3133  0.2463
33580ION     NA49049   0.358  12.674  10.423 -0.0040 -0.3725 -0.0245
33581ION     NA49050  14.114   7.818   9.909  0.0460  0.0008 -0.1876
33582ION     NA49051   2.242  11.002  13.711  0.0003  0.0944  0.0087
33583ION     NA49052  10.585   7.023  10.389 -0.0609 -0.0303  0.2032
33584ION     NA49053  16.122  12.910  10.911 -0.0591  0.0582  0.0935
33585ION     NA49054   0.440   4.466   3.535  0.1462  0.0070  0.0655
33586ION     NA49055   6.016   8.403   5.916 -0.0304 -0.2309  0.1555
33587ION     NA49056   2.812   0.639  10.528 -0.1176  0.0671 -0.1816
33588ION     NA49057  14.529   2.928   0.353  0.1325  0.2200 -0.2963
33589ION     NA49058   2.066  12.037  10.418 -0.0392 -0.0399  0.1662
33590ION     NA49059   8.210   5.350  10.811 -0.1194  0.2748 -0.2918
33591ION     NA49060  11.906   8.743  15.551 -0.1177  0.1425  0.2871
33592ION     NA49061   6.825   4.097  10.861 -0.2594 -0.2043 -0.1544
33593ION     NA49062   6.713   1.621  11.265 -0.0342  0.0064 -0.2745
33594ION     NA49063  14.064  16.752  15.573  0.0678  0.1767 -0.0458
33595ION     NA49064  11.958  15.672  14.690 -0.0643  0.0838  0.2391
33596ION     NA49065  11.524  14.642  11.921 -0.4067 -0.0481 -0.1694
33597ION     NA49066   2.146   3.812  10.092 -0.1186  0.1602  0.0147
33598ION     NA49067   5.516  15.811  15.370  0.0399  0.0533 -0.0104
33599ION     NA49068   7.237  14.479  10.718 -0.1336  0.1978  0.0167
33600ION     NA49069   9.664  13.444  10.504  0.1857  0.0563 -0.1689
33601ION     NA49070  16.048   7.054   9.683  0.0670 -0.1071  0.0580
33602ION     NA49071  13.900   6.363  10.116 -0.0765  0.1109 -0.2086
33603ION     NA49072   9.452   6.525  10.710  0.3422 -0.2397 -0.1156
33604ION     NA49073   4.541   8.120  10.328 -0.0598 -0.2809 -0.0124
33605ION     NA49074  16.933   0.069   4.878  0.0527  0.4295  0.2866
  18.00253  18.00253  16.61540
